# vtk DataFile Version 4.0
vtk output
ASCII
DATASET UNSTRUCTURED_GRID
POINTS 30 float
0.0000000e+00 0.0000000e+00 0.0000000e+00 
0.0000000e+00 0.0000000e+00 8.0000001e-01 
0.0000000e+00 0.0000000e+00 1.6000000e+00 
0.0000000e+00 0.0000000e+00 2.4000001e+00 
0.0000000e+00 0.0000000e+00 3.2000000e+00 
0.0000000e+00 0.0000000e+00 4.0000000e+00 
0.0000000e+00 0.0000000e+00 4.8000002e+00 
0.0000000e+00 0.0000000e+00 5.5999999e+00 
0.0000000e+00 0.0000000e+00 6.4000001e+00 
0.0000000e+00 0.0000000e+00 7.1999998e+00 
0.0000000e+00 0.0000000e+00 8.0000000e+00 
1.0000000e+01 0.0000000e+00 0.0000000e+00 
1.0000000e+01 0.0000000e+00 8.0000001e-01 
1.0000000e+01 0.0000000e+00 1.6000000e+00 
1.0000000e+01 0.0000000e+00 2.4000001e+00 
1.0000000e+01 0.0000000e+00 3.2000000e+00 
1.0000000e+01 0.0000000e+00 4.0000000e+00 
1.0000000e+01 0.0000000e+00 4.8000002e+00 
1.0000000e+01 0.0000000e+00 5.5999999e+00 
1.0000000e+01 0.0000000e+00 6.4000001e+00 
1.0000000e+01 0.0000000e+00 7.1999998e+00 
1.0000000e+01 0.0000000e+00 8.0000000e+00 
2.0000000e+00 0.0000000e+00 4.0000000e+00 
4.0000000e+00 0.0000000e+00 4.0000000e+00 
6.0000000e+00 0.0000000e+00 4.0000000e+00 
8.0000000e+00 0.0000000e+00 4.0000000e+00 
2.0000000e+00 0.0000000e+00 8.0000000e+00 
4.0000000e+00 0.0000000e+00 8.0000000e+00 
6.0000000e+00 0.0000000e+00 8.0000000e+00 
8.0000000e+00 0.0000000e+00 8.0000000e+00 

CELLS 30 90
2 0 1
2 1 2
2 2 3
2 3 4
2 4 5
2 5 6
2 6 7
2 7 8
2 8 9
2 9 10
2 11 12
2 12 13
2 13 14
2 14 15
2 15 16
2 16 17
2 17 18
2 18 19
2 19 20
2 20 21
2 5 22
2 22 23
2 23 24
2 24 25
2 25 16
2 10 26
2 26 27
2 27 28
2 28 29
2 29 21

CELL_TYPES 30
3
3
3
3
3
3
3
3
3
3
3
3
3
3
3
3
3
3
3
3
3
3
3
3
3
3
3
3
3
3
POINT_DATA 30
FIELD FieldData 7
DISPLACEMENT 3 30  float
0.0000000e+00 0.0000000e+00 0.0000000e+00 
1.3725762e-03 0.0000000e+00 7.5408643e-06 
2.6694203e-03 0.0000000e+00 1.7767787e-05 
3.7688303e-03 0.0000000e+00 2.9475823e-05 
4.6063079e-03 0.0000000e+00 4.1183859e-05 
5.1396200e-03 0.0000000e+00 5.4852786e-05 
5.4003960e-03 0.0000000e+00 6.5470515e-05 
5.4417155e-03 0.0000000e+00 7.4262673e-05 
5.3013340e-03 0.0000000e+00 8.1234830e-05 
4.9648536e-03 0.0000000e+00 8.8206980e-05 
4.4012200e-03 0.0000000e+00 9.5179137e-05 
0.0000000e+00 0.0000000e+00 0.0000000e+00 
1.6437663e-03 0.0000000e+00 -1.3986495e-06 
3.0760060e-03 0.0000000e+00 -4.2003230e-06 
4.1544870e-03 0.0000000e+00 -4.1157523e-06 
4.8210314e-03 0.0000000e+00 -2.9898583e-06 
5.1133176e-03 0.0000000e+00 -1.6395287e-06 
5.1145954e-03 0.0000000e+00 4.3883583e-06 
4.9565518e-03 0.0000000e+00 1.0416245e-05 
4.7131837e-03 0.0000000e+00 1.6444134e-05 
4.4763936e-03 0.0000000e+00 1.9431925e-05 
4.3953238e-03 0.0000000e+00 2.3400034e-05 
5.1361853e-03 0.0000000e+00 -4.5003492e-04 
5.1234169e-03 0.0000000e+00 -1.7005930e-04 
5.1201503e-03 0.0000000e+00 -3.1845913e-05 
5.1168832e-03 0.0000000e+00 -7.8989306e-06 
4.3953555e-03 0.0000000e+00 2.1411330e-03 
4.3944409e-03 0.0000000e+00 3.2506785e-03 
4.3939650e-03 0.0000000e+00 2.5142746e-03 
4.3939967e-03 0.0000000e+00 8.5167115e-04 
ROTATION 3 30  float
0.0000000e+00 1.7281495e-03 0.0000000e+00 
0.0000000e+00 1.6908620e-03 0.0000000e+00 
0.0000000e+00 1.5187288e-03 0.0000000e+00 
0.0000000e+00 1.2201754e-03 0.0000000e+00 
0.0000000e+00 8.6389878e-04 0.0000000e+00 
0.0000000e+00 4.6469140e-04 0.0000000e+00 
0.0000000e+00 1.8350531e-04 0.0000000e+00 
0.0000000e+00 -6.5854758e-05 0.0000000e+00 
0.0000000e+00 -2.9156895e-04 0.0000000e+00 
0.0000000e+00 -5.5610138e-04 0.0000000e+00 
0.0000000e+00 -8.5945206e-04 0.0000000e+00 
0.0000000e+00 2.1018146e-03 0.0000000e+00 
0.0000000e+00 1.9604946e-03 0.0000000e+00 
0.0000000e+00 1.5912297e-03 0.0000000e+00 
0.0000000e+00 1.0897903e-03 0.0000000e+00 
0.0000000e+00 5.9345411e-04 0.0000000e+00 
0.0000000e+00 1.3200642e-04 0.0000000e+00 
0.0000000e+00 -1.1339482e-04 0.0000000e+00 
0.0000000e+00 -2.6629871e-04 0.0000000e+00 
0.0000000e+00 -3.2670528e-04 0.0000000e+00 
0.0000000e+00 -2.2747222e-04 0.0000000e+00 
0.0000000e+00 4.4619595e-05 0.0000000e+00 
0.0000000e+00 7.0981018e-06 0.0000000e+00 
0.0000000e+00 -1.5571568e-04 0.0000000e+00 
0.0000000e+00 -1.1518901e-05 0.0000000e+00 
0.0000000e+00 -4.1449272e-05 0.0000000e+00 
0.0000000e+00 -9.4657700e-04 0.0000000e+00 
0.0000000e+00 -8.7488988e-05 0.0000000e+00 
0.0000000e+00 7.3682051e-04 0.0000000e+00 
0.0000000e+00 7.3871796e-04 0.0000000e+00 
REACTION 3 30  float
-3.6704810e+03 -0.0000000e+00 -1.9794770e+04 
-1.7098500e-10 -0.0000000e+00 -3.6379788e-12 
3.7471182e-10 -0.0000000e+00 3.6379788e-12 
-6.6938810e-10 -0.0000000e+00 -0.0000000e+00 
-1.9736035e-09 -0.0000000e+00 -7.2759576e-12 
7.5078788e-10 -0.0000000e+00 -2.9376679e-10 
1.5370460e-10 -0.0000000e+00 -1.6370905e-10 
3.0559022e-10 -0.0000000e+00 9.8225428e-11 
1.7607817e-09 -0.0000000e+00 -2.9103830e-11 
-1.1641532e-10 -0.0000000e+00 -0.0000000e+00 
-5.6115823e-10 -0.0000000e+00 3.6379788e-12 
-1.3911188e+04 -0.0000000e+00 3.6714548e+03 
-3.4560799e-10 -0.0000000e+00 3.0922820e-11 
1.1386874e-09 -0.0000000e+00 2.3646862e-11 
-9.9316821e-10 -0.0000000e+00 -1.4551915e-11 
-7.5942808e-10 -0.0000000e+00 -6.4574124e-11 
-1.5702426e-09 -0.0000000e+00 -1.1914381e-09 
1.0913936e-10 -0.0000000e+00 -0.0000000e+00 
-2.0372681e-10 -0.0000000e+00 -1.8189894e-12 
7.2395778e-10 -0.0000000e+00 -3.2196112e-10 
-1.4824764e-10 -0.0000000e+00 3.6379788e-12 
8.7038643e-10 -0.0000000e+00 8.7766239e-11 
-1.5279511e-10 -0.0000000e+00 4.5019988e-10 
2.7284841e-11 -0.0000000e+00 -1.0004442e-11 
-0.0000000e+00 -0.0000000e+00 2.7966962e-10 
9.0585672e-10 -0.0000000e+00 2.3646862e-11 
4.1563908e-10 -0.0000000e+00 4.8203219e-11 
-5.6570570e-10 -0.0000000e+00 -8.1854523e-12 
-7.4942363e-10 -0.0000000e+00 2.7648639e-10 
5.8389560e-10 -0.0000000e+00 -1.0459189e-11 
REACTION_MOMENT 3 30  float
-0.0000000e+00 3.2014214e-10 -0.0000000e+00 
-0.0000000e+00 2.6193447e-10 -0.0000000e+00 
-0.0000000e+00 9.8953024e-10 -0.0000000e+00 
-0.0000000e+00 -5.0931703e-10 -0.0000000e+00 
-0.0000000e+00 -3.5652192e-10 -0.0000000e+00 
-0.0000000e+00 8.8311936e-10 -0.0000000e+00 
-0.0000000e+00 -5.4569682e-11 -0.0000000e+00 
-0.0000000e+00 -1.0368240e-10 -0.0000000e+00 
-0.0000000e+00 3.4924597e-10 -0.0000000e+00 
-0.0000000e+00 2.7648639e-10 -0.0000000e+00 
-0.0000000e+00 -3.1286618e-10 -0.0000000e+00 
-0.0000000e+00 1.7462298e-10 -0.0000000e+00 
-0.0000000e+00 2.9103830e-11 -0.0000000e+00 
-0.0000000e+00 1.8917490e-10 -0.0000000e+00 
-0.0000000e+00 -4.3655746e-11 -0.0000000e+00 
-0.0000000e+00 2.1100277e-10 -0.0000000e+00 
-0.0000000e+00 -3.9744918e-10 -0.0000000e+00 
-0.0000000e+00 -8.3673513e-11 -0.0000000e+00 
-0.0000000e+00 -2.5465852e-11 -0.0000000e+00 
-0.0000000e+00 -3.0195224e-10 -0.0000000e+00 
-0.0000000e+00 -2.4010660e-10 -0.0000000e+00 
-0.0000000e+00 -2.8012437e-10 -0.0000000e+00 
-0.0000000e+00 2.0008883e-11 -0.0000000e+00 
-0.0000000e+00 -3.0922820e-11 -0.0000000e+00 
-0.0000000e+00 1.0686563e-11 -0.0000000e+00 
-0.0000000e+00 5.2295945e-12 -0.0000000e+00 
-0.0000000e+00 -1.0913936e-11 -0.0000000e+00 
-0.0000000e+00 -7.2759576e-12 -0.0000000e+00 
-0.0000000e+00 -7.2759576e-12 -0.0000000e+00 
-0.0000000e+00 5.4569682e-12 -0.0000000e+00 
VOLUME_ACCELERATION 3 30  float
0.0000000e+00 0.0000000e+00 0.0000000e+00 
0.0000000e+00 0.0000000e+00 0.0000000e+00 
0.0000000e+00 0.0000000e+00 0.0000000e+00 
0.0000000e+00 0.0000000e+00 0.0000000e+00 
0.0000000e+00 0.0000000e+00 0.0000000e+00 
0.0000000e+00 0.0000000e+00 0.0000000e+00 
0.0000000e+00 0.0000000e+00 0.0000000e+00 
0.0000000e+00 0.0000000e+00 0.0000000e+00 
0.0000000e+00 0.0000000e+00 0.0000000e+00 
0.0000000e+00 0.0000000e+00 0.0000000e+00 
0.0000000e+00 0.0000000e+00 0.0000000e+00 
0.0000000e+00 0.0000000e+00 0.0000000e+00 
0.0000000e+00 0.0000000e+00 0.0000000e+00 
0.0000000e+00 0.0000000e+00 0.0000000e+00 
0.0000000e+00 0.0000000e+00 0.0000000e+00 
0.0000000e+00 0.0000000e+00 0.0000000e+00 
0.0000000e+00 0.0000000e+00 0.0000000e+00 
0.0000000e+00 0.0000000e+00 0.0000000e+00 
0.0000000e+00 0.0000000e+00 0.0000000e+00 
0.0000000e+00 0.0000000e+00 0.0000000e+00 
0.0000000e+00 0.0000000e+00 0.0000000e+00 
0.0000000e+00 0.0000000e+00 0.0000000e+00 
0.0000000e+00 0.0000000e+00 0.0000000e+00 
0.0000000e+00 0.0000000e+00 0.0000000e+00 
0.0000000e+00 0.0000000e+00 0.0000000e+00 
0.0000000e+00 0.0000000e+00 0.0000000e+00 
0.0000000e+00 0.0000000e+00 0.0000000e+00 
0.0000000e+00 0.0000000e+00 0.0000000e+00 
0.0000000e+00 0.0000000e+00 0.0000000e+00 
0.0000000e+00 0.0000000e+00 0.0000000e+00 
POINT_LOAD 3 30  float
0.0000000e+00 0.0000000e+00 0.0000000e+00 
-5.9329287e+03 0.0000000e+00 -7.0509004e+03 
6.7623447e+03 0.0000000e+00 -3.8879277e+03 
0.0000000e+00 0.0000000e+00 0.0000000e+00 
1.4561296e+03 0.0000000e+00 -5.1473394e+03 
3.8862141e+03 0.0000000e+00 9.5732861e+03 
5.3435811e+03 0.0000000e+00 4.7921260e+03 
-6.1488120e+03 0.0000000e+00 4.7775112e+03 
0.0000000e+00 0.0000000e+00 0.0000000e+00 
0.0000000e+00 0.0000000e+00 0.0000000e+00 
8.0686987e+03 0.0000000e+00 6.9654551e+03 
0.0000000e+00 0.0000000e+00 0.0000000e+00 
5.3840566e+03 0.0000000e+00 3.6829380e+03 
4.0433325e+03 0.0000000e+00 -7.5763911e+03 
9.4699443e+03 0.0000000e+00 -2.7334741e+03 
-6.5379492e+03 0.0000000e+00 -5.8914288e+02 
2.3603401e+03 0.0000000e+00 -7.7040073e+03 
0.0000000e+00 0.0000000e+00 0.0000000e+00 
0.0000000e+00 0.0000000e+00 0.0000000e+00 
6.6093159e+03 0.0000000e+00 7.9802500e+03 
-5.3080542e+03 0.0000000e+00 -2.5733354e+03 
-4.4603843e+03 0.0000000e+00 8.2931768e+03 
9.7998799e+03 0.0000000e+00 -7.7705576e+03 
-9.9762314e+03 0.0000000e+00 7.5779189e+03 
0.0000000e+00 0.0000000e+00 0.0000000e+00 
3.1378787e+02 0.0000000e+00 -5.9458330e+03 
-5.1981108e+03 0.0000000e+00 7.7700425e+03 
-4.6043777e+02 0.0000000e+00 7.6805732e+03 
-5.3245483e+02 0.0000000e+00 4.7246548e+03 
-1.3605917e+03 0.0000000e+00 -6.7157100e+03 
POINT_MOMENT 3 30  float
0.0000000e+00 0.0000000e+00 0.0000000e+00 
0.0000000e+00 0.0000000e+00 0.0000000e+00 
0.0000000e+00 0.0000000e+00 0.0000000e+00 
0.0000000e+00 0.0000000e+00 0.0000000e+00 
0.0000000e+00 0.0000000e+00 0.0000000e+00 
0.0000000e+00 0.0000000e+00 0.0000000e+00 
0.0000000e+00 0.0000000e+00 0.0000000e+00 
0.0000000e+00 0.0000000e+00 0.0000000e+00 
0.0000000e+00 0.0000000e+00 0.0000000e+00 
0.0000000e+00 0.0000000e+00 0.0000000e+00 
0.0000000e+00 0.0000000e+00 0.0000000e+00 
0.0000000e+00 0.0000000e+00 0.0000000e+00 
0.0000000e+00 0.0000000e+00 0.0000000e+00 
0.0000000e+00 0.0000000e+00 0.0000000e+00 
0.0000000e+00 0.0000000e+00 0.0000000e+00 
0.0000000e+00 0.0000000e+00 0.0000000e+00 
0.0000000e+00 0.0000000e+00 0.0000000e+00 
0.0000000e+00 0.0000000e+00 0.0000000e+00 
0.0000000e+00 0.0000000e+00 0.0000000e+00 
0.0000000e+00 0.0000000e+00 0.0000000e+00 
0.0000000e+00 0.0000000e+00 0.0000000e+00 
0.0000000e+00 0.0000000e+00 0.0000000e+00 
0.0000000e+00 0.0000000e+00 0.0000000e+00 
0.0000000e+00 0.0000000e+00 0.0000000e+00 
0.0000000e+00 0.0000000e+00 0.0000000e+00 
0.0000000e+00 0.0000000e+00 0.0000000e+00 
0.0000000e+00 0.0000000e+00 0.0000000e+00 
0.0000000e+00 0.0000000e+00 0.0000000e+00 
0.0000000e+00 0.0000000e+00 0.0000000e+00 
0.0000000e+00 0.0000000e+00 0.0000000e+00 
CELL_DATA 30
FIELD FieldData 9
YOUNG_MODULUS 1 30  float
2.1000000e+11
2.1000000e+11
2.1000000e+11
2.1000000e+11
2.1000000e+11
2.1000000e+11
2.1000000e+11
2.1000000e+11
2.1000000e+11
2.1000000e+11
2.1000000e+11
2.1000000e+11
2.1000000e+11
2.1000000e+11
2.1000000e+11
2.1000000e+11
2.1000000e+11
2.1000000e+11
2.1000000e+11
2.1000000e+11
2.1000000e+11
2.1000000e+11
2.1000000e+11
2.1000000e+11
2.1000000e+11
2.1000000e+11
2.1000000e+11
2.1000000e+11
2.1000000e+11
2.1000000e+11
DENSITY 1 30  float
7.8500000e+03
7.8500000e+03
7.8500000e+03
7.8500000e+03
7.8500000e+03
7.8500000e+03
7.8500000e+03
7.8500000e+03
7.8500000e+03
7.8500000e+03
7.8500000e+03
7.8500000e+03
7.8500000e+03
7.8500000e+03
7.8500000e+03
7.8500000e+03
7.8500000e+03
7.8500000e+03
7.8500000e+03
7.8500000e+03
7.8500000e+03
7.8500000e+03
7.8500000e+03
7.8500000e+03
7.8500000e+03
7.8500000e+03
7.8500000e+03
7.8500000e+03
7.8500000e+03
7.8500000e+03
CROSS_AREA 1 30  float
9.9999998e-03
9.9999998e-03
9.9999998e-03
9.9999998e-03
9.9999998e-03
9.9999998e-03
9.9999998e-03
9.9999998e-03
9.9999998e-03
9.9999998e-03
9.9999998e-03
9.9999998e-03
9.9999998e-03
9.9999998e-03
9.9999998e-03
9.9999998e-03
9.9999998e-03
9.9999998e-03
9.9999998e-03
9.9999998e-03
9.9999998e-03
9.9999998e-03
9.9999998e-03
9.9999998e-03
9.9999998e-03
9.9999998e-03
9.9999998e-03
9.9999998e-03
9.9999998e-03
9.9999998e-03
I22 1 30  float
1.5000001e-04
1.5000001e-04
1.5000001e-04
1.5000001e-04
1.5000001e-04
1.5000001e-04
1.5000001e-04
1.5000001e-04
1.5000001e-04
1.5000001e-04
1.5000001e-04
1.5000001e-04
1.5000001e-04
1.5000001e-04
1.5000001e-04
1.5000001e-04
1.5000001e-04
1.5000001e-04
1.5000001e-04
1.5000001e-04
1.5000001e-04
1.5000001e-04
1.5000001e-04
1.5000001e-04
1.5000001e-04
1.5000001e-04
1.5000001e-04
1.5000001e-04
1.5000001e-04
1.5000001e-04
I33 1 30  float
1.5000001e-04
1.5000001e-04
1.5000001e-04
1.5000001e-04
1.5000001e-04
1.5000001e-04
1.5000001e-04
1.5000001e-04
1.5000001e-04
1.5000001e-04
1.5000001e-04
1.5000001e-04
1.5000001e-04
1.5000001e-04
1.5000001e-04
1.5000001e-04
1.5000001e-04
1.5000001e-04
1.5000001e-04
1.5000001e-04
1.5000001e-04
1.5000001e-04
1.5000001e-04
1.5000001e-04
1.5000001e-04
1.5000001e-04
1.5000001e-04
1.5000001e-04
1.5000001e-04
1.5000001e-04
TORSIONAL_INERTIA 1 30  float
3.0000001e-04
3.0000001e-04
3.0000001e-04
3.0000001e-04
3.0000001e-04
3.0000001e-04
3.0000001e-04
3.0000001e-04
3.0000001e-04
3.0000001e-04
3.0000001e-04
3.0000001e-04
3.0000001e-04
3.0000001e-04
3.0000001e-04
3.0000001e-04
3.0000001e-04
3.0000001e-04
3.0000001e-04
3.0000001e-04
3.0000001e-04
3.0000001e-04
3.0000001e-04
3.0000001e-04
3.0000001e-04
3.0000001e-04
3.0000001e-04
3.0000001e-04
3.0000001e-04
3.0000001e-04
POISSON_RATIO 1 30  float
3.0000001e-01
3.0000001e-01
3.0000001e-01
3.0000001e-01
3.0000001e-01
3.0000001e-01
3.0000001e-01
3.0000001e-01
3.0000001e-01
3.0000001e-01
3.0000001e-01
3.0000001e-01
3.0000001e-01
3.0000001e-01
3.0000001e-01
3.0000001e-01
3.0000001e-01
3.0000001e-01
3.0000001e-01
3.0000001e-01
3.0000001e-01
3.0000001e-01
3.0000001e-01
3.0000001e-01
3.0000001e-01
3.0000001e-01
3.0000001e-01
3.0000001e-01
3.0000001e-01
3.0000001e-01
MOMENT 3 30  float
0.0000000e+00 -1.4681924e+03 0.0000000e+00 
0.0000000e+00 -6.7777485e+03 0.0000000e+00 
0.0000000e+00 -1.1755538e+04 0.0000000e+00 
0.0000000e+00 -1.4028391e+04 0.0000000e+00 
0.0000000e+00 -1.5718791e+04 0.0000000e+00 
0.0000000e+00 -1.1071702e+04 0.0000000e+00 
0.0000000e+00 -9.8185527e+03 0.0000000e+00 
0.0000000e+00 -8.8874961e+03 0.0000000e+00 
0.0000000e+00 -1.0415965e+04 0.0000000e+00 
0.0000000e+00 -1.1944433e+04 0.0000000e+00 
0.0000000e+00 -5.5644756e+03 0.0000000e+00 
0.0000000e+00 -1.4539804e+04 0.0000000e+00 
0.0000000e+00 -1.9744176e+04 0.0000000e+00 
0.0000000e+00 -1.9543238e+04 0.0000000e+00 
0.0000000e+00 -1.8169502e+04 0.0000000e+00 
0.0000000e+00 -9.6626738e+03 0.0000000e+00 
0.0000000e+00 -6.0205908e+03 0.0000000e+00 
0.0000000e+00 -2.3785081e+03 0.0000000e+00 
0.0000000e+00 3.9073013e+03 0.0000000e+00 
0.0000000e+00 1.0713615e+04 0.0000000e+00 
0.0000000e+00 -7.2070947e+03 0.0000000e+00 
0.0000000e+00 -2.5643171e+03 0.0000000e+00 
0.0000000e+00 2.2710991e+03 0.0000000e+00 
0.0000000e+00 -4.7140335e+02 0.0000000e+00 
0.0000000e+00 2.7319270e+03 0.0000000e+00 
0.0000000e+00 -1.3722181e+03 0.0000000e+00 
0.0000000e+00 1.3530636e+04 0.0000000e+00 
0.0000000e+00 1.2982875e+04 0.0000000e+00 
0.0000000e+00 2.9884993e+01 0.0000000e+00 
0.0000000e+00 -1.0932049e+04 0.0000000e+00 
FORCE 3 30  float
1.9794770e+04 0.0000000e+00 -3.6704810e+03 
2.6845670e+04 0.0000000e+00 -9.6034092e+03 
3.0733598e+04 0.0000000e+00 -2.8410652e+03 
3.0733598e+04 0.0000000e+00 -2.8410652e+03 
3.5880938e+04 0.0000000e+00 -1.3849354e+03 
2.7871541e+04 0.0000000e+00 -1.1053540e+03 
2.3079414e+04 0.0000000e+00 4.2382271e+03 
1.8301904e+04 0.0000000e+00 -1.9105852e+03 
1.8301904e+04 0.0000000e+00 -1.9105852e+03 
1.8301904e+04 0.0000000e+00 -1.9105852e+03 
-3.6714548e+03 0.0000000e+00 -1.3911188e+04 
-7.3543931e+03 0.0000000e+00 -8.5271318e+03 
2.2199802e+02 0.0000000e+00 -4.4837993e+03 
2.9554719e+03 0.0000000e+00 4.9861445e+03 
3.5446150e+03 0.0000000e+00 -1.5518047e+03 
1.5823204e+04 0.0000000e+00 4.5526035e+03 
1.5823204e+04 0.0000000e+00 4.5526035e+03 
1.5823204e+04 0.0000000e+00 4.5526035e+03 
7.8429536e+03 0.0000000e+00 1.1161920e+04 
1.0416289e+04 0.0000000e+00 5.8538652e+03 
-3.6066326e+03 0.0000000e+00 -1.5638901e+03 
-1.3406512e+04 0.0000000e+00 6.2066675e+03 
-3.4302803e+03 0.0000000e+00 -1.3712513e+03 
-3.4302803e+03 0.0000000e+00 -1.3712513e+03 
-3.7440681e+03 0.0000000e+00 4.5745815e+03 
-6.1581138e+03 0.0000000e+00 1.1336448e+04 
-9.6000311e+02 0.0000000e+00 3.5664058e+03 
-4.9956531e+02 0.0000000e+00 -4.1141675e+03 
3.2889530e+01 0.0000000e+00 -8.8388223e+03 
1.3934812e+03 0.0000000e+00 -2.1231123e+03 
