# vtk DataFile Version 4.0
vtk output
ASCII
DATASET UNSTRUCTURED_GRID
POINTS 30 float
0.0000000e+00 0.0000000e+00 0.0000000e+00 
0.0000000e+00 0.0000000e+00 8.0000001e-01 
0.0000000e+00 0.0000000e+00 1.6000000e+00 
0.0000000e+00 0.0000000e+00 2.4000001e+00 
0.0000000e+00 0.0000000e+00 3.2000000e+00 
0.0000000e+00 0.0000000e+00 4.0000000e+00 
0.0000000e+00 0.0000000e+00 4.8000002e+00 
0.0000000e+00 0.0000000e+00 5.5999999e+00 
0.0000000e+00 0.0000000e+00 6.4000001e+00 
0.0000000e+00 0.0000000e+00 7.1999998e+00 
0.0000000e+00 0.0000000e+00 8.0000000e+00 
1.0000000e+01 0.0000000e+00 0.0000000e+00 
1.0000000e+01 0.0000000e+00 8.0000001e-01 
1.0000000e+01 0.0000000e+00 1.6000000e+00 
1.0000000e+01 0.0000000e+00 2.4000001e+00 
1.0000000e+01 0.0000000e+00 3.2000000e+00 
1.0000000e+01 0.0000000e+00 4.0000000e+00 
1.0000000e+01 0.0000000e+00 4.8000002e+00 
1.0000000e+01 0.0000000e+00 5.5999999e+00 
1.0000000e+01 0.0000000e+00 6.4000001e+00 
1.0000000e+01 0.0000000e+00 7.1999998e+00 
1.0000000e+01 0.0000000e+00 8.0000000e+00 
2.0000000e+00 0.0000000e+00 4.0000000e+00 
4.0000000e+00 0.0000000e+00 4.0000000e+00 
6.0000000e+00 0.0000000e+00 4.0000000e+00 
8.0000000e+00 0.0000000e+00 4.0000000e+00 
2.0000000e+00 0.0000000e+00 8.0000000e+00 
4.0000000e+00 0.0000000e+00 8.0000000e+00 
6.0000000e+00 0.0000000e+00 8.0000000e+00 
8.0000000e+00 0.0000000e+00 8.0000000e+00 

CELLS 30 90
2 0 1
2 1 2
2 2 3
2 3 4
2 4 5
2 5 6
2 6 7
2 7 8
2 8 9
2 9 10
2 11 12
2 12 13
2 13 14
2 14 15
2 15 16
2 16 17
2 17 18
2 18 19
2 19 20
2 20 21
2 5 22
2 22 23
2 23 24
2 24 25
2 25 16
2 10 26
2 26 27
2 27 28
2 28 29
2 29 21

CELL_TYPES 30
3
3
3
3
3
3
3
3
3
3
3
3
3
3
3
3
3
3
3
3
3
3
3
3
3
3
3
3
3
3
POINT_DATA 30
FIELD FieldData 7
DISPLACEMENT 3 30  float
0.0000000e+00 0.0000000e+00 0.0000000e+00 
-3.0956461e-04 0.0000000e+00 1.0541877e-06 
-6.7312695e-04 0.0000000e+00 1.2226301e-06 
-1.0604609e-03 0.0000000e+00 1.3910724e-06 
-1.4202846e-03 0.0000000e+00 1.5595148e-06 
-1.7121751e-03 0.0000000e+00 4.8266329e-06 
-1.8667232e-03 0.0000000e+00 7.2293260e-06 
-1.8894400e-03 0.0000000e+00 9.6320191e-06 
-1.8800078e-03 0.0000000e+00 1.0679842e-05 
-1.8969758e-03 0.0000000e+00 1.1727666e-05 
-1.9873360e-03 0.0000000e+00 1.5545636e-05 
0.0000000e+00 0.0000000e+00 0.0000000e+00 
-5.2101951e-04 0.0000000e+00 6.0246821e-06 
-9.6056395e-04 0.0000000e+00 1.4065260e-05 
-1.3172550e-03 0.0000000e+00 1.9398152e-05 
-1.5925914e-03 0.0000000e+00 2.7860335e-05 
-1.7229563e-03 0.0000000e+00 3.6061134e-05 
-1.8174241e-03 0.0000000e+00 4.0274965e-05 
-1.9805487e-03 0.0000000e+00 4.4488792e-05 
-2.1134501e-03 0.0000000e+00 4.8702619e-05 
-2.1268548e-03 0.0000000e+00 5.1642564e-05 
-1.9677270e-03 0.0000000e+00 5.7532798e-05 
-1.7154914e-03 0.0000000e+00 1.0075797e-03 
-1.7188076e-03 0.0000000e+00 1.9590983e-03 
-1.7167103e-03 0.0000000e+00 1.8937539e-03 
-1.7211369e-03 0.0000000e+00 8.2823262e-04 
-1.9850759e-03 0.0000000e+00 5.4732925e-04 
-1.9790526e-03 0.0000000e+00 1.0155842e-03 
-1.9716804e-03 0.0000000e+00 1.4702042e-03 
-1.9735433e-03 0.0000000e+00 1.0370108e-03 
ROTATION 3 30  float
0.0000000e+00 -3.7131959e-04 0.0000000e+00 
0.0000000e+00 -4.1822813e-04 0.0000000e+00 
0.0000000e+00 -4.7999393e-04 0.0000000e+00 
0.0000000e+00 -4.7765728e-04 0.0000000e+00 
0.0000000e+00 -4.1121815e-04 0.0000000e+00 
0.0000000e+00 -3.2139855e-04 0.0000000e+00 
0.0000000e+00 -8.7881046e-05 0.0000000e+00 
0.0000000e+00 8.1796088e-06 0.0000000e+00 
0.0000000e+00 5.3455265e-06 0.0000000e+00 
0.0000000e+00 -5.7821195e-05 0.0000000e+00 
0.0000000e+00 -1.7654143e-04 0.0000000e+00 
0.0000000e+00 -6.7244715e-04 0.0000000e+00 
0.0000000e+00 -6.0892891e-04 0.0000000e+00 
0.0000000e+00 -4.9395190e-04 0.0000000e+00 
0.0000000e+00 -4.0114651e-04 0.0000000e+00 
0.0000000e+00 -2.7156490e-04 0.0000000e+00 
0.0000000e+00 -3.3974051e-05 0.0000000e+00 
0.0000000e+00 -1.8159520e-04 0.0000000e+00 
0.0000000e+00 -2.0561626e-04 0.0000000e+00 
0.0000000e+00 -1.0603724e-04 0.0000000e+00 
0.0000000e+00 8.1116676e-05 0.0000000e+00 
0.0000000e+00 3.2803245e-04 0.0000000e+00 
0.0000000e+00 -5.8496126e-04 0.0000000e+00 
0.0000000e+00 -2.7016390e-04 0.0000000e+00 
0.0000000e+00 3.3635576e-04 0.0000000e+00 
0.0000000e+00 6.2103936e-04 0.0000000e+00 
0.0000000e+00 -2.6445821e-04 0.0000000e+00 
0.0000000e+00 -2.6568357e-04 0.0000000e+00 
0.0000000e+00 -5.7120014e-05 0.0000000e+00 
0.0000000e+00 4.6202369e-04 0.0000000e+00 
REACTION 3 30  float
-4.6175576e+03 -0.0000000e+00 -2.7672427e+03 
-6.6393113e-11 -0.0000000e+00 -0.0000000e+00 
1.1641532e-10 -0.0000000e+00 -0.0000000e+00 
8.7311491e-11 -0.0000000e+00 -4.5474735e-13 
4.9112714e-10 -0.0000000e+00 -0.0000000e+00 
1.2278178e-10 -0.0000000e+00 1.7462298e-10 
-6.1481842e-10 -0.0000000e+00 -0.0000000e+00 
-4.2746251e-11 -0.0000000e+00 5.0022209e-12 
-1.7098500e-10 -0.0000000e+00 -0.0000000e+00 
2.7284841e-11 -0.0000000e+00 -3.6379788e-12 
-4.9112714e-11 -0.0000000e+00 1.8189894e-12 
6.2525767e+03 -0.0000000e+00 -1.5814791e+04 
-2.6375346e-11 -0.0000000e+00 -1.0913936e-11 
-3.0377123e-10 -0.0000000e+00 3.6379788e-12 
1.6007107e-10 -0.0000000e+00 -0.0000000e+00 
6.2755134e-10 -0.0000000e+00 -1.0913936e-11 
4.7839421e-10 -0.0000000e+00 2.7102942e-10 
-5.0931703e-11 -0.0000000e+00 1.4551915e-11 
-1.6734703e-10 -0.0000000e+00 -1.4551915e-11 
1.0095391e-10 -0.0000000e+00 -1.0913936e-11 
1.2369128e-10 -0.0000000e+00 7.2759576e-12 
-3.8016879e-10 -0.0000000e+00 -0.0000000e+00 
-0.0000000e+00 -0.0000000e+00 -2.2373570e-10 
-4.1018211e-10 -0.0000000e+00 9.0949470e-12 
8.0035534e-11 -0.0000000e+00 1.5279511e-10 
-3.1150194e-10 -0.0000000e+00 -2.7284841e-11 
5.6388672e-11 -0.0000000e+00 3.6379788e-12 
7.2759576e-12 -0.0000000e+00 4.5474735e-12 
2.8921932e-10 -0.0000000e+00 -1.7280399e-10 
-3.6379788e-11 -0.0000000e+00 1.8189894e-11 
REACTION_MOMENT 3 30  float
-0.0000000e+00 -4.3655746e-11 -0.0000000e+00 
-0.0000000e+00 -1.4551915e-11 -0.0000000e+00 
-0.0000000e+00 -1.8917490e-10 -0.0000000e+00 
-0.0000000e+00 2.2919266e-10 -0.0000000e+00 
-0.0000000e+00 -2.2191671e-10 -0.0000000e+00 
-0.0000000e+00 -1.0913936e-10 -0.0000000e+00 
-0.0000000e+00 -2.5374902e-10 -0.0000000e+00 
-0.0000000e+00 -5.6843419e-11 -0.0000000e+00 
-0.0000000e+00 -1.4847501e-10 -0.0000000e+00 
-0.0000000e+00 -2.9103830e-11 -0.0000000e+00 
-0.0000000e+00 5.4569682e-11 -0.0000000e+00 
-0.0000000e+00 -0.0000000e+00 -0.0000000e+00 
-0.0000000e+00 -7.2759576e-12 -0.0000000e+00 
-0.0000000e+00 7.2759576e-12 -0.0000000e+00 
-0.0000000e+00 -4.7293724e-11 -0.0000000e+00 
-0.0000000e+00 2.7284841e-12 -0.0000000e+00 
-0.0000000e+00 -8.0035534e-11 -0.0000000e+00 
-0.0000000e+00 2.7284841e-11 -0.0000000e+00 
-0.0000000e+00 -5.6388672e-10 -0.0000000e+00 
-0.0000000e+00 4.0017767e-11 -0.0000000e+00 
-0.0000000e+00 -1.9645086e-10 -0.0000000e+00 
-0.0000000e+00 1.3096724e-10 -0.0000000e+00 
-0.0000000e+00 -3.2741809e-11 -0.0000000e+00 
-0.0000000e+00 -4.1836756e-11 -0.0000000e+00 
-0.0000000e+00 -2.9103830e-11 -0.0000000e+00 
-0.0000000e+00 -2.5011104e-12 -0.0000000e+00 
-0.0000000e+00 3.6379788e-12 -0.0000000e+00 
-0.0000000e+00 -5.4569682e-12 -0.0000000e+00 
-0.0000000e+00 -5.4569682e-12 -0.0000000e+00 
-0.0000000e+00 7.2759576e-12 -0.0000000e+00 
VOLUME_ACCELERATION 3 30  float
0.0000000e+00 0.0000000e+00 0.0000000e+00 
0.0000000e+00 0.0000000e+00 0.0000000e+00 
0.0000000e+00 0.0000000e+00 0.0000000e+00 
0.0000000e+00 0.0000000e+00 0.0000000e+00 
0.0000000e+00 0.0000000e+00 0.0000000e+00 
0.0000000e+00 0.0000000e+00 0.0000000e+00 
0.0000000e+00 0.0000000e+00 0.0000000e+00 
0.0000000e+00 0.0000000e+00 0.0000000e+00 
0.0000000e+00 0.0000000e+00 0.0000000e+00 
0.0000000e+00 0.0000000e+00 0.0000000e+00 
0.0000000e+00 0.0000000e+00 0.0000000e+00 
0.0000000e+00 0.0000000e+00 0.0000000e+00 
0.0000000e+00 0.0000000e+00 0.0000000e+00 
0.0000000e+00 0.0000000e+00 0.0000000e+00 
0.0000000e+00 0.0000000e+00 0.0000000e+00 
0.0000000e+00 0.0000000e+00 0.0000000e+00 
0.0000000e+00 0.0000000e+00 0.0000000e+00 
0.0000000e+00 0.0000000e+00 0.0000000e+00 
0.0000000e+00 0.0000000e+00 0.0000000e+00 
0.0000000e+00 0.0000000e+00 0.0000000e+00 
0.0000000e+00 0.0000000e+00 0.0000000e+00 
0.0000000e+00 0.0000000e+00 0.0000000e+00 
0.0000000e+00 0.0000000e+00 0.0000000e+00 
0.0000000e+00 0.0000000e+00 0.0000000e+00 
0.0000000e+00 0.0000000e+00 0.0000000e+00 
0.0000000e+00 0.0000000e+00 0.0000000e+00 
0.0000000e+00 0.0000000e+00 0.0000000e+00 
0.0000000e+00 0.0000000e+00 0.0000000e+00 
0.0000000e+00 0.0000000e+00 0.0000000e+00 
0.0000000e+00 0.0000000e+00 0.0000000e+00 
POINT_LOAD 3 30  float
0.0000000e+00 0.0000000e+00 0.0000000e+00 
7.7726011e+03 0.0000000e+00 2.3250815e+03 
0.0000000e+00 0.0000000e+00 0.0000000e+00 
0.0000000e+00 0.0000000e+00 0.0000000e+00 
-4.0085723e+03 0.0000000e+00 -8.1340239e+03 
-2.4298704e+03 0.0000000e+00 -2.2854700e+03 
0.0000000e+00 0.0000000e+00 0.0000000e+00 
3.7959565e+03 0.0000000e+00 3.5565339e+03 
0.0000000e+00 0.0000000e+00 0.0000000e+00 
4.7044440e+02 0.0000000e+00 -7.2716377e+03 
1.2604205e+02 0.0000000e+00 5.7326323e+03 
0.0000000e+00 0.0000000e+00 0.0000000e+00 
-7.4396763e+03 0.0000000e+00 -5.2917266e+03 
1.9167339e+02 0.0000000e+00 7.1076768e+03 
5.6110151e+03 0.0000000e+00 -8.2143877e+03 
1.4009829e+03 0.0000000e+00 6.8612585e+02 
-1.8435791e+03 0.0000000e+00 7.7453479e+02 
0.0000000e+00 0.0000000e+00 0.0000000e+00 
0.0000000e+00 0.0000000e+00 0.0000000e+00 
-3.5462317e+03 0.0000000e+00 3.3439524e+03 
8.0838708e+02 0.0000000e+00 -7.7445205e+03 
2.7616487e+03 0.0000000e+00 6.5116831e+03 
0.0000000e+00 0.0000000e+00 0.0000000e+00 
-5.6842280e+03 0.0000000e+00 4.5145435e+03 
6.8500679e+03 0.0000000e+00 5.1490015e+03 
-2.7374443e+03 0.0000000e+00 4.5823076e+03 
-3.9516191e+03 0.0000000e+00 7.2136934e+03 
-1.4160425e+03 0.0000000e+00 -9.1524795e+03 
9.6967432e+03 0.0000000e+00 7.5650176e+03 
-8.0633174e+03 0.0000000e+00 7.6134951e+03 
POINT_MOMENT 3 30  float
0.0000000e+00 0.0000000e+00 0.0000000e+00 
0.0000000e+00 0.0000000e+00 0.0000000e+00 
0.0000000e+00 0.0000000e+00 0.0000000e+00 
0.0000000e+00 0.0000000e+00 0.0000000e+00 
0.0000000e+00 0.0000000e+00 0.0000000e+00 
0.0000000e+00 0.0000000e+00 0.0000000e+00 
0.0000000e+00 0.0000000e+00 0.0000000e+00 
0.0000000e+00 0.0000000e+00 0.0000000e+00 
0.0000000e+00 0.0000000e+00 0.0000000e+00 
0.0000000e+00 0.0000000e+00 0.0000000e+00 
0.0000000e+00 0.0000000e+00 0.0000000e+00 
0.0000000e+00 0.0000000e+00 0.0000000e+00 
0.0000000e+00 0.0000000e+00 0.0000000e+00 
0.0000000e+00 0.0000000e+00 0.0000000e+00 
0.0000000e+00 0.0000000e+00 0.0000000e+00 
0.0000000e+00 0.0000000e+00 0.0000000e+00 
0.0000000e+00 0.0000000e+00 0.0000000e+00 
0.0000000e+00 0.0000000e+00 0.0000000e+00 
0.0000000e+00 0.0000000e+00 0.0000000e+00 
0.0000000e+00 0.0000000e+00 0.0000000e+00 
0.0000000e+00 0.0000000e+00 0.0000000e+00 
0.0000000e+00 0.0000000e+00 0.0000000e+00 
0.0000000e+00 0.0000000e+00 0.0000000e+00 
0.0000000e+00 0.0000000e+00 0.0000000e+00 
0.0000000e+00 0.0000000e+00 0.0000000e+00 
0.0000000e+00 0.0000000e+00 0.0000000e+00 
0.0000000e+00 0.0000000e+00 0.0000000e+00 
0.0000000e+00 0.0000000e+00 0.0000000e+00 
0.0000000e+00 0.0000000e+00 0.0000000e+00 
0.0000000e+00 0.0000000e+00 0.0000000e+00 
CELL_DATA 30
FIELD FieldData 9
YOUNG_MODULUS 1 30  float
2.1000000e+11
2.1000000e+11
2.1000000e+11
2.1000000e+11
2.1000000e+11
2.1000000e+11
2.1000000e+11
2.1000000e+11
2.1000000e+11
2.1000000e+11
2.1000000e+11
2.1000000e+11
2.1000000e+11
2.1000000e+11
2.1000000e+11
2.1000000e+11
2.1000000e+11
2.1000000e+11
2.1000000e+11
2.1000000e+11
2.1000000e+11
2.1000000e+11
2.1000000e+11
2.1000000e+11
2.1000000e+11
2.1000000e+11
2.1000000e+11
2.1000000e+11
2.1000000e+11
2.1000000e+11
DENSITY 1 30  float
7.8500000e+03
7.8500000e+03
7.8500000e+03
7.8500000e+03
7.8500000e+03
7.8500000e+03
7.8500000e+03
7.8500000e+03
7.8500000e+03
7.8500000e+03
7.8500000e+03
7.8500000e+03
7.8500000e+03
7.8500000e+03
7.8500000e+03
7.8500000e+03
7.8500000e+03
7.8500000e+03
7.8500000e+03
7.8500000e+03
7.8500000e+03
7.8500000e+03
7.8500000e+03
7.8500000e+03
7.8500000e+03
7.8500000e+03
7.8500000e+03
7.8500000e+03
7.8500000e+03
7.8500000e+03
CROSS_AREA 1 30  float
9.9999998e-03
9.9999998e-03
9.9999998e-03
9.9999998e-03
9.9999998e-03
9.9999998e-03
9.9999998e-03
9.9999998e-03
9.9999998e-03
9.9999998e-03
9.9999998e-03
9.9999998e-03
9.9999998e-03
9.9999998e-03
9.9999998e-03
9.9999998e-03
9.9999998e-03
9.9999998e-03
9.9999998e-03
9.9999998e-03
9.9999998e-03
9.9999998e-03
9.9999998e-03
9.9999998e-03
9.9999998e-03
9.9999998e-03
9.9999998e-03
9.9999998e-03
9.9999998e-03
9.9999998e-03
I22 1 30  float
1.5000001e-04
1.5000001e-04
1.5000001e-04
1.5000001e-04
1.5000001e-04
1.5000001e-04
1.5000001e-04
1.5000001e-04
1.5000001e-04
1.5000001e-04
1.5000001e-04
1.5000001e-04
1.5000001e-04
1.5000001e-04
1.5000001e-04
1.5000001e-04
1.5000001e-04
1.5000001e-04
1.5000001e-04
1.5000001e-04
1.5000001e-04
1.5000001e-04
1.5000001e-04
1.5000001e-04
1.5000001e-04
1.5000001e-04
1.5000001e-04
1.5000001e-04
1.5000001e-04
1.5000001e-04
I33 1 30  float
1.5000001e-04
1.5000001e-04
1.5000001e-04
1.5000001e-04
1.5000001e-04
1.5000001e-04
1.5000001e-04
1.5000001e-04
1.5000001e-04
1.5000001e-04
1.5000001e-04
1.5000001e-04
1.5000001e-04
1.5000001e-04
1.5000001e-04
1.5000001e-04
1.5000001e-04
1.5000001e-04
1.5000001e-04
1.5000001e-04
1.5000001e-04
1.5000001e-04
1.5000001e-04
1.5000001e-04
1.5000001e-04
1.5000001e-04
1.5000001e-04
1.5000001e-04
1.5000001e-04
1.5000001e-04
TORSIONAL_INERTIA 1 30  float
3.0000001e-04
3.0000001e-04
3.0000001e-04
3.0000001e-04
3.0000001e-04
3.0000001e-04
3.0000001e-04
3.0000001e-04
3.0000001e-04
3.0000001e-04
3.0000001e-04
3.0000001e-04
3.0000001e-04
3.0000001e-04
3.0000001e-04
3.0000001e-04
3.0000001e-04
3.0000001e-04
3.0000001e-04
3.0000001e-04
3.0000001e-04
3.0000001e-04
3.0000001e-04
3.0000001e-04
3.0000001e-04
3.0000001e-04
3.0000001e-04
3.0000001e-04
3.0000001e-04
3.0000001e-04
POISSON_RATIO 1 30  float
3.0000001e-01
3.0000001e-01
3.0000001e-01
3.0000001e-01
3.0000001e-01
3.0000001e-01
3.0000001e-01
3.0000001e-01
3.0000001e-01
3.0000001e-01
3.0000001e-01
3.0000001e-01
3.0000001e-01
3.0000001e-01
3.0000001e-01
3.0000001e-01
3.0000001e-01
3.0000001e-01
3.0000001e-01
3.0000001e-01
3.0000001e-01
3.0000001e-01
3.0000001e-01
3.0000001e-01
3.0000001e-01
3.0000001e-01
3.0000001e-01
3.0000001e-01
3.0000001e-01
3.0000001e-01
MOMENT 3 30  float
0.0000000e+00 -1.8470229e+03 0.0000000e+00 
0.0000000e+00 -2.4320286e+03 0.0000000e+00 
0.0000000e+00 9.2006073e+01 0.0000000e+00 
0.0000000e+00 2.6160408e+03 0.0000000e+00 
0.0000000e+00 3.5366465e+03 0.0000000e+00 
0.0000000e+00 9.1947510e+03 0.0000000e+00 
0.0000000e+00 3.7823884e+03 0.0000000e+00 
0.0000000e+00 -1.1159199e+02 0.0000000e+00 
0.0000000e+00 -2.4871897e+03 0.0000000e+00 
0.0000000e+00 -4.6746094e+03 0.0000000e+00 
0.0000000e+00 2.5010308e+03 0.0000000e+00 
0.0000000e+00 4.5272212e+03 0.0000000e+00 
0.0000000e+00 3.6542109e+03 0.0000000e+00 
0.0000000e+00 5.1022759e+03 0.0000000e+00 
0.0000000e+00 9.3551396e+03 0.0000000e+00 
0.0000000e+00 -5.8125830e+03 0.0000000e+00 
0.0000000e+00 -9.4582935e+02 0.0000000e+00 
0.0000000e+00 3.9209243e+03 0.0000000e+00 
0.0000000e+00 7.3691851e+03 0.0000000e+00 
0.0000000e+00 9.7223086e+03 0.0000000e+00 
0.0000000e+00 -4.1511128e+03 0.0000000e+00 
0.0000000e+00 4.9580581e+03 0.0000000e+00 
0.0000000e+00 9.5526846e+03 0.0000000e+00 
0.0000000e+00 4.4837666e+03 0.0000000e+00 
0.0000000e+00 -1.0316461e+04 0.0000000e+00 
0.0000000e+00 -1.3846892e+03 0.0000000e+00 
0.0000000e+00 -1.9299543e+01 0.0000000e+00 
0.0000000e+00 3.2848762e+03 0.0000000e+00 
0.0000000e+00 8.1765132e+03 0.0000000e+00 
0.0000000e+00 -2.1103621e+03 0.0000000e+00 
FORCE 3 30  float
2.7672427e+03 0.0000000e+00 -4.6175576e+03 
4.4216116e+02 0.0000000e+00 3.1550435e+03 
4.4216116e+02 0.0000000e+00 3.1550435e+03 
4.4216116e+02 0.0000000e+00 3.1550435e+03 
8.5761855e+03 0.0000000e+00 -8.5352899e+02 
6.3070698e+03 0.0000000e+00 -6.7654536e+03 
6.3070698e+03 0.0000000e+00 -6.7654536e+03 
2.7505361e+03 0.0000000e+00 -2.9694971e+03 
2.7505361e+03 0.0000000e+00 -2.9694971e+03 
1.0022174e+04 0.0000000e+00 -2.4990527e+03 
1.5814791e+04 0.0000000e+00 6.2525767e+03 
2.1106518e+04 0.0000000e+00 -1.1870999e+03 
1.3998841e+04 0.0000000e+00 -9.9542639e+02 
2.2213229e+04 0.0000000e+00 4.6155889e+03 
2.1527102e+04 0.0000000e+00 6.0165718e+03 
1.1061300e+04 0.0000000e+00 6.0834419e+03 
1.1061300e+04 0.0000000e+00 6.0834419e+03 
1.1061300e+04 0.0000000e+00 6.0834419e+03 
7.7173477e+03 0.0000000e+00 2.5372104e+03 
1.5461868e+04 0.0000000e+00 3.3455974e+03 
-3.4820542e+03 0.0000000e+00 4.5545854e+03 
-3.4820542e+03 0.0000000e+00 4.5545854e+03 
2.2021736e+03 0.0000000e+00 4.0041618e+01 
-4.6478940e+03 0.0000000e+00 -5.1089600e+03 
-1.9104496e+03 0.0000000e+00 -9.6912676e+03 
2.3730107e+03 0.0000000e+00 4.2895415e+03 
6.3246299e+03 0.0000000e+00 -2.9241519e+03 
7.7406724e+03 0.0000000e+00 6.2283276e+03 
-1.9560712e+03 0.0000000e+00 -1.3366903e+03 
6.1072461e+03 0.0000000e+00 -8.9501855e+03 
