# vtk DataFile Version 4.0
vtk output
ASCII
DATASET UNSTRUCTURED_GRID
POINTS 212 float
0.0000000e+00 0.0000000e+00 0.0000000e+00 
0.0000000e+00 0.0000000e+00 2.5000000e-01 
0.0000000e+00 0.0000000e+00 5.0000000e-01 
0.0000000e+00 0.0000000e+00 7.5000000e-01 
0.0000000e+00 0.0000000e+00 1.0000000e+00 
0.0000000e+00 0.0000000e+00 1.2500000e+00 
0.0000000e+00 0.0000000e+00 1.5000000e+00 
0.0000000e+00 0.0000000e+00 1.7500000e+00 
0.0000000e+00 0.0000000e+00 2.0000000e+00 
0.0000000e+00 0.0000000e+00 2.2500000e+00 
0.0000000e+00 0.0000000e+00 2.5000000e+00 
0.0000000e+00 0.0000000e+00 2.7500000e+00 
0.0000000e+00 0.0000000e+00 3.0000000e+00 
0.0000000e+00 0.0000000e+00 3.2500000e+00 
0.0000000e+00 0.0000000e+00 3.5000000e+00 
0.0000000e+00 0.0000000e+00 3.7500000e+00 
0.0000000e+00 0.0000000e+00 4.0000000e+00 
0.0000000e+00 0.0000000e+00 4.2500000e+00 
0.0000000e+00 0.0000000e+00 4.5000000e+00 
0.0000000e+00 0.0000000e+00 4.7500000e+00 
0.0000000e+00 0.0000000e+00 5.0000000e+00 
0.0000000e+00 0.0000000e+00 5.2500000e+00 
0.0000000e+00 0.0000000e+00 5.5000000e+00 
0.0000000e+00 0.0000000e+00 5.7500000e+00 
0.0000000e+00 0.0000000e+00 6.0000000e+00 
0.0000000e+00 0.0000000e+00 6.2500000e+00 
0.0000000e+00 0.0000000e+00 6.5000000e+00 
0.0000000e+00 0.0000000e+00 6.7500000e+00 
0.0000000e+00 0.0000000e+00 7.0000000e+00 
0.0000000e+00 0.0000000e+00 7.2500000e+00 
0.0000000e+00 0.0000000e+00 7.5000000e+00 
0.0000000e+00 0.0000000e+00 7.7500000e+00 
0.0000000e+00 0.0000000e+00 8.0000000e+00 
0.0000000e+00 0.0000000e+00 8.2500000e+00 
0.0000000e+00 0.0000000e+00 8.5000000e+00 
0.0000000e+00 0.0000000e+00 8.7500000e+00 
0.0000000e+00 0.0000000e+00 9.0000000e+00 
0.0000000e+00 0.0000000e+00 9.2500000e+00 
0.0000000e+00 0.0000000e+00 9.5000000e+00 
0.0000000e+00 0.0000000e+00 9.7500000e+00 
0.0000000e+00 0.0000000e+00 1.0000000e+01 
0.0000000e+00 0.0000000e+00 1.0250000e+01 
0.0000000e+00 0.0000000e+00 1.0500000e+01 
0.0000000e+00 0.0000000e+00 1.0750000e+01 
0.0000000e+00 0.0000000e+00 1.1000000e+01 
0.0000000e+00 0.0000000e+00 1.1250000e+01 
0.0000000e+00 0.0000000e+00 1.1500000e+01 
0.0000000e+00 0.0000000e+00 1.1750000e+01 
0.0000000e+00 0.0000000e+00 1.2000000e+01 
0.0000000e+00 0.0000000e+00 1.2250000e+01 
0.0000000e+00 0.0000000e+00 1.2500000e+01 
0.0000000e+00 0.0000000e+00 1.2750000e+01 
0.0000000e+00 0.0000000e+00 1.3000000e+01 
0.0000000e+00 0.0000000e+00 1.3250000e+01 
0.0000000e+00 0.0000000e+00 1.3500000e+01 
0.0000000e+00 0.0000000e+00 1.3750000e+01 
0.0000000e+00 0.0000000e+00 1.4000000e+01 
0.0000000e+00 0.0000000e+00 1.4250000e+01 
0.0000000e+00 0.0000000e+00 1.4500000e+01 
0.0000000e+00 0.0000000e+00 1.4750000e+01 
0.0000000e+00 0.0000000e+00 1.5000000e+01 
0.0000000e+00 0.0000000e+00 1.5250000e+01 
0.0000000e+00 0.0000000e+00 1.5500000e+01 
0.0000000e+00 0.0000000e+00 1.5750000e+01 
0.0000000e+00 0.0000000e+00 1.6000000e+01 
0.0000000e+00 0.0000000e+00 1.6250000e+01 
0.0000000e+00 0.0000000e+00 1.6500000e+01 
0.0000000e+00 0.0000000e+00 1.6750000e+01 
0.0000000e+00 0.0000000e+00 1.7000000e+01 
0.0000000e+00 0.0000000e+00 1.7250000e+01 
0.0000000e+00 0.0000000e+00 1.7500000e+01 
0.0000000e+00 0.0000000e+00 1.7750000e+01 
0.0000000e+00 0.0000000e+00 1.8000000e+01 
5.0000000e-01 0.0000000e+00 3.0000000e+00 
5.0000000e-01 0.0000000e+00 6.0000000e+00 
5.0000000e-01 0.0000000e+00 9.0000000e+00 
5.0000000e-01 0.0000000e+00 1.2000000e+01 
5.0000000e-01 0.0000000e+00 1.5000000e+01 
5.0000000e-01 0.0000000e+00 1.8000000e+01 
1.0000000e+00 0.0000000e+00 3.0000000e+00 
1.0000000e+00 0.0000000e+00 6.0000000e+00 
1.0000000e+00 0.0000000e+00 9.0000000e+00 
1.0000000e+00 0.0000000e+00 1.2000000e+01 
1.0000000e+00 0.0000000e+00 1.5000000e+01 
1.0000000e+00 0.0000000e+00 1.8000000e+01 
1.5000000e+00 0.0000000e+00 3.0000000e+00 
1.5000000e+00 0.0000000e+00 6.0000000e+00 
1.5000000e+00 0.0000000e+00 9.0000000e+00 
1.5000000e+00 0.0000000e+00 1.2000000e+01 
1.5000000e+00 0.0000000e+00 1.5000000e+01 
1.5000000e+00 0.0000000e+00 1.8000000e+01 
2.0000000e+00 0.0000000e+00 3.0000000e+00 
2.0000000e+00 0.0000000e+00 6.0000000e+00 
2.0000000e+00 0.0000000e+00 9.0000000e+00 
2.0000000e+00 0.0000000e+00 1.2000000e+01 
2.0000000e+00 0.0000000e+00 1.5000000e+01 
2.0000000e+00 0.0000000e+00 1.8000000e+01 
2.5000000e+00 0.0000000e+00 3.0000000e+00 
2.5000000e+00 0.0000000e+00 6.0000000e+00 
2.5000000e+00 0.0000000e+00 9.0000000e+00 
2.5000000e+00 0.0000000e+00 1.2000000e+01 
2.5000000e+00 0.0000000e+00 1.5000000e+01 
2.5000000e+00 0.0000000e+00 1.8000000e+01 
3.0000000e+00 0.0000000e+00 3.0000000e+00 
3.0000000e+00 0.0000000e+00 6.0000000e+00 
3.0000000e+00 0.0000000e+00 9.0000000e+00 
3.0000000e+00 0.0000000e+00 1.2000000e+01 
3.0000000e+00 0.0000000e+00 1.5000000e+01 
3.0000000e+00 0.0000000e+00 1.8000000e+01 
3.5000000e+00 0.0000000e+00 3.0000000e+00 
3.5000000e+00 0.0000000e+00 6.0000000e+00 
3.5000000e+00 0.0000000e+00 9.0000000e+00 
3.5000000e+00 0.0000000e+00 1.2000000e+01 
3.5000000e+00 0.0000000e+00 1.5000000e+01 
3.5000000e+00 0.0000000e+00 1.8000000e+01 
4.0000000e+00 0.0000000e+00 3.0000000e+00 
4.0000000e+00 0.0000000e+00 6.0000000e+00 
4.0000000e+00 0.0000000e+00 9.0000000e+00 
4.0000000e+00 0.0000000e+00 1.2000000e+01 
4.0000000e+00 0.0000000e+00 1.5000000e+01 
4.0000000e+00 0.0000000e+00 1.8000000e+01 
4.5000000e+00 0.0000000e+00 3.0000000e+00 
4.5000000e+00 0.0000000e+00 6.0000000e+00 
4.5000000e+00 0.0000000e+00 9.0000000e+00 
4.5000000e+00 0.0000000e+00 1.2000000e+01 
4.5000000e+00 0.0000000e+00 1.5000000e+01 
4.5000000e+00 0.0000000e+00 1.8000000e+01 
5.0000000e+00 0.0000000e+00 3.0000000e+00 
5.0000000e+00 0.0000000e+00 6.0000000e+00 
5.0000000e+00 0.0000000e+00 9.0000000e+00 
5.0000000e+00 0.0000000e+00 1.2000000e+01 
5.0000000e+00 0.0000000e+00 1.5000000e+01 
5.0000000e+00 0.0000000e+00 1.8000000e+01 
5.5000000e+00 0.0000000e+00 3.0000000e+00 
5.5000000e+00 0.0000000e+00 6.0000000e+00 
5.5000000e+00 0.0000000e+00 9.0000000e+00 
5.5000000e+00 0.0000000e+00 1.2000000e+01 
5.5000000e+00 0.0000000e+00 1.5000000e+01 
5.5000000e+00 0.0000000e+00 1.8000000e+01 
6.0000000e+00 0.0000000e+00 0.0000000e+00 
6.0000000e+00 0.0000000e+00 2.5000000e-01 
6.0000000e+00 0.0000000e+00 5.0000000e-01 
6.0000000e+00 0.0000000e+00 7.5000000e-01 
6.0000000e+00 0.0000000e+00 1.0000000e+00 
6.0000000e+00 0.0000000e+00 1.2500000e+00 
6.0000000e+00 0.0000000e+00 1.5000000e+00 
6.0000000e+00 0.0000000e+00 1.7500000e+00 
6.0000000e+00 0.0000000e+00 2.0000000e+00 
6.0000000e+00 0.0000000e+00 2.2500000e+00 
6.0000000e+00 0.0000000e+00 2.5000000e+00 
6.0000000e+00 0.0000000e+00 2.7500000e+00 
6.0000000e+00 0.0000000e+00 3.0000000e+00 
6.0000000e+00 0.0000000e+00 3.2500000e+00 
6.0000000e+00 0.0000000e+00 3.5000000e+00 
6.0000000e+00 0.0000000e+00 3.7500000e+00 
6.0000000e+00 0.0000000e+00 4.0000000e+00 
6.0000000e+00 0.0000000e+00 4.2500000e+00 
6.0000000e+00 0.0000000e+00 4.5000000e+00 
6.0000000e+00 0.0000000e+00 4.7500000e+00 
6.0000000e+00 0.0000000e+00 5.0000000e+00 
6.0000000e+00 0.0000000e+00 5.2500000e+00 
6.0000000e+00 0.0000000e+00 5.5000000e+00 
6.0000000e+00 0.0000000e+00 5.7500000e+00 
6.0000000e+00 0.0000000e+00 6.0000000e+00 
6.0000000e+00 0.0000000e+00 6.2500000e+00 
6.0000000e+00 0.0000000e+00 6.5000000e+00 
6.0000000e+00 0.0000000e+00 6.7500000e+00 
6.0000000e+00 0.0000000e+00 7.0000000e+00 
6.0000000e+00 0.0000000e+00 7.2500000e+00 
6.0000000e+00 0.0000000e+00 7.5000000e+00 
6.0000000e+00 0.0000000e+00 7.7500000e+00 
6.0000000e+00 0.0000000e+00 8.0000000e+00 
6.0000000e+00 0.0000000e+00 8.2500000e+00 
6.0000000e+00 0.0000000e+00 8.5000000e+00 
6.0000000e+00 0.0000000e+00 8.7500000e+00 
6.0000000e+00 0.0000000e+00 9.0000000e+00 
6.0000000e+00 0.0000000e+00 9.2500000e+00 
6.0000000e+00 0.0000000e+00 9.5000000e+00 
6.0000000e+00 0.0000000e+00 9.7500000e+00 
6.0000000e+00 0.0000000e+00 1.0000000e+01 
6.0000000e+00 0.0000000e+00 1.0250000e+01 
6.0000000e+00 0.0000000e+00 1.0500000e+01 
6.0000000e+00 0.0000000e+00 1.0750000e+01 
6.0000000e+00 0.0000000e+00 1.1000000e+01 
6.0000000e+00 0.0000000e+00 1.1250000e+01 
6.0000000e+00 0.0000000e+00 1.1500000e+01 
6.0000000e+00 0.0000000e+00 1.1750000e+01 
6.0000000e+00 0.0000000e+00 1.2000000e+01 
6.0000000e+00 0.0000000e+00 1.2250000e+01 
6.0000000e+00 0.0000000e+00 1.2500000e+01 
6.0000000e+00 0.0000000e+00 1.2750000e+01 
6.0000000e+00 0.0000000e+00 1.3000000e+01 
6.0000000e+00 0.0000000e+00 1.3250000e+01 
6.0000000e+00 0.0000000e+00 1.3500000e+01 
6.0000000e+00 0.0000000e+00 1.3750000e+01 
6.0000000e+00 0.0000000e+00 1.4000000e+01 
6.0000000e+00 0.0000000e+00 1.4250000e+01 
6.0000000e+00 0.0000000e+00 1.4500000e+01 
6.0000000e+00 0.0000000e+00 1.4750000e+01 
6.0000000e+00 0.0000000e+00 1.5000000e+01 
6.0000000e+00 0.0000000e+00 1.5250000e+01 
6.0000000e+00 0.0000000e+00 1.5500000e+01 
6.0000000e+00 0.0000000e+00 1.5750000e+01 
6.0000000e+00 0.0000000e+00 1.6000000e+01 
6.0000000e+00 0.0000000e+00 1.6250000e+01 
6.0000000e+00 0.0000000e+00 1.6500000e+01 
6.0000000e+00 0.0000000e+00 1.6750000e+01 
6.0000000e+00 0.0000000e+00 1.7000000e+01 
6.0000000e+00 0.0000000e+00 1.7250000e+01 
6.0000000e+00 0.0000000e+00 1.7500000e+01 
6.0000000e+00 0.0000000e+00 1.7750000e+01 
6.0000000e+00 0.0000000e+00 1.8000000e+01 

CELLS 216 648
2 0 1
2 1 2
2 2 3
2 3 4
2 4 5
2 5 6
2 6 7
2 7 8
2 8 9
2 9 10
2 10 11
2 11 12
2 12 13
2 13 14
2 14 15
2 15 16
2 16 17
2 17 18
2 18 19
2 19 20
2 20 21
2 21 22
2 22 23
2 23 24
2 24 25
2 25 26
2 26 27
2 27 28
2 28 29
2 29 30
2 30 31
2 31 32
2 32 33
2 33 34
2 34 35
2 35 36
2 36 37
2 37 38
2 38 39
2 39 40
2 40 41
2 41 42
2 42 43
2 43 44
2 44 45
2 45 46
2 46 47
2 47 48
2 48 49
2 49 50
2 50 51
2 51 52
2 52 53
2 53 54
2 54 55
2 55 56
2 56 57
2 57 58
2 58 59
2 59 60
2 60 61
2 61 62
2 62 63
2 63 64
2 64 65
2 65 66
2 66 67
2 67 68
2 68 69
2 69 70
2 70 71
2 71 72
2 139 140
2 140 141
2 141 142
2 142 143
2 143 144
2 144 145
2 145 146
2 146 147
2 147 148
2 148 149
2 149 150
2 150 151
2 151 152
2 152 153
2 153 154
2 154 155
2 155 156
2 156 157
2 157 158
2 158 159
2 159 160
2 160 161
2 161 162
2 162 163
2 163 164
2 164 165
2 165 166
2 166 167
2 167 168
2 168 169
2 169 170
2 170 171
2 171 172
2 172 173
2 173 174
2 174 175
2 175 176
2 176 177
2 177 178
2 178 179
2 179 180
2 180 181
2 181 182
2 182 183
2 183 184
2 184 185
2 185 186
2 186 187
2 187 188
2 188 189
2 189 190
2 190 191
2 191 192
2 192 193
2 193 194
2 194 195
2 195 196
2 196 197
2 197 198
2 198 199
2 199 200
2 200 201
2 201 202
2 202 203
2 203 204
2 204 205
2 205 206
2 206 207
2 207 208
2 208 209
2 209 210
2 210 211
2 12 73
2 73 79
2 79 85
2 85 91
2 91 97
2 97 103
2 103 109
2 109 115
2 115 121
2 121 127
2 127 133
2 133 151
2 24 74
2 74 80
2 80 86
2 86 92
2 92 98
2 98 104
2 104 110
2 110 116
2 116 122
2 122 128
2 128 134
2 134 163
2 36 75
2 75 81
2 81 87
2 87 93
2 93 99
2 99 105
2 105 111
2 111 117
2 117 123
2 123 129
2 129 135
2 135 175
2 48 76
2 76 82
2 82 88
2 88 94
2 94 100
2 100 106
2 106 112
2 112 118
2 118 124
2 124 130
2 130 136
2 136 187
2 60 77
2 77 83
2 83 89
2 89 95
2 95 101
2 101 107
2 107 113
2 113 119
2 119 125
2 125 131
2 131 137
2 137 199
2 72 78
2 78 84
2 84 90
2 90 96
2 96 102
2 102 108
2 108 114
2 114 120
2 120 126
2 126 132
2 132 138
2 138 211

CELL_TYPES 216
3
3
3
3
3
3
3
3
3
3
3
3
3
3
3
3
3
3
3
3
3
3
3
3
3
3
3
3
3
3
3
3
3
3
3
3
3
3
3
3
3
3
3
3
3
3
3
3
3
3
3
3
3
3
3
3
3
3
3
3
3
3
3
3
3
3
3
3
3
3
3
3
3
3
3
3
3
3
3
3
3
3
3
3
3
3
3
3
3
3
3
3
3
3
3
3
3
3
3
3
3
3
3
3
3
3
3
3
3
3
3
3
3
3
3
3
3
3
3
3
3
3
3
3
3
3
3
3
3
3
3
3
3
3
3
3
3
3
3
3
3
3
3
3
3
3
3
3
3
3
3
3
3
3
3
3
3
3
3
3
3
3
3
3
3
3
3
3
3
3
3
3
3
3
3
3
3
3
3
3
3
3
3
3
3
3
3
3
3
3
3
3
3
3
3
3
3
3
3
3
3
3
3
3
3
3
3
3
3
3
3
3
3
3
3
3
POINT_DATA 212
FIELD FieldData 3
ADJOINT_DISPLACEMENT 3 212  float
0.0000000e+00 0.0000000e+00 0.0000000e+00 
-7.4454467e-05 0.0000000e+00 -4.7336903e-17 
-1.4768157e-04 0.0000000e+00 -9.4673806e-17 
-2.1845393e-04 0.0000000e+00 -1.4201071e-16 
-2.8554420e-04 0.0000000e+00 -1.8934761e-16 
-3.4772497e-04 0.0000000e+00 -2.3668451e-16 
-4.0376894e-04 0.0000000e+00 -2.8402142e-16 
-4.5244867e-04 0.0000000e+00 -3.3135834e-16 
-4.9253687e-04 0.0000000e+00 -3.7869522e-16 
-5.2280608e-04 0.0000000e+00 -4.2603214e-16 
-5.4202904e-04 0.0000000e+00 -4.7336902e-16 
-5.4897828e-04 0.0000000e+00 -5.2070593e-16 
-5.4242648e-04 0.0000000e+00 -5.6804285e-16 
-5.2603526e-04 0.0000000e+00 2.0555997e-07 
-5.0959800e-04 0.0000000e+00 4.1111994e-07 
-5.0108513e-04 0.0000000e+00 6.1667993e-07 
-5.0846703e-04 0.0000000e+00 8.2223988e-07 
-5.3971400e-04 0.0000000e+00 1.0277998e-06 
-6.0279644e-04 0.0000000e+00 1.2333599e-06 
-7.0568477e-04 0.0000000e+00 1.4389199e-06 
-8.5634936e-04 0.0000000e+00 1.6444798e-06 
-1.0627606e-03 0.0000000e+00 1.8500398e-06 
-1.3328887e-03 0.0000000e+00 2.0555997e-06 
-1.6747043e-03 0.0000000e+00 2.2611598e-06 
-2.0961775e-03 0.0000000e+00 2.4667197e-06 
-2.6325968e-03 0.0000000e+00 3.4954162e-06 
-3.2882551e-03 0.0000000e+00 4.5241127e-06 
-4.0246304e-03 0.0000000e+00 5.5528089e-06 
-4.8032003e-03 0.0000000e+00 6.5815057e-06 
-5.5854423e-03 0.0000000e+00 7.6102019e-06 
-6.3328347e-03 0.0000000e+00 8.6388982e-06 
-7.0068552e-03 0.0000000e+00 9.6675949e-06 
-7.5689815e-03 0.0000000e+00 1.0696292e-05 
-7.9806913e-03 0.0000000e+00 1.1724988e-05 
-8.2034627e-03 0.0000000e+00 1.2753684e-05 
-8.1987726e-03 0.0000000e+00 1.3782381e-05 
-7.9280995e-03 0.0000000e+00 1.4811078e-05 
-7.4474495e-03 0.0000000e+00 1.9753486e-05 
-6.9610602e-03 0.0000000e+00 2.4695895e-05 
-6.6527580e-03 0.0000000e+00 2.9638306e-05 
-6.7063682e-03 0.0000000e+00 3.4580713e-05 
-7.3057166e-03 0.0000000e+00 3.9523125e-05 
-8.6346287e-03 0.0000000e+00 4.4465534e-05 
-1.0876930e-02 0.0000000e+00 4.9407943e-05 
-1.4216446e-02 0.0000000e+00 5.4350352e-05 
-1.8837003e-02 0.0000000e+00 5.9292761e-05 
-2.4922427e-02 0.0000000e+00 6.4235173e-05 
-3.2656543e-02 0.0000000e+00 6.9177579e-05 
-4.2223174e-02 0.0000000e+00 7.4119991e-05 
-5.4432556e-02 0.0000000e+00 9.7824894e-05 
-6.9408275e-02 0.0000000e+00 1.2152980e-04 
-8.6304195e-02 0.0000000e+00 1.4523471e-04 
-1.0427419e-01 0.0000000e+00 1.6893962e-04 
-1.2247211e-01 0.0000000e+00 1.9264453e-04 
-1.4005184e-01 0.0000000e+00 2.1634944e-04 
-1.5616724e-01 0.0000000e+00 2.4005435e-04 
-1.6997217e-01 0.0000000e+00 2.6375926e-04 
-1.8062049e-01 0.0000000e+00 2.8746415e-04 
-1.8726608e-01 0.0000000e+00 3.1116907e-04 
-1.8906280e-01 0.0000000e+00 3.3487397e-04 
-1.8516451e-01 0.0000000e+00 3.5857889e-04 
-1.7640746e-01 0.0000000e+00 4.7226439e-04 
-1.6464712e-01 0.0000000e+00 5.8594992e-04 
-1.5056625e-01 0.0000000e+00 6.9963548e-04 
-1.3484764e-01 0.0000000e+00 8.1332098e-04 
-1.1817405e-01 0.0000000e+00 9.2700648e-04 
-1.0122824e-01 0.0000000e+00 1.0406920e-03 
-8.4692992e-02 0.0000000e+00 1.1543776e-03 
-6.9251075e-02 0.0000000e+00 1.2680631e-03 
-5.5585243e-02 0.0000000e+00 1.3817486e-03 
-4.4378277e-02 0.0000000e+00 1.4954341e-03 
-3.6312941e-02 0.0000000e+00 1.6091196e-03 
-3.2072000e-02 0.0000000e+00 1.7228052e-03 
-5.4627785e-04 0.0000000e+00 -3.9537816e-05 
-2.0767099e-03 0.0000000e+00 7.9536025e-04 
-8.0212029e-03 0.0000000e+00 -1.0231569e-03 
-4.1791901e-02 0.0000000e+00 1.8089686e-02 
-1.8580471e-01 0.0000000e+00 -1.8834209e-02 
-3.1786107e-02 0.0000000e+00 5.8108326e-03 
-5.5012916e-04 0.0000000e+00 -9.8069097e-05 
-2.0572420e-03 0.0000000e+00 1.3391738e-03 
-8.1143063e-03 0.0000000e+00 -2.3713417e-03 
-4.1360628e-02 0.0000000e+00 3.0437671e-02 
-1.8644491e-01 0.0000000e+00 -4.6009090e-02 
-3.1500213e-02 0.0000000e+00 2.3583492e-02 
-5.5398053e-04 0.0000000e+00 -1.6773918e-04 
-2.0377743e-03 0.0000000e+00 1.6653601e-03 
-8.2074087e-03 0.0000000e+00 -3.8801963e-03 
-4.0929358e-02 0.0000000e+00 3.7835006e-02 
-1.8708511e-01 0.0000000e+00 -7.7727810e-02 
-3.1214319e-02 0.0000000e+00 5.0696746e-02 
-5.5783190e-04 0.0000000e+00 -2.4069345e-04 
-2.0183066e-03 0.0000000e+00 1.8053721e-03 
-8.3005121e-03 0.0000000e+00 -5.4001738e-03 
-4.0498085e-02 0.0000000e+00 4.0998627e-02 
-1.8772529e-01 0.0000000e+00 -1.1055213e-01 
-3.0928425e-02 0.0000000e+00 8.2806565e-02 
-5.6168321e-04 0.0000000e+00 -3.0907724e-04 
-1.9988387e-03 0.0000000e+00 1.7906625e-03 
-8.3936155e-03 0.0000000e+00 -6.7817275e-03 
-4.0066812e-02 0.0000000e+00 4.0645469e-02 
-1.8836549e-01 0.0000000e+00 -1.4104381e-01 
-3.0642530e-02 0.0000000e+00 1.1556891e-01 
-5.6553457e-04 0.0000000e+00 -3.6503590e-04 
-1.9793711e-03 0.0000000e+00 1.6526844e-03 
-8.4867189e-03 0.0000000e+00 -7.8753112e-03 
-3.9635539e-02 0.0000000e+00 3.7492462e-02 
-1.8900569e-01 0.0000000e+00 -1.6576459e-01 
-3.0356636e-02 0.0000000e+00 1.4463975e-01 
-5.6938594e-04 0.0000000e+00 -4.0071478e-04 
-1.9599034e-03 0.0000000e+00 1.4228905e-03 
-8.5798223e-03 0.0000000e+00 -8.5313767e-03 
-3.9204266e-02 0.0000000e+00 3.2256540e-02 
-1.8964587e-01 0.0000000e+00 -1.8127622e-01 
-3.0070743e-02 0.0000000e+00 1.6567504e-01 
-5.7323731e-04 0.0000000e+00 -4.0825925e-04 
-1.9404355e-03 0.0000000e+00 1.1327335e-03 
-8.6729256e-03 0.0000000e+00 -8.6003793e-03 
-3.8772993e-02 0.0000000e+00 2.5654636e-02 
-1.9028607e-01 0.0000000e+00 -1.8414046e-01 
-2.9784849e-02 0.0000000e+00 1.7433077e-01 
-5.7708862e-04 0.0000000e+00 -3.7981465e-04 
-1.9209678e-03 0.0000000e+00 8.1366650e-04 
-8.7660290e-03 0.0000000e+00 -7.9327701e-03 
-3.8341720e-02 0.0000000e+00 1.8403687e-02 
-1.9092627e-01 0.0000000e+00 -1.7091906e-01 
-2.9498953e-02 0.0000000e+00 1.6626288e-01 
-5.8093999e-04 0.0000000e+00 -3.0752635e-04 
-1.9015000e-03 0.0000000e+00 4.9714220e-04 
-8.8591315e-03 0.0000000e+00 -6.3790041e-03 
-3.7910447e-02 0.0000000e+00 1.1220621e-02 
-1.9156645e-01 0.0000000e+00 -1.3817377e-01 
-2.9213060e-02 0.0000000e+00 1.3712734e-01 
-5.8479136e-04 0.0000000e+00 -1.8353968e-04 
-1.8820323e-03 0.0000000e+00 2.1461352e-04 
-8.9522349e-03 0.0000000e+00 -3.7895332e-03 
-3.7479173e-02 0.0000000e+00 4.8223743e-03 
-1.9220665e-01 0.0000000e+00 -8.2466371e-02 
-2.8927166e-02 0.0000000e+00 8.2580127e-02 
0.0000000e+00 0.0000000e+00 0.0000000e+00 
-1.9801299e-05 0.0000000e+00 5.4249800e-17 
-4.0829964e-05 0.0000000e+00 1.0849959e-16 
-6.4313368e-05 0.0000000e+00 1.6274957e-16 
-9.1478869e-05 0.0000000e+00 2.1699907e-16 
-1.2355384e-04 0.0000000e+00 2.7124859e-16 
-1.6176565e-04 0.0000000e+00 3.2549843e-16 
-2.0734167e-04 0.0000000e+00 3.7974838e-16 
-2.6150927e-04 0.0000000e+00 4.3399806e-16 
-3.2549578e-04 0.0000000e+00 4.8824721e-16 
-4.0052863e-04 0.0000000e+00 5.4249533e-16 
-4.8783515e-04 0.0000000e+00 5.9674318e-16 
-5.8864267e-04 0.0000000e+00 6.5099146e-16 
-7.1107165e-04 0.0000000e+00 -2.0555997e-07 
-8.5711054e-04 0.0000000e+00 -4.1111994e-07 
-1.0187890e-03 0.0000000e+00 -6.1667993e-07 
-1.1881368e-03 0.0000000e+00 -8.2223988e-07 
-1.3571832e-03 0.0000000e+00 -1.0277998e-06 
-1.5179582e-03 0.0000000e+00 -1.2333599e-06 
-1.6624912e-03 0.0000000e+00 -1.4389199e-06 
-1.7828121e-03 0.0000000e+00 -1.6444798e-06 
-1.8709501e-03 0.0000000e+00 -1.8500398e-06 
-1.9189351e-03 0.0000000e+00 -2.0555997e-06 
-1.9187967e-03 0.0000000e+00 -2.2611598e-06 
-1.8625646e-03 0.0000000e+00 -2.4667197e-06 
-1.7621296e-03 0.0000000e+00 -3.4954162e-06 
-1.6603781e-03 0.0000000e+00 -4.5241127e-06 
-1.5958322e-03 0.0000000e+00 -5.5528089e-06 
-1.6070141e-03 0.0000000e+00 -6.5815057e-06 
-1.7324460e-03 0.0000000e+00 -7.6102019e-06 
-2.0106502e-03 0.0000000e+00 -8.6388982e-06 
-2.4801490e-03 0.0000000e+00 -9.6675949e-06 
-3.1794645e-03 0.0000000e+00 -1.0696292e-05 
-4.1471189e-03 0.0000000e+00 -1.1724988e-05 
-5.4216348e-03 0.0000000e+00 -1.2753684e-05 
-7.0415335e-03 0.0000000e+00 -1.3782381e-05 
-9.0453383e-03 0.0000000e+00 -1.4811078e-05 
-1.1601362e-02 0.0000000e+00 -1.9753486e-05 
-1.4729689e-02 0.0000000e+00 -2.4695895e-05 
-1.8246491e-02 0.0000000e+00 -2.9638306e-05 
-2.1967944e-02 0.0000000e+00 -3.4580713e-05 
-2.5710221e-02 0.0000000e+00 -3.9523125e-05 
-2.9289497e-02 0.0000000e+00 -4.4465534e-05 
-3.2521948e-02 0.0000000e+00 -4.9407943e-05 
-3.5223745e-02 0.0000000e+00 -5.4350352e-05 
-3.7211064e-02 0.0000000e+00 -5.9292761e-05 
-3.8300082e-02 0.0000000e+00 -6.4235173e-05 
-3.8306970e-02 0.0000000e+00 -6.9177579e-05 
-3.7047900e-02 0.0000000e+00 -7.4119991e-05 
-3.4788050e-02 0.0000000e+00 -9.7824894e-05 
-3.2479223e-02 0.0000000e+00 -1.2152980e-04 
-3.0967554e-02 0.0000000e+00 -1.4523471e-04 
-3.1099180e-02 0.0000000e+00 -1.6893962e-04 
-3.3720233e-02 0.0000000e+00 -1.9264453e-04 
-3.9676849e-02 0.0000000e+00 -2.1634944e-04 
-4.9815159e-02 0.0000000e+00 -2.4005435e-04 
-6.4981297e-02 0.0000000e+00 -2.6375926e-04 
-8.6021401e-02 0.0000000e+00 -2.8746415e-04 
-1.1378161e-01 0.0000000e+00 -3.1116907e-04 
-1.4910804e-01 0.0000000e+00 -3.3487397e-04 
-1.9284685e-01 0.0000000e+00 -3.5857889e-04 
-2.4931917e-01 0.0000000e+00 -4.7226439e-04 
-3.2182688e-01 0.0000000e+00 -5.8594992e-04 
-4.0968719e-01 0.0000000e+00 -6.9963548e-04 
-5.1221734e-01 0.0000000e+00 -8.1332098e-04 
-6.2873465e-01 0.0000000e+00 -9.2700648e-04 
-5.0855619e-01 0.0000000e+00 -1.0406920e-03 
-4.0099934e-01 0.0000000e+00 -1.1543776e-03 
-3.0538124e-01 0.0000000e+00 -1.2680631e-03 
-2.2101915e-01 0.0000000e+00 -1.3817486e-03 
-1.4723030e-01 0.0000000e+00 -1.4954341e-03 
-8.3331935e-02 0.0000000e+00 -1.6091196e-03 
-2.8641272e-02 0.0000000e+00 -1.7228052e-03 
ADJOINT_ROTATION 3 212  float
0.0000000e+00 -2.9863612e-04 0.0000000e+00 
0.0000000e+00 -2.9618136e-04 0.0000000e+00 
0.0000000e+00 -2.8881716e-04 0.0000000e+00 
0.0000000e+00 -2.7654349e-04 0.0000000e+00 
0.0000000e+00 -2.5936036e-04 0.0000000e+00 
0.0000000e+00 -2.3726773e-04 0.0000000e+00 
0.0000000e+00 -2.1026564e-04 0.0000000e+00 
0.0000000e+00 -1.7835409e-04 0.0000000e+00 
0.0000000e+00 -1.4153306e-04 0.0000000e+00 
0.0000000e+00 -9.9802572e-05 0.0000000e+00 
0.0000000e+00 -5.3162603e-05 0.0000000e+00 
0.0000000e+00 -1.6131687e-06 0.0000000e+00 
0.0000000e+00 5.4845736e-05 0.0000000e+00 
0.0000000e+00 7.0970520e-05 0.0000000e+00 
0.0000000e+00 5.5213804e-05 0.0000000e+00 
0.0000000e+00 7.5755911e-06 0.0000000e+00 
0.0000000e+00 -7.1944116e-05 0.0000000e+00 
0.0000000e+00 -1.8334533e-04 0.0000000e+00 
0.0000000e+00 -3.2662804e-04 0.0000000e+00 
0.0000000e+00 -5.0179224e-04 0.0000000e+00 
0.0000000e+00 -7.0883794e-04 0.0000000e+00 
0.0000000e+00 -9.4776513e-04 0.0000000e+00 
0.0000000e+00 -1.2185738e-03 0.0000000e+00 
0.0000000e+00 -1.5212640e-03 0.0000000e+00 
0.0000000e+00 -1.8558357e-03 0.0000000e+00 
0.0000000e+00 -2.4098365e-03 0.0000000e+00 
0.0000000e+00 -2.8097485e-03 0.0000000e+00 
0.0000000e+00 -3.0555716e-03 0.0000000e+00 
0.0000000e+00 -3.1473057e-03 0.0000000e+00 
0.0000000e+00 -3.0849511e-03 0.0000000e+00 
0.0000000e+00 -2.8685073e-03 0.0000000e+00 
0.0000000e+00 -2.4979748e-03 0.0000000e+00 
0.0000000e+00 -1.9733533e-03 0.0000000e+00 
0.0000000e+00 -1.2946429e-03 0.0000000e+00 
0.0000000e+00 -4.6184368e-04 0.0000000e+00 
0.0000000e+00 5.2504451e-04 0.0000000e+00 
0.0000000e+00 1.6660215e-03 0.0000000e+00 
0.0000000e+00 2.0566285e-03 0.0000000e+00 
0.0000000e+00 1.7119326e-03 0.0000000e+00 
0.0000000e+00 6.3193426e-04 0.0000000e+00 
0.0000000e+00 -1.1833666e-03 0.0000000e+00 
0.0000000e+00 -3.7339702e-03 0.0000000e+00 
0.0000000e+00 -7.0198765e-03 0.0000000e+00 
0.0000000e+00 -1.1041085e-02 0.0000000e+00 
0.0000000e+00 -1.5797596e-02 0.0000000e+00 
0.0000000e+00 -2.1289410e-02 0.0000000e+00 
0.0000000e+00 -2.7516527e-02 0.0000000e+00 
0.0000000e+00 -3.4478948e-02 0.0000000e+00 
0.0000000e+00 -4.2176668e-02 0.0000000e+00 
0.0000000e+00 -5.4934286e-02 0.0000000e+00 
0.0000000e+00 -6.4307369e-02 0.0000000e+00 
0.0000000e+00 -7.0295915e-02 0.0000000e+00 
0.0000000e+00 -7.2899923e-02 0.0000000e+00 
0.0000000e+00 -7.2119400e-02 0.0000000e+00 
0.0000000e+00 -6.7954332e-02 0.0000000e+00 
0.0000000e+00 -6.0404733e-02 0.0000000e+00 
0.0000000e+00 -4.9470596e-02 0.0000000e+00 
0.0000000e+00 -3.5151921e-02 0.0000000e+00 
0.0000000e+00 -1.7448712e-02 0.0000000e+00 
0.0000000e+00 3.6390349e-03 0.0000000e+00 
0.0000000e+00 2.8111318e-02 0.0000000e+00 
0.0000000e+00 4.1489996e-02 0.0000000e+00 
0.0000000e+00 5.2137598e-02 0.0000000e+00 
0.0000000e+00 6.0054127e-02 0.0000000e+00 
0.0000000e+00 6.5239586e-02 0.0000000e+00 
0.0000000e+00 6.7693971e-02 0.0000000e+00 
0.0000000e+00 6.7417279e-02 0.0000000e+00 
0.0000000e+00 6.4409517e-02 0.0000000e+00 
0.0000000e+00 5.8670681e-02 0.0000000e+00 
0.0000000e+00 5.0200768e-02 0.0000000e+00 
0.0000000e+00 3.8999785e-02 0.0000000e+00 
0.0000000e+00 2.5067730e-02 0.0000000e+00 
0.0000000e+00 8.4046004e-03 0.0000000e+00 
0.0000000e+00 1.0068731e-04 0.0000000e+00 
0.0000000e+00 -1.3262228e-03 0.0000000e+00 
0.0000000e+00 2.4360016e-03 0.0000000e+00 
0.0000000e+00 -3.0124571e-02 0.0000000e+00 
0.0000000e+00 4.7513749e-02 0.0000000e+00 
0.0000000e+00 -2.3308698e-02 0.0000000e+00 
0.0000000e+00 1.3081959e-04 0.0000000e+00 
0.0000000e+00 -8.5951557e-04 0.0000000e+00 
0.0000000e+00 2.9068880e-03 0.0000000e+00 
0.0000000e+00 -1.9506343e-02 0.0000000e+00 
0.0000000e+00 6.0039684e-02 0.0000000e+00 
0.0000000e+00 -4.6333928e-02 0.0000000e+00 
0.0000000e+00 1.4524258e-04 0.0000000e+00 
0.0000000e+00 -4.5571401e-04 0.0000000e+00 
0.0000000e+00 3.0786810e-03 0.0000000e+00 
0.0000000e+00 -1.0321980e-02 0.0000000e+00 
0.0000000e+00 6.5689132e-02 0.0000000e+00 
0.0000000e+00 -6.0671087e-02 0.0000000e+00 
0.0000000e+00 1.4395626e-04 0.0000000e+00 
0.0000000e+00 -1.1481818e-04 0.0000000e+00 
0.0000000e+00 2.9513803e-03 0.0000000e+00 
0.0000000e+00 -2.5714845e-03 0.0000000e+00 
0.0000000e+00 6.4462073e-02 0.0000000e+00 
0.0000000e+00 -6.6320173e-02 0.0000000e+00 
0.0000000e+00 1.2696066e-04 0.0000000e+00 
0.0000000e+00 1.6317196e-04 0.0000000e+00 
0.0000000e+00 2.5249862e-03 0.0000000e+00 
0.0000000e+00 3.7451445e-03 0.0000000e+00 
0.0000000e+00 5.6358531e-02 0.0000000e+00 
0.0000000e+00 -6.3281193e-02 0.0000000e+00 
0.0000000e+00 9.4255767e-05 0.0000000e+00 
0.0000000e+00 3.7825640e-04 0.0000000e+00 
0.0000000e+00 1.7994985e-03 0.0000000e+00 
0.0000000e+00 8.6279064e-03 0.0000000e+00 
0.0000000e+00 4.1378491e-02 0.0000000e+00 
0.0000000e+00 -5.1554147e-02 0.0000000e+00 
0.0000000e+00 4.5841574e-05 0.0000000e+00 
0.0000000e+00 5.3043518e-04 0.0000000e+00 
0.0000000e+00 7.7491708e-04 0.0000000e+00 
0.0000000e+00 1.2076803e-02 0.0000000e+00 
0.0000000e+00 1.9521957e-02 0.0000000e+00 
0.0000000e+00 -3.1139029e-02 0.0000000e+00 
0.0000000e+00 -1.8281913e-05 0.0000000e+00 
0.0000000e+00 6.1970821e-04 0.0000000e+00 
0.0000000e+00 -5.4875785e-04 0.0000000e+00 
0.0000000e+00 1.4091832e-02 0.0000000e+00 
0.0000000e+00 -9.2110708e-03 0.0000000e+00 
0.0000000e+00 -2.0358423e-03 0.0000000e+00 
0.0000000e+00 -9.8114695e-05 0.0000000e+00 
0.0000000e+00 6.4607558e-04 0.0000000e+00 
0.0000000e+00 -2.1715262e-03 0.0000000e+00 
0.0000000e+00 1.4672994e-02 0.0000000e+00 
0.0000000e+00 -4.4820592e-02 0.0000000e+00 
0.0000000e+00 3.5755415e-02 0.0000000e+00 
0.0000000e+00 -1.9365677e-04 0.0000000e+00 
0.0000000e+00 6.0953724e-04 0.0000000e+00 
0.0000000e+00 -4.0933886e-03 0.0000000e+00 
0.0000000e+00 1.3820290e-02 0.0000000e+00 
0.0000000e+00 -8.7306611e-02 0.0000000e+00 
0.0000000e+00 8.2234740e-02 0.0000000e+00 
0.0000000e+00 -3.0490814e-04 0.0000000e+00 
0.0000000e+00 5.1009323e-04 0.0000000e+00 
0.0000000e+00 -6.3143438e-03 0.0000000e+00 
0.0000000e+00 1.1533719e-02 0.0000000e+00 
0.0000000e+00 -1.3666911e-01 0.0000000e+00 
0.0000000e+00 1.3740213e-01 0.0000000e+00 
0.0000000e+00 -7.8386947e-05 0.0000000e+00 
0.0000000e+00 -8.0841681e-05 0.0000000e+00 
0.0000000e+00 -8.8205888e-05 0.0000000e+00 
0.0000000e+00 -1.0047956e-04 0.0000000e+00 
0.0000000e+00 -1.1766271e-04 0.0000000e+00 
0.0000000e+00 -1.3975533e-04 0.0000000e+00 
0.0000000e+00 -1.6675741e-04 0.0000000e+00 
0.0000000e+00 -1.9866896e-04 0.0000000e+00 
0.0000000e+00 -2.3548999e-04 0.0000000e+00 
0.0000000e+00 -2.7722048e-04 0.0000000e+00 
0.0000000e+00 -3.2386044e-04 0.0000000e+00 
0.0000000e+00 -3.7540990e-04 0.0000000e+00 
0.0000000e+00 -4.3186880e-04 0.0000000e+00 
0.0000000e+00 -5.4224936e-04 0.0000000e+00 
0.0000000e+00 -6.2074838e-04 0.0000000e+00 
0.0000000e+00 -6.6736597e-04 0.0000000e+00 
0.0000000e+00 -6.8210199e-04 0.0000000e+00 
0.0000000e+00 -6.6495658e-04 0.0000000e+00 
0.0000000e+00 -6.1592960e-04 0.0000000e+00 
0.0000000e+00 -5.3502119e-04 0.0000000e+00 
0.0000000e+00 -4.2223124e-04 0.0000000e+00 
0.0000000e+00 -2.7755980e-04 0.0000000e+00 
0.0000000e+00 -1.0100687e-04 0.0000000e+00 
0.0000000e+00 1.0742756e-04 0.0000000e+00 
0.0000000e+00 3.4774348e-04 0.0000000e+00 
0.0000000e+00 4.3005441e-04 0.0000000e+00 
0.0000000e+00 3.5827645e-04 0.0000000e+00 
0.0000000e+00 1.3240956e-04 0.0000000e+00 
0.0000000e+00 -2.4754621e-04 0.0000000e+00 
0.0000000e+00 -7.8159088e-04 0.0000000e+00 
0.0000000e+00 -1.4697245e-03 0.0000000e+00 
0.0000000e+00 -2.3119471e-03 0.0000000e+00 
0.0000000e+00 -3.3082585e-03 0.0000000e+00 
0.0000000e+00 -4.4586589e-03 0.0000000e+00 
0.0000000e+00 -5.7631480e-03 0.0000000e+00 
0.0000000e+00 -7.2217262e-03 0.0000000e+00 
0.0000000e+00 -8.8343928e-03 0.0000000e+00 
0.0000000e+00 -1.1491251e-02 0.0000000e+00 
0.0000000e+00 -1.3412807e-02 0.0000000e+00 
0.0000000e+00 -1.4599060e-02 0.0000000e+00 
0.0000000e+00 -1.5050010e-02 0.0000000e+00 
0.0000000e+00 -1.4765657e-02 0.0000000e+00 
0.0000000e+00 -1.3746003e-02 0.0000000e+00 
0.0000000e+00 -1.1991045e-02 0.0000000e+00 
0.0000000e+00 -9.5007857e-03 0.0000000e+00 
0.0000000e+00 -6.2752231e-03 0.0000000e+00 
0.0000000e+00 -2.3143578e-03 0.0000000e+00 
0.0000000e+00 2.3818100e-03 0.0000000e+00 
0.0000000e+00 7.8132804e-03 0.0000000e+00 
0.0000000e+00 9.7014485e-03 0.0000000e+00 
0.0000000e+00 8.2050795e-03 0.0000000e+00 
0.0000000e+00 3.3241741e-03 0.0000000e+00 
0.0000000e+00 -4.9412684e-03 0.0000000e+00 
0.0000000e+00 -1.6591247e-02 0.0000000e+00 
0.0000000e+00 -3.1625763e-02 0.0000000e+00 
0.0000000e+00 -5.0044816e-02 0.0000000e+00 
0.0000000e+00 -7.1848400e-02 0.0000000e+00 
0.0000000e+00 -9.7036526e-02 0.0000000e+00 
0.0000000e+00 -1.2560919e-01 0.0000000e+00 
0.0000000e+00 -1.5756638e-01 0.0000000e+00 
0.0000000e+00 -1.9290812e-01 0.0000000e+00 
0.0000000e+00 -2.5841522e-01 0.0000000e+00 
0.0000000e+00 -3.2119125e-01 0.0000000e+00 
0.0000000e+00 -3.8123620e-01 0.0000000e+00 