# vtk DataFile Version 4.0
vtk output
ASCII
DATASET UNSTRUCTURED_GRID
POINTS 212 float
0.0000000e+00 0.0000000e+00 0.0000000e+00 
0.0000000e+00 0.0000000e+00 2.5000000e-01 
0.0000000e+00 0.0000000e+00 5.0000000e-01 
0.0000000e+00 0.0000000e+00 7.5000000e-01 
0.0000000e+00 0.0000000e+00 1.0000000e+00 
0.0000000e+00 0.0000000e+00 1.2500000e+00 
0.0000000e+00 0.0000000e+00 1.5000000e+00 
0.0000000e+00 0.0000000e+00 1.7500000e+00 
0.0000000e+00 0.0000000e+00 2.0000000e+00 
0.0000000e+00 0.0000000e+00 2.2500000e+00 
0.0000000e+00 0.0000000e+00 2.5000000e+00 
0.0000000e+00 0.0000000e+00 2.7500000e+00 
0.0000000e+00 0.0000000e+00 3.0000000e+00 
0.0000000e+00 0.0000000e+00 3.2500000e+00 
0.0000000e+00 0.0000000e+00 3.5000000e+00 
0.0000000e+00 0.0000000e+00 3.7500000e+00 
0.0000000e+00 0.0000000e+00 4.0000000e+00 
0.0000000e+00 0.0000000e+00 4.2500000e+00 
0.0000000e+00 0.0000000e+00 4.5000000e+00 
0.0000000e+00 0.0000000e+00 4.7500000e+00 
0.0000000e+00 0.0000000e+00 5.0000000e+00 
0.0000000e+00 0.0000000e+00 5.2500000e+00 
0.0000000e+00 0.0000000e+00 5.5000000e+00 
0.0000000e+00 0.0000000e+00 5.7500000e+00 
0.0000000e+00 0.0000000e+00 6.0000000e+00 
0.0000000e+00 0.0000000e+00 6.2500000e+00 
0.0000000e+00 0.0000000e+00 6.5000000e+00 
0.0000000e+00 0.0000000e+00 6.7500000e+00 
0.0000000e+00 0.0000000e+00 7.0000000e+00 
0.0000000e+00 0.0000000e+00 7.2500000e+00 
0.0000000e+00 0.0000000e+00 7.5000000e+00 
0.0000000e+00 0.0000000e+00 7.7500000e+00 
0.0000000e+00 0.0000000e+00 8.0000000e+00 
0.0000000e+00 0.0000000e+00 8.2500000e+00 
0.0000000e+00 0.0000000e+00 8.5000000e+00 
0.0000000e+00 0.0000000e+00 8.7500000e+00 
0.0000000e+00 0.0000000e+00 9.0000000e+00 
0.0000000e+00 0.0000000e+00 9.2500000e+00 
0.0000000e+00 0.0000000e+00 9.5000000e+00 
0.0000000e+00 0.0000000e+00 9.7500000e+00 
0.0000000e+00 0.0000000e+00 1.0000000e+01 
0.0000000e+00 0.0000000e+00 1.0250000e+01 
0.0000000e+00 0.0000000e+00 1.0500000e+01 
0.0000000e+00 0.0000000e+00 1.0750000e+01 
0.0000000e+00 0.0000000e+00 1.1000000e+01 
0.0000000e+00 0.0000000e+00 1.1250000e+01 
0.0000000e+00 0.0000000e+00 1.1500000e+01 
0.0000000e+00 0.0000000e+00 1.1750000e+01 
0.0000000e+00 0.0000000e+00 1.2000000e+01 
0.0000000e+00 0.0000000e+00 1.2250000e+01 
0.0000000e+00 0.0000000e+00 1.2500000e+01 
0.0000000e+00 0.0000000e+00 1.2750000e+01 
0.0000000e+00 0.0000000e+00 1.3000000e+01 
0.0000000e+00 0.0000000e+00 1.3250000e+01 
0.0000000e+00 0.0000000e+00 1.3500000e+01 
0.0000000e+00 0.0000000e+00 1.3750000e+01 
0.0000000e+00 0.0000000e+00 1.4000000e+01 
0.0000000e+00 0.0000000e+00 1.4250000e+01 
0.0000000e+00 0.0000000e+00 1.4500000e+01 
0.0000000e+00 0.0000000e+00 1.4750000e+01 
0.0000000e+00 0.0000000e+00 1.5000000e+01 
0.0000000e+00 0.0000000e+00 1.5250000e+01 
0.0000000e+00 0.0000000e+00 1.5500000e+01 
0.0000000e+00 0.0000000e+00 1.5750000e+01 
0.0000000e+00 0.0000000e+00 1.6000000e+01 
0.0000000e+00 0.0000000e+00 1.6250000e+01 
0.0000000e+00 0.0000000e+00 1.6500000e+01 
0.0000000e+00 0.0000000e+00 1.6750000e+01 
0.0000000e+00 0.0000000e+00 1.7000000e+01 
0.0000000e+00 0.0000000e+00 1.7250000e+01 
0.0000000e+00 0.0000000e+00 1.7500000e+01 
0.0000000e+00 0.0000000e+00 1.7750000e+01 
0.0000000e+00 0.0000000e+00 1.8000000e+01 
5.0000000e-01 0.0000000e+00 3.0000000e+00 
5.0000000e-01 0.0000000e+00 6.0000000e+00 
5.0000000e-01 0.0000000e+00 9.0000000e+00 
5.0000000e-01 0.0000000e+00 1.2000000e+01 
5.0000000e-01 0.0000000e+00 1.5000000e+01 
5.0000000e-01 0.0000000e+00 1.8000000e+01 
1.0000000e+00 0.0000000e+00 3.0000000e+00 
1.0000000e+00 0.0000000e+00 6.0000000e+00 
1.0000000e+00 0.0000000e+00 9.0000000e+00 
1.0000000e+00 0.0000000e+00 1.2000000e+01 
1.0000000e+00 0.0000000e+00 1.5000000e+01 
1.0000000e+00 0.0000000e+00 1.8000000e+01 
1.5000000e+00 0.0000000e+00 3.0000000e+00 
1.5000000e+00 0.0000000e+00 6.0000000e+00 
1.5000000e+00 0.0000000e+00 9.0000000e+00 
1.5000000e+00 0.0000000e+00 1.2000000e+01 
1.5000000e+00 0.0000000e+00 1.5000000e+01 
1.5000000e+00 0.0000000e+00 1.8000000e+01 
2.0000000e+00 0.0000000e+00 3.0000000e+00 
2.0000000e+00 0.0000000e+00 6.0000000e+00 
2.0000000e+00 0.0000000e+00 9.0000000e+00 
2.0000000e+00 0.0000000e+00 1.2000000e+01 
2.0000000e+00 0.0000000e+00 1.5000000e+01 
2.0000000e+00 0.0000000e+00 1.8000000e+01 
2.5000000e+00 0.0000000e+00 3.0000000e+00 
2.5000000e+00 0.0000000e+00 6.0000000e+00 
2.5000000e+00 0.0000000e+00 9.0000000e+00 
2.5000000e+00 0.0000000e+00 1.2000000e+01 
2.5000000e+00 0.0000000e+00 1.5000000e+01 
2.5000000e+00 0.0000000e+00 1.8000000e+01 
3.0000000e+00 0.0000000e+00 3.0000000e+00 
3.0000000e+00 0.0000000e+00 6.0000000e+00 
3.0000000e+00 0.0000000e+00 9.0000000e+00 
3.0000000e+00 0.0000000e+00 1.2000000e+01 
3.0000000e+00 0.0000000e+00 1.5000000e+01 
3.0000000e+00 0.0000000e+00 1.8000000e+01 
3.5000000e+00 0.0000000e+00 3.0000000e+00 
3.5000000e+00 0.0000000e+00 6.0000000e+00 
3.5000000e+00 0.0000000e+00 9.0000000e+00 
3.5000000e+00 0.0000000e+00 1.2000000e+01 
3.5000000e+00 0.0000000e+00 1.5000000e+01 
3.5000000e+00 0.0000000e+00 1.8000000e+01 
4.0000000e+00 0.0000000e+00 3.0000000e+00 
4.0000000e+00 0.0000000e+00 6.0000000e+00 
4.0000000e+00 0.0000000e+00 9.0000000e+00 
4.0000000e+00 0.0000000e+00 1.2000000e+01 
4.0000000e+00 0.0000000e+00 1.5000000e+01 
4.0000000e+00 0.0000000e+00 1.8000000e+01 
4.5000000e+00 0.0000000e+00 3.0000000e+00 
4.5000000e+00 0.0000000e+00 6.0000000e+00 
4.5000000e+00 0.0000000e+00 9.0000000e+00 
4.5000000e+00 0.0000000e+00 1.2000000e+01 
4.5000000e+00 0.0000000e+00 1.5000000e+01 
4.5000000e+00 0.0000000e+00 1.8000000e+01 
5.0000000e+00 0.0000000e+00 3.0000000e+00 
5.0000000e+00 0.0000000e+00 6.0000000e+00 
5.0000000e+00 0.0000000e+00 9.0000000e+00 
5.0000000e+00 0.0000000e+00 1.2000000e+01 
5.0000000e+00 0.0000000e+00 1.5000000e+01 
5.0000000e+00 0.0000000e+00 1.8000000e+01 
5.5000000e+00 0.0000000e+00 3.0000000e+00 
5.5000000e+00 0.0000000e+00 6.0000000e+00 
5.5000000e+00 0.0000000e+00 9.0000000e+00 
5.5000000e+00 0.0000000e+00 1.2000000e+01 
5.5000000e+00 0.0000000e+00 1.5000000e+01 
5.5000000e+00 0.0000000e+00 1.8000000e+01 
6.0000000e+00 0.0000000e+00 0.0000000e+00 
6.0000000e+00 0.0000000e+00 2.5000000e-01 
6.0000000e+00 0.0000000e+00 5.0000000e-01 
6.0000000e+00 0.0000000e+00 7.5000000e-01 
6.0000000e+00 0.0000000e+00 1.0000000e+00 
6.0000000e+00 0.0000000e+00 1.2500000e+00 
6.0000000e+00 0.0000000e+00 1.5000000e+00 
6.0000000e+00 0.0000000e+00 1.7500000e+00 
6.0000000e+00 0.0000000e+00 2.0000000e+00 
6.0000000e+00 0.0000000e+00 2.2500000e+00 
6.0000000e+00 0.0000000e+00 2.5000000e+00 
6.0000000e+00 0.0000000e+00 2.7500000e+00 
6.0000000e+00 0.0000000e+00 3.0000000e+00 
6.0000000e+00 0.0000000e+00 3.2500000e+00 
6.0000000e+00 0.0000000e+00 3.5000000e+00 
6.0000000e+00 0.0000000e+00 3.7500000e+00 
6.0000000e+00 0.0000000e+00 4.0000000e+00 
6.0000000e+00 0.0000000e+00 4.2500000e+00 
6.0000000e+00 0.0000000e+00 4.5000000e+00 
6.0000000e+00 0.0000000e+00 4.7500000e+00 
6.0000000e+00 0.0000000e+00 5.0000000e+00 
6.0000000e+00 0.0000000e+00 5.2500000e+00 
6.0000000e+00 0.0000000e+00 5.5000000e+00 
6.0000000e+00 0.0000000e+00 5.7500000e+00 
6.0000000e+00 0.0000000e+00 6.0000000e+00 
6.0000000e+00 0.0000000e+00 6.2500000e+00 
6.0000000e+00 0.0000000e+00 6.5000000e+00 
6.0000000e+00 0.0000000e+00 6.7500000e+00 
6.0000000e+00 0.0000000e+00 7.0000000e+00 
6.0000000e+00 0.0000000e+00 7.2500000e+00 
6.0000000e+00 0.0000000e+00 7.5000000e+00 
6.0000000e+00 0.0000000e+00 7.7500000e+00 
6.0000000e+00 0.0000000e+00 8.0000000e+00 
6.0000000e+00 0.0000000e+00 8.2500000e+00 
6.0000000e+00 0.0000000e+00 8.5000000e+00 
6.0000000e+00 0.0000000e+00 8.7500000e+00 
6.0000000e+00 0.0000000e+00 9.0000000e+00 
6.0000000e+00 0.0000000e+00 9.2500000e+00 
6.0000000e+00 0.0000000e+00 9.5000000e+00 
6.0000000e+00 0.0000000e+00 9.7500000e+00 
6.0000000e+00 0.0000000e+00 1.0000000e+01 
6.0000000e+00 0.0000000e+00 1.0250000e+01 
6.0000000e+00 0.0000000e+00 1.0500000e+01 
6.0000000e+00 0.0000000e+00 1.0750000e+01 
6.0000000e+00 0.0000000e+00 1.1000000e+01 
6.0000000e+00 0.0000000e+00 1.1250000e+01 
6.0000000e+00 0.0000000e+00 1.1500000e+01 
6.0000000e+00 0.0000000e+00 1.1750000e+01 
6.0000000e+00 0.0000000e+00 1.2000000e+01 
6.0000000e+00 0.0000000e+00 1.2250000e+01 
6.0000000e+00 0.0000000e+00 1.2500000e+01 
6.0000000e+00 0.0000000e+00 1.2750000e+01 
6.0000000e+00 0.0000000e+00 1.3000000e+01 
6.0000000e+00 0.0000000e+00 1.3250000e+01 
6.0000000e+00 0.0000000e+00 1.3500000e+01 
6.0000000e+00 0.0000000e+00 1.3750000e+01 
6.0000000e+00 0.0000000e+00 1.4000000e+01 
6.0000000e+00 0.0000000e+00 1.4250000e+01 
6.0000000e+00 0.0000000e+00 1.4500000e+01 
6.0000000e+00 0.0000000e+00 1.4750000e+01 
6.0000000e+00 0.0000000e+00 1.5000000e+01 
6.0000000e+00 0.0000000e+00 1.5250000e+01 
6.0000000e+00 0.0000000e+00 1.5500000e+01 
6.0000000e+00 0.0000000e+00 1.5750000e+01 
6.0000000e+00 0.0000000e+00 1.6000000e+01 
6.0000000e+00 0.0000000e+00 1.6250000e+01 
6.0000000e+00 0.0000000e+00 1.6500000e+01 
6.0000000e+00 0.0000000e+00 1.6750000e+01 
6.0000000e+00 0.0000000e+00 1.7000000e+01 
6.0000000e+00 0.0000000e+00 1.7250000e+01 
6.0000000e+00 0.0000000e+00 1.7500000e+01 
6.0000000e+00 0.0000000e+00 1.7750000e+01 
6.0000000e+00 0.0000000e+00 1.8000000e+01 

CELLS 216 648
2 0 1
2 1 2
2 2 3
2 3 4
2 4 5
2 5 6
2 6 7
2 7 8
2 8 9
2 9 10
2 10 11
2 11 12
2 12 13
2 13 14
2 14 15
2 15 16
2 16 17
2 17 18
2 18 19
2 19 20
2 20 21
2 21 22
2 22 23
2 23 24
2 24 25
2 25 26
2 26 27
2 27 28
2 28 29
2 29 30
2 30 31
2 31 32
2 32 33
2 33 34
2 34 35
2 35 36
2 36 37
2 37 38
2 38 39
2 39 40
2 40 41
2 41 42
2 42 43
2 43 44
2 44 45
2 45 46
2 46 47
2 47 48
2 48 49
2 49 50
2 50 51
2 51 52
2 52 53
2 53 54
2 54 55
2 55 56
2 56 57
2 57 58
2 58 59
2 59 60
2 60 61
2 61 62
2 62 63
2 63 64
2 64 65
2 65 66
2 66 67
2 67 68
2 68 69
2 69 70
2 70 71
2 71 72
2 139 140
2 140 141
2 141 142
2 142 143
2 143 144
2 144 145
2 145 146
2 146 147
2 147 148
2 148 149
2 149 150
2 150 151
2 151 152
2 152 153
2 153 154
2 154 155
2 155 156
2 156 157
2 157 158
2 158 159
2 159 160
2 160 161
2 161 162
2 162 163
2 163 164
2 164 165
2 165 166
2 166 167
2 167 168
2 168 169
2 169 170
2 170 171
2 171 172
2 172 173
2 173 174
2 174 175
2 175 176
2 176 177
2 177 178
2 178 179
2 179 180
2 180 181
2 181 182
2 182 183
2 183 184
2 184 185
2 185 186
2 186 187
2 187 188
2 188 189
2 189 190
2 190 191
2 191 192
2 192 193
2 193 194
2 194 195
2 195 196
2 196 197
2 197 198
2 198 199
2 199 200
2 200 201
2 201 202
2 202 203
2 203 204
2 204 205
2 205 206
2 206 207
2 207 208
2 208 209
2 209 210
2 210 211
2 12 73
2 73 79
2 79 85
2 85 91
2 91 97
2 97 103
2 103 109
2 109 115
2 115 121
2 121 127
2 127 133
2 133 151
2 24 74
2 74 80
2 80 86
2 86 92
2 92 98
2 98 104
2 104 110
2 110 116
2 116 122
2 122 128
2 128 134
2 134 163
2 36 75
2 75 81
2 81 87
2 87 93
2 93 99
2 99 105
2 105 111
2 111 117
2 117 123
2 123 129
2 129 135
2 135 175
2 48 76
2 76 82
2 82 88
2 88 94
2 94 100
2 100 106
2 106 112
2 112 118
2 118 124
2 124 130
2 130 136
2 136 187
2 60 77
2 77 83
2 83 89
2 89 95
2 95 101
2 101 107
2 107 113
2 113 119
2 119 125
2 125 131
2 131 137
2 137 199
2 72 78
2 78 84
2 84 90
2 90 96
2 96 102
2 102 108
2 108 114
2 114 120
2 120 126
2 126 132
2 132 138
2 138 211

CELL_TYPES 216
3
3
3
3
3
3
3
3
3
3
3
3
3
3
3
3
3
3
3
3
3
3
3
3
3
3
3
3
3
3
3
3
3
3
3
3
3
3
3
3
3
3
3
3
3
3
3
3
3
3
3
3
3
3
3
3
3
3
3
3
3
3
3
3
3
3
3
3
3
3
3
3
3
3
3
3
3
3
3
3
3
3
3
3
3
3
3
3
3
3
3
3
3
3
3
3
3
3
3
3
3
3
3
3
3
3
3
3
3
3
3
3
3
3
3
3
3
3
3
3
3
3
3
3
3
3
3
3
3
3
3
3
3
3
3
3
3
3
3
3
3
3
3
3
3
3
3
3
3
3
3
3
3
3
3
3
3
3
3
3
3
3
3
3
3
3
3
3
3
3
3
3
3
3
3
3
3
3
3
3
3
3
3
3
3
3
3
3
3
3
3
3
3
3
3
3
3
3
3
3
3
3
3
3
3
3
3
3
3
3
3
3
3
3
3
3
POINT_DATA 212
FIELD FieldData 3
ADJOINT_DISPLACEMENT 3 212  float
0.0000000e+00 0.0000000e+00 0.0000000e+00 
1.8868448e-03 0.0000000e+00 1.6058828e-16 
3.7547499e-03 0.0000000e+00 3.2117655e-16 
5.5847759e-03 0.0000000e+00 4.8176481e-16 
7.3579829e-03 0.0000000e+00 6.4235310e-16 
9.0554319e-03 0.0000000e+00 8.0294139e-16 
1.0658182e-02 0.0000000e+00 9.6352962e-16 
1.2147295e-02 0.0000000e+00 1.1241180e-15 
1.3503831e-02 0.0000000e+00 1.2847062e-15 
1.4708850e-02 0.0000000e+00 1.4452944e-15 
1.5743412e-02 0.0000000e+00 1.6058828e-15 
1.6588578e-02 0.0000000e+00 1.7664710e-15 
1.7225409e-02 0.0000000e+00 1.9270592e-15 
1.7798709e-02 0.0000000e+00 -1.6328831e-07 
1.8541811e-02 0.0000000e+00 -3.2657661e-07 
1.9568564e-02 0.0000000e+00 -4.8986493e-07 
2.0992821e-02 0.0000000e+00 -6.5315322e-07 
2.2928433e-02 0.0000000e+00 -8.1644157e-07 
2.5489254e-02 0.0000000e+00 -9.7972986e-07 
2.8789131e-02 0.0000000e+00 -1.1430182e-06 
3.2941919e-02 0.0000000e+00 -1.3063064e-06 
3.8061466e-02 0.0000000e+00 -1.4695948e-06 
4.4261623e-02 0.0000000e+00 -1.6328831e-06 
5.1656246e-02 0.0000000e+00 -1.7961714e-06 
6.0359184e-02 0.0000000e+00 -1.9594597e-06 
7.1253173e-02 0.0000000e+00 -2.7759199e-06 
8.4815674e-02 0.0000000e+00 -3.5923799e-06 
1.0055263e-01 0.0000000e+00 -4.4088401e-06 
1.1796995e-01 0.0000000e+00 -5.2253004e-06 
1.3657360e-01 0.0000000e+00 -6.0417606e-06 
1.5586950e-01 0.0000000e+00 -6.8582203e-06 
1.7536359e-01 0.0000000e+00 -7.6746810e-06 
1.9456179e-01 0.0000000e+00 -8.4911408e-06 
2.1297006e-01 0.0000000e+00 -9.3076005e-06 
2.3009431e-01 0.0000000e+00 -1.0124061e-05 
2.4544050e-01 0.0000000e+00 -1.0940521e-05 
2.5851455e-01 0.0000000e+00 -1.1756982e-05 
2.7158701e-01 0.0000000e+00 -1.0938727e-05 
2.8692830e-01 0.0000000e+00 -1.0120472e-05 
3.0404416e-01 0.0000000e+00 -9.3022181e-06 
3.2244030e-01 0.0000000e+00 -8.4839639e-06 
3.4162244e-01 0.0000000e+00 -7.6657097e-06 
3.6109629e-01 0.0000000e+00 -6.8474551e-06 
3.8036758e-01 0.0000000e+00 -6.0292009e-06 
3.9894202e-01 0.0000000e+00 -5.2109463e-06 
4.1632533e-01 0.0000000e+00 -4.3926921e-06 
4.3202326e-01 0.0000000e+00 -3.5744376e-06 
4.4554150e-01 0.0000000e+00 -2.7561832e-06 
4.5638576e-01 0.0000000e+00 -1.9379290e-06 
4.6502733e-01 0.0000000e+00 -1.7674635e-06 
4.7234342e-01 0.0000000e+00 -1.5969980e-06 
4.7844860e-01 0.0000000e+00 -1.4265325e-06 
4.8345751e-01 0.0000000e+00 -1.2560671e-06 
4.8748475e-01 0.0000000e+00 -1.0856016e-06 
4.9064493e-01 0.0000000e+00 -9.1513618e-07 
4.9305263e-01 0.0000000e+00 -7.4467067e-07 
4.9482247e-01 0.0000000e+00 -5.7420522e-07 
4.9606910e-01 0.0000000e+00 -4.0373979e-07 
4.9690706e-01 0.0000000e+00 -2.3327432e-07 
4.9745098e-01 0.0000000e+00 -6.2808859e-08 
4.9781549e-01 0.0000000e+00 1.0765660e-07 
4.9820536e-01 0.0000000e+00 1.4174893e-07 
4.9873430e-01 0.0000000e+00 1.7584124e-07 
4.9938011e-01 0.0000000e+00 2.0993356e-07 
5.0012070e-01 0.0000000e+00 2.4402587e-07 
5.0093395e-01 0.0000000e+00 2.7811819e-07 
5.0179768e-01 0.0000000e+00 3.1221052e-07 
5.0268978e-01 0.0000000e+00 3.4630281e-07 
5.0358808e-01 0.0000000e+00 3.8039514e-07 
5.0447053e-01 0.0000000e+00 4.1448746e-07 
5.0531495e-01 0.0000000e+00 4.4857978e-07 
5.0609922e-01 0.0000000e+00 4.8267208e-07 
5.0680119e-01 0.0000000e+00 5.1676443e-07 
1.7226860e-02 0.0000000e+00 -5.2614318e-04 
6.0352549e-02 0.0000000e+00 -1.5470806e-02 
2.5851455e-01 0.0000000e+00 -1.2100295e-02 
4.5639241e-01 0.0000000e+00 -1.5388964e-02 
4.9781400e-01 0.0000000e+00 -2.0720856e-04 
5.0680143e-01 0.0000000e+00 -1.1058477e-03 
1.7228309e-02 0.0000000e+00 -1.5874869e-04 
6.0345914e-02 0.0000000e+00 -2.4935484e-02 
2.5851455e-01 0.0000000e+00 3.2476758e-04 
4.5639905e-01 0.0000000e+00 -2.4813000e-02 
4.9781251e-01 0.0000000e+00 2.8952557e-04 
5.0680166e-01 0.0000000e+00 -1.8444853e-03 
1.7229758e-02 0.0000000e+00 8.6282089e-04 
6.0339276e-02 0.0000000e+00 -2.9353470e-02 
2.5851452e-01 0.0000000e+00 3.9659742e-02 
4.5640570e-01 0.0000000e+00 -2.9223634e-02 
4.9781099e-01 0.0000000e+00 1.2904021e-03 
5.0680190e-01 0.0000000e+00 -2.2653718e-03 
1.7231207e-02 0.0000000e+00 2.2992031e-03 
6.0332641e-02 0.0000000e+00 -2.9682243e-02 
2.5851452e-01 0.0000000e+00 1.0830094e-01 
4.5641235e-01 0.0000000e+00 -2.9570453e-02 
4.9780950e-01 0.0000000e+00 2.5955131e-03 
5.0680214e-01 0.0000000e+00 -2.4184827e-03 
1.7232656e-02 0.0000000e+00 3.9110351e-03 
6.0326006e-02 0.0000000e+00 -2.6879279e-02 
2.5851452e-01 0.0000000e+00 2.0864467e-01 
4.5641899e-01 0.0000000e+00 -2.6803043e-02 
4.9780801e-01 0.0000000e+00 4.0049506e-03 
5.0680238e-01 0.0000000e+00 -2.3537937e-03 
1.7234106e-02 0.0000000e+00 5.4589543e-03 
6.0319372e-02 0.0000000e+00 -2.1902058e-02 
2.5851452e-01 0.0000000e+00 3.4308723e-01 
4.5642564e-01 0.0000000e+00 -2.1870991e-02 
4.9780652e-01 0.0000000e+00 5.3188070e-03 
5.0680262e-01 0.0000000e+00 -2.1212802e-03 
1.7235555e-02 0.0000000e+00 6.7035984e-03 
6.0312737e-02 0.0000000e+00 -1.5708055e-02 
2.5851452e-01 0.0000000e+00 5.1402497e-01 
4.5643228e-01 0.0000000e+00 -1.5723884e-02 
4.9780503e-01 0.0000000e+00 6.3371742e-03 
5.0680286e-01 0.0000000e+00 -1.7709178e-03 
1.7237006e-02 0.0000000e+00 7.4056047e-03 
6.0306102e-02 0.0000000e+00 -9.2547489e-03 
2.5851452e-01 0.0000000e+00 7.2385418e-01 
4.5643893e-01 0.0000000e+00 -9.3113091e-03 
4.9780354e-01 0.0000000e+00 6.8601440e-03 
5.0680315e-01 0.0000000e+00 -1.3526820e-03 
1.7238455e-02 0.0000000e+00 7.3256106e-03 
6.0299464e-02 0.0000000e+00 -3.4996166e-03 
2.5851452e-01 0.0000000e+00 4.7497112e-01 
4.5644557e-01 0.0000000e+00 -3.5828524e-03 
4.9780205e-01 0.0000000e+00 6.6878083e-03 
5.0680339e-01 0.0000000e+00 -9.1654842e-04 
1.7239904e-02 0.0000000e+00 6.2242537e-03 
6.0292829e-02 0.0000000e+00 5.9986376e-04 
2.5851452e-01 0.0000000e+00 2.6977217e-01 
4.5645222e-01 0.0000000e+00 5.1189883e-04 
4.9780056e-01 0.0000000e+00 5.6202603e-03 
5.0680363e-01 0.0000000e+00 -5.1249267e-04 
1.7241353e-02 0.0000000e+00 3.8621710e-03 
6.0286194e-02 0.0000000e+00 2.0862150e-03 
2.5851452e-01 0.0000000e+00 1.1065361e-01 
4.5645887e-01 0.0000000e+00 2.0233579e-03 
4.9779907e-01 0.0000000e+00 3.4575907e-03 
5.0680387e-01 0.0000000e+00 -1.9049027e-04 
0.0000000e+00 0.0000000e+00 0.0000000e+00 
9.8550634e-04 0.0000000e+00 -1.5358161e-16 
1.9899523e-03 0.0000000e+00 -3.0716146e-16 
3.0322773e-03 0.0000000e+00 -4.6074066e-16 
4.1314210e-03 0.0000000e+00 -6.1432303e-16 
5.3063235e-03 0.0000000e+00 -7.6790657e-16 
6.5759239e-03 0.0000000e+00 -9.2148990e-16 
7.9591619e-03 0.0000000e+00 -1.0750743e-15 
9.4749769e-03 0.0000000e+00 -1.2286567e-15 
1.1142309e-02 0.0000000e+00 -1.3822357e-15 
1.2980098e-02 0.0000000e+00 -1.5358163e-15 
1.5007283e-02 0.0000000e+00 -1.6893928e-15 
1.7242802e-02 0.0000000e+00 -1.8429643e-15 
1.9900898e-02 0.0000000e+00 1.6328831e-07 
2.3107279e-02 0.0000000e+00 3.2657661e-07 
2.6748097e-02 0.0000000e+00 4.8986493e-07 
3.0709496e-02 0.0000000e+00 6.5315322e-07 
3.4877628e-02 0.0000000e+00 8.1644157e-07 
3.9138645e-02 0.0000000e+00 9.7972986e-07 
4.3378688e-02 0.0000000e+00 1.1430182e-06 
4.7483910e-02 0.0000000e+00 1.3063064e-06 
5.1340461e-02 0.0000000e+00 1.4695948e-06 
5.4834485e-02 0.0000000e+00 1.6328831e-06 
5.7852138e-02 0.0000000e+00 1.7961714e-06 
6.0279559e-02 0.0000000e+00 1.9594597e-06 
6.2670231e-02 0.0000000e+00 2.7759199e-06 
6.5982915e-02 0.0000000e+00 3.5923799e-06 
7.0711672e-02 0.0000000e+00 4.4088401e-06 
7.7350564e-02 0.0000000e+00 5.2253004e-06 
8.6393662e-02 0.0000000e+00 6.0417606e-06 
9.8335028e-02 0.0000000e+00 6.8582203e-06 
1.1366873e-01 0.0000000e+00 7.6746810e-06 
1.3288882e-01 0.0000000e+00 8.4911408e-06 
1.5648939e-01 0.0000000e+00 9.3076005e-06 
1.8496448e-01 0.0000000e+00 1.0124061e-05 
2.1880817e-01 0.0000000e+00 1.0940521e-05 
2.5851452e-01 0.0000000e+00 1.1756982e-05 
2.9821849e-01 0.0000000e+00 1.0938727e-05 
3.3205524e-01 0.0000000e+00 1.0120472e-05 
3.6051899e-01 0.0000000e+00 9.3022181e-06 
3.8410407e-01 0.0000000e+00 8.4839639e-06 
4.0330473e-01 0.0000000e+00 7.6657097e-06 
4.1861528e-01 0.0000000e+00 6.8474551e-06 
4.3052995e-01 0.0000000e+00 6.0292009e-06 
4.3954307e-01 0.0000000e+00 5.2109463e-06 
4.4614893e-01 0.0000000e+00 4.3926921e-06 
4.5084175e-01 0.0000000e+00 3.5744376e-06 
4.5411584e-01 0.0000000e+00 2.7561832e-06 
4.5646551e-01 0.0000000e+00 1.9379290e-06 
4.5884383e-01 0.0000000e+00 1.7674635e-06 
4.6179798e-01 0.0000000e+00 1.5969980e-06 
4.6521339e-01 0.0000000e+00 1.4265325e-06 
4.6897542e-01 0.0000000e+00 1.2560671e-06 
4.7296947e-01 0.0000000e+00 1.0856016e-06 
4.7708094e-01 0.0000000e+00 9.1513618e-07 
4.8119524e-01 0.0000000e+00 7.4467067e-07 
4.8519772e-01 0.0000000e+00 5.7420522e-07 
4.8897380e-01 0.0000000e+00 4.0373979e-07 
4.9240887e-01 0.0000000e+00 2.3327432e-07 
4.9538833e-01 0.0000000e+00 6.2808859e-08 
4.9779758e-01 0.0000000e+00 -1.0765660e-07 
4.9973163e-01 0.0000000e+00 -1.4174893e-07 
5.0137675e-01 0.0000000e+00 -1.7584124e-07 
5.0275505e-01 0.0000000e+00 -2.0993356e-07 
5.0388861e-01 0.0000000e+00 -2.4402587e-07 
5.0479960e-01 0.0000000e+00 -2.7811819e-07 
5.0551021e-01 0.0000000e+00 -3.1221052e-07 
5.0604248e-01 0.0000000e+00 -3.4630281e-07 
5.0641859e-01 0.0000000e+00 -3.8039514e-07 
5.0666070e-01 0.0000000e+00 -4.1448746e-07 
5.0679088e-01 0.0000000e+00 -4.4857978e-07 
5.0683129e-01 0.0000000e+00 -4.8267208e-07 
5.0680411e-01 0.0000000e+00 -5.1676443e-07 
ADJOINT_ROTATION 3 212  float
0.0000000e+00 7.5600054e-03 0.0000000e+00 
0.0000000e+00 7.5221262e-03 0.0000000e+00 
0.0000000e+00 7.4084885e-03 0.0000000e+00 
0.0000000e+00 7.2190925e-03 0.0000000e+00 
0.0000000e+00 6.9539379e-03 0.0000000e+00 
0.0000000e+00 6.6130250e-03 0.0000000e+00 
0.0000000e+00 6.1963536e-03 0.0000000e+00 
0.0000000e+00 5.7039242e-03 0.0000000e+00 
0.0000000e+00 5.1357360e-03 0.0000000e+00 
0.0000000e+00 4.4917893e-03 0.0000000e+00 
0.0000000e+00 3.7720844e-03 0.0000000e+00 
0.0000000e+00 2.9766208e-03 0.0000000e+00 
0.0000000e+00 2.1053990e-03 0.0000000e+00 
0.0000000e+00 2.5569010e-03 0.0000000e+00 
0.0000000e+00 3.4638084e-03 0.0000000e+00 
0.0000000e+00 4.8261210e-03 0.0000000e+00 
0.0000000e+00 6.6438392e-03 0.0000000e+00 
0.0000000e+00 8.9169629e-03 0.0000000e+00 
0.0000000e+00 1.1645492e-02 0.0000000e+00 
0.0000000e+00 1.4829426e-02 0.0000000e+00 
0.0000000e+00 1.8468766e-02 0.0000000e+00 
0.0000000e+00 2.2563512e-02 0.0000000e+00 
0.0000000e+00 2.7113663e-02 0.0000000e+00 
0.0000000e+00 3.2119218e-02 0.0000000e+00 
0.0000000e+00 3.7580181e-02 0.0000000e+00 
0.0000000e+00 4.9242359e-02 0.0000000e+00 
0.0000000e+00 5.8928281e-02 0.0000000e+00 
0.0000000e+00 6.6637941e-02 0.0000000e+00 
0.0000000e+00 7.2371334e-02 0.0000000e+00 
0.0000000e+00 7.6128475e-02 0.0000000e+00 
0.0000000e+00 7.7909350e-02 0.0000000e+00 
0.0000000e+00 7.7713966e-02 0.0000000e+00 
0.0000000e+00 7.5542323e-02 0.0000000e+00 
0.0000000e+00 7.1394414e-02 0.0000000e+00 
0.0000000e+00 6.5270253e-02 0.0000000e+00 
0.0000000e+00 5.7169825e-02 0.0000000e+00 
0.0000000e+00 4.7093138e-02 0.0000000e+00 
0.0000000e+00 5.7157051e-02 0.0000000e+00 
0.0000000e+00 6.5243840e-02 0.0000000e+00 
0.0000000e+00 7.1353510e-02 0.0000000e+00 
0.0000000e+00 7.5486064e-02 0.0000000e+00 
0.0000000e+00 7.7641487e-02 0.0000000e+00 
0.0000000e+00 7.7819794e-02 0.0000000e+00 
0.0000000e+00 7.6020986e-02 0.0000000e+00 
0.0000000e+00 7.2245046e-02 0.0000000e+00 
0.0000000e+00 6.6491991e-02 0.0000000e+00 
0.0000000e+00 5.8761816e-02 0.0000000e+00 
0.0000000e+00 4.9054518e-02 0.0000000e+00 
0.0000000e+00 3.7370097e-02 0.0000000e+00 
0.0000000e+00 3.1838905e-02 0.0000000e+00 
0.0000000e+00 2.6766142e-02 0.0000000e+00 
0.0000000e+00 2.2151804e-02 0.0000000e+00 
0.0000000e+00 1.7995894e-02 0.0000000e+00 
0.0000000e+00 1.4298408e-02 0.0000000e+00 
0.0000000e+00 1.1059349e-02 0.0000000e+00 
0.0000000e+00 8.2787173e-03 0.0000000e+00 
0.0000000e+00 5.9565119e-03 0.0000000e+00 
0.0000000e+00 4.0927329e-03 0.0000000e+00 
0.0000000e+00 2.6873804e-03 0.0000000e+00 
0.0000000e+00 1.7404543e-03 0.0000000e+00 
0.0000000e+00 1.2519547e-03 0.0000000e+00 
0.0000000e+00 1.8523610e-03 0.0000000e+00 
0.0000000e+00 2.3642362e-03 0.0000000e+00 
0.0000000e+00 2.7875800e-03 0.0000000e+00 
0.0000000e+00 3.1223928e-03 0.0000000e+00 
0.0000000e+00 3.3686745e-03 0.0000000e+00 
0.0000000e+00 3.5264248e-03 0.0000000e+00 
0.0000000e+00 3.5956441e-03 0.0000000e+00 
0.0000000e+00 3.5763320e-03 0.0000000e+00 
0.0000000e+00 3.4684890e-03 0.0000000e+00 
0.0000000e+00 3.2721146e-03 0.0000000e+00 
0.0000000e+00 2.9872092e-03 0.0000000e+00 
0.0000000e+00 2.6137724e-03 0.0000000e+00 
0.0000000e+00 7.8961159e-05 0.0000000e+00 
0.0000000e+00 2.4614366e-02 0.0000000e+00 
0.0000000e+00 4.6224560e-04 0.0000000e+00 
0.0000000e+00 2.4494532e-02 0.0000000e+00 
0.0000000e+00 -3.5605388e-04 0.0000000e+00 
0.0000000e+00 1.8283435e-03 0.0000000e+00 
0.0000000e+00 -1.4687516e-03 0.0000000e+00 
0.0000000e+00 1.3563505e-02 0.0000000e+00 
0.0000000e+00 -5.0961267e-02 0.0000000e+00 
0.0000000e+00 1.3518142e-02 0.0000000e+00 
0.0000000e+00 -1.5642466e-03 0.0000000e+00 
0.0000000e+00 1.1428656e-03 0.0000000e+00 
0.0000000e+00 -2.5377392e-03 0.0000000e+00 
0.0000000e+00 4.4276002e-03 0.0000000e+00 
0.0000000e+00 -1.0717740e-01 0.0000000e+00 
0.0000000e+00 4.4409237e-03 0.0000000e+00 
0.0000000e+00 -2.3726237e-03 0.0000000e+00 
0.0000000e+00 5.5733894e-04 0.0000000e+00 
0.0000000e+00 -3.1280017e-03 0.0000000e+00 
0.0000000e+00 -2.7933496e-03 0.0000000e+00 
0.0000000e+00 -1.6818616e-01 0.0000000e+00 
0.0000000e+00 -2.7371203e-03 0.0000000e+00 
0.0000000e+00 -2.7811846e-03 0.0000000e+00 
0.0000000e+00 7.1763359e-05 0.0000000e+00 
0.0000000e+00 -3.2395390e-03 0.0000000e+00 
0.0000000e+00 -8.0993446e-03 0.0000000e+00 
0.0000000e+00 -2.3398753e-01 0.0000000e+00 
0.0000000e+00 -8.0159903e-03 0.0000000e+00 
0.0000000e+00 -2.7899300e-03 0.0000000e+00 
0.0000000e+00 -3.1386112e-04 0.0000000e+00 
0.0000000e+00 -2.8723511e-03 0.0000000e+00 
0.0000000e+00 -1.1490384e-02 0.0000000e+00 
0.0000000e+00 -3.0458152e-01 0.0000000e+00 
0.0000000e+00 -1.1395687e-02 0.0000000e+00 
0.0000000e+00 -2.3988592e-03 0.0000000e+00 
0.0000000e+00 -5.9953448e-04 0.0000000e+00 
0.0000000e+00 -2.0264380e-03 0.0000000e+00 
0.0000000e+00 -1.2966468e-02 0.0000000e+00 
0.0000000e+00 -3.7996814e-01 0.0000000e+00 
0.0000000e+00 -1.2876211e-02 0.0000000e+00 
0.0000000e+00 -1.6079728e-03 0.0000000e+00 
0.0000000e+00 -7.8525674e-04 0.0000000e+00 
0.0000000e+00 -7.0179970e-04 0.0000000e+00 
0.0000000e+00 -1.2527597e-02 0.0000000e+00 
0.0000000e+00 -4.6014738e-01 0.0000000e+00 
0.0000000e+00 -1.2457561e-02 0.0000000e+00 
0.0000000e+00 -4.1727041e-04 0.0000000e+00 
0.0000000e+00 -8.7102782e-04 0.0000000e+00 
0.0000000e+00 1.1015637e-03 0.0000000e+00 
0.0000000e+00 -1.0173772e-02 0.0000000e+00 
0.0000000e+00 4.5488074e-01 0.0000000e+00 
0.0000000e+00 -1.0139736e-02 0.0000000e+00 
0.0000000e+00 1.1732478e-03 0.0000000e+00 
0.0000000e+00 -8.5684779e-04 0.0000000e+00 
0.0000000e+00 3.3836523e-03 0.0000000e+00 
0.0000000e+00 -5.9049907e-03 0.0000000e+00 
0.0000000e+00 3.6511627e-01 0.0000000e+00 
0.0000000e+00 -5.9227389e-03 0.0000000e+00 
0.0000000e+00 3.1635819e-03 0.0000000e+00 
0.0000000e+00 -7.4271671e-04 0.0000000e+00 
0.0000000e+00 6.1444659e-03 0.0000000e+00 
0.0000000e+00 2.7874511e-04 0.0000000e+00 
0.0000000e+00 2.7055919e-01 0.0000000e+00 
0.0000000e+00 1.9343197e-04 0.0000000e+00 
0.0000000e+00 5.5537317e-03 0.0000000e+00 
0.0000000e+00 -5.2863441e-04 0.0000000e+00 
0.0000000e+00 3.9293990e-03 0.0000000e+00 
0.0000000e+00 3.9672782e-03 0.0000000e+00 
0.0000000e+00 4.0809154e-03 0.0000000e+00 
0.0000000e+00 4.2703114e-03 0.0000000e+00 
0.0000000e+00 4.5354660e-03 0.0000000e+00 
0.0000000e+00 4.8763789e-03 0.0000000e+00 
0.0000000e+00 5.2930503e-03 0.0000000e+00 
0.0000000e+00 5.7854801e-03 0.0000000e+00 
0.0000000e+00 6.3536679e-03 0.0000000e+00 
0.0000000e+00 6.9976146e-03 0.0000000e+00 
0.0000000e+00 7.7173198e-03 0.0000000e+00 
0.0000000e+00 8.5127829e-03 0.0000000e+00 
0.0000000e+00 9.3840053e-03 0.0000000e+00 
0.0000000e+00 1.1804854e-02 0.0000000e+00 
0.0000000e+00 1.3770298e-02 0.0000000e+00 
0.0000000e+00 1.5280336e-02 0.0000000e+00 
0.0000000e+00 1.6334970e-02 0.0000000e+00 
0.0000000e+00 1.6934196e-02 0.0000000e+00 
0.0000000e+00 1.7078018e-02 0.0000000e+00 
0.0000000e+00 1.6766435e-02 0.0000000e+00 
0.0000000e+00 1.5999446e-02 0.0000000e+00 
0.0000000e+00 1.4777051e-02 0.0000000e+00 
0.0000000e+00 1.3099252e-02 0.0000000e+00 
0.0000000e+00 1.0966047e-02 0.0000000e+00 
0.0000000e+00 8.3774365e-03 0.0000000e+00 
0.0000000e+00 1.1077338e-02 0.0000000e+00 
0.0000000e+00 1.5753500e-02 0.0000000e+00 
0.0000000e+00 2.2405922e-02 0.0000000e+00 
0.0000000e+00 3.1034606e-02 0.0000000e+00 
0.0000000e+00 4.1639552e-02 0.0000000e+00 
0.0000000e+00 5.4220755e-02 0.0000000e+00 
0.0000000e+00 6.8778217e-02 0.0000000e+00 
0.0000000e+00 8.5311949e-02 0.0000000e+00 
0.0000000e+00 1.0382193e-01 0.0000000e+00 
0.0000000e+00 1.2430818e-01 0.0000000e+00 
0.0000000e+00 1.4677069e-01 0.0000000e+00 
0.0000000e+00 1.7120945e-01 0.0000000e+00 
0.0000000e+00 1.4675190e-01 0.0000000e+00 
0.0000000e+00 1.2427147e-01 0.0000000e+00 
0.0000000e+00 1.0376815e-01 0.0000000e+00 
0.0000000e+00 8.5241958e-02 0.0000000e+00 
0.0000000e+00 6.8692885e-02 0.0000000e+00 
0.0000000e+00 5.4120935e-02 0.0000000e+00 
0.0000000e+00 4.1526109e-02 0.0000000e+00 
0.0000000e+00 3.0908400e-02 0.0000000e+00 
0.0000000e+00 2.2267813e-02 0.0000000e+00 
0.0000000e+00 1.5604346e-02 0.0000000e+00 
0.0000000e+00 1.0918001e-02 0.0000000e+00 
0.0000000e+00 8.2087768e-03 0.0000000e+00 
0.0000000e+00 1.0741366e-02 0.0000000e+00 
0.0000000e+00 1.2815529e-02 0.0000000e+00 
0.0000000e+00 1.4431264e-02 0.0000000e+00 
0.0000000e+00 1.5588574e-02 0.0000000e+00 
0.0000000e+00 1.6287457e-02 0.0000000e+00 
0.0000000e+00 1.6527914e-02 0.0000000e+00 
0.0000000e+00 1.6309943e-02 0.0000000e+00 
0.0000000e+00 1.5633548e-02 0.0000000e+00 
0.0000000e+00 1.4498725e-02 0.0000000e+00 
0.0000000e+00 1.2905476e-02 0.0000000e+00 
0.0000000e+00 1.0853800e-02 0.0000000e+00 
0.0000000e+00 8.3436975e-03 0.0000000e+00 
0.0000000e+00 7.1435845e-03 0.0000000e+00 
0.0000000e+00 6.0320026e-03 0.0000000e+00 
0.0000000e+00 5.0089518e-03 0.0000000e+00 
0.0000000e+00 4.0744324e-03 0.0000000e+00 
0.0000000e+00 3.2284441e-03 0.0000000e+00 
0.0000000e+00 2.4709869e-03 0.0000000e+00 
0.0000000e+00 1.8020610e-03 0.0000000e+00 
0.0000000e+00 1.2216662e-03 0.0000000e+00 
0.0000000e+00 7.2980265e-04 0.0000000e+00 
0.0000000e+00 3.2647024e-04 0.0000000e+00 