# vtk DataFile Version 4.0
vtk output
ASCII
DATASET UNSTRUCTURED_GRID
POINTS 30 float
0.0000000e+00 0.0000000e+00 0.0000000e+00 
0.0000000e+00 0.0000000e+00 8.0000001e-01 
0.0000000e+00 0.0000000e+00 1.6000000e+00 
0.0000000e+00 0.0000000e+00 2.4000001e+00 
0.0000000e+00 0.0000000e+00 3.2000000e+00 
0.0000000e+00 0.0000000e+00 4.0000000e+00 
0.0000000e+00 0.0000000e+00 4.8000002e+00 
0.0000000e+00 0.0000000e+00 5.5999999e+00 
0.0000000e+00 0.0000000e+00 6.4000001e+00 
0.0000000e+00 0.0000000e+00 7.1999998e+00 
0.0000000e+00 0.0000000e+00 8.0000000e+00 
1.0000000e+01 0.0000000e+00 0.0000000e+00 
1.0000000e+01 0.0000000e+00 8.0000001e-01 
1.0000000e+01 0.0000000e+00 1.6000000e+00 
1.0000000e+01 0.0000000e+00 2.4000001e+00 
1.0000000e+01 0.0000000e+00 3.2000000e+00 
1.0000000e+01 0.0000000e+00 4.0000000e+00 
1.0000000e+01 0.0000000e+00 4.8000002e+00 
1.0000000e+01 0.0000000e+00 5.5999999e+00 
1.0000000e+01 0.0000000e+00 6.4000001e+00 
1.0000000e+01 0.0000000e+00 7.1999998e+00 
1.0000000e+01 0.0000000e+00 8.0000000e+00 
2.0000000e+00 0.0000000e+00 4.0000000e+00 
4.0000000e+00 0.0000000e+00 4.0000000e+00 
6.0000000e+00 0.0000000e+00 4.0000000e+00 
8.0000000e+00 0.0000000e+00 4.0000000e+00 
2.0000000e+00 0.0000000e+00 8.0000000e+00 
4.0000000e+00 0.0000000e+00 8.0000000e+00 
6.0000000e+00 0.0000000e+00 8.0000000e+00 
8.0000000e+00 0.0000000e+00 8.0000000e+00 

CELLS 30 90
2 0 1
2 1 2
2 2 3
2 3 4
2 4 5
2 5 6
2 6 7
2 7 8
2 8 9
2 9 10
2 11 12
2 12 13
2 13 14
2 14 15
2 15 16
2 16 17
2 17 18
2 18 19
2 19 20
2 20 21
2 5 22
2 22 23
2 23 24
2 24 25
2 25 16
2 10 26
2 26 27
2 27 28
2 28 29
2 29 21

CELL_TYPES 30
3
3
3
3
3
3
3
3
3
3
3
3
3
3
3
3
3
3
3
3
3
3
3
3
3
3
3
3
3
3
POINT_DATA 30
FIELD FieldData 3
ADJOINT_DISPLACEMENT 3 30  float
0.0000000e+00 0.0000000e+00 0.0000000e+00 
-8.0654226e-02 0.0000000e+00 -9.1033145e-17 
-1.6385022e-01 0.0000000e+00 -1.8206629e-16 
-2.5212976e-01 0.0000000e+00 -2.7309944e-16 
-3.4803462e-01 0.0000000e+00 -3.6413258e-16 
-4.5410654e-01 0.0000000e+00 -4.5516570e-16 
-5.9671843e-01 0.0000000e+00 1.6358282e-04 
-8.0356395e-01 0.0000000e+00 3.2716565e-04 
-1.0791661e+00 0.0000000e+00 4.9074850e-04 
-1.4280478e+00 0.0000000e+00 6.5433129e-04 
-1.0547321e+00 0.0000000e+00 8.1791414e-04 
0.0000000e+00 0.0000000e+00 0.0000000e+00 
-1.0110447e-01 0.0000000e+00 8.9562187e-17 
-1.9966717e-01 0.0000000e+00 1.7930060e-16 
-2.9314634e-01 0.0000000e+00 2.7008662e-16 
-3.7900019e-01 0.0000000e+00 3.6155908e-16 
-4.5468697e-01 0.0000000e+00 4.5227367e-16 
-5.3745586e-01 0.0000000e+00 -1.6358282e-04 
-6.4323527e-01 0.0000000e+00 -3.2716565e-04 
-7.6750225e-01 0.0000000e+00 -4.9074850e-04 
-9.0573382e-01 0.0000000e+00 -6.5433129e-04 
-1.0534071e+00 0.0000000e+00 -8.1791414e-04 
-4.5422262e-01 0.0000000e+00 1.5130195e-01 
-4.5433870e-01 0.0000000e+00 1.1789772e-01 
-4.5445478e-01 0.0000000e+00 8.8424971e-03 
-4.5457086e-01 0.0000000e+00 -6.6808477e-02 
-1.0544671e+00 0.0000000e+00 -5.9235758e-01 
-1.0542021e+00 0.0000000e+00 -7.8005368e-01 
-1.0539371e+00 0.0000000e+00 -6.7132562e-01 
-1.0536721e+00 0.0000000e+00 -3.7522861e-01 
ADJOINT_ROTATION 3 30  float
0.0000000e+00 -1.0028825e-01 0.0000000e+00 
0.0000000e+00 -1.0187685e-01 0.0000000e+00 
0.0000000e+00 -1.0664267e-01 0.0000000e+00 
0.0000000e+00 -1.1458571e-01 0.0000000e+00 
0.0000000e+00 -1.2570594e-01 0.0000000e+00 
0.0000000e+00 -1.4000340e-01 0.0000000e+00 
0.0000000e+00 -2.1746859e-01 0.0000000e+00 
0.0000000e+00 -3.0058751e-01 0.0000000e+00 
0.0000000e+00 -3.8936013e-01 0.0000000e+00 
0.0000000e+00 -4.8378649e-01 0.0000000e+00 
0.0000000e+00 4.1613346e-01 0.0000000e+00 
0.0000000e+00 -1.2691012e-01 0.0000000e+00 
0.0000000e+00 -1.2532152e-01 0.0000000e+00 
0.0000000e+00 -1.2055570e-01 0.0000000e+00 
0.0000000e+00 -1.1261267e-01 0.0000000e+00 
0.0000000e+00 -1.0149243e-01 0.0000000e+00 
0.0000000e+00 -8.7194972e-02 0.0000000e+00 
0.0000000e+00 -1.1878499e-01 0.0000000e+00 
0.0000000e+00 -1.4472130e-01 0.0000000e+00 
0.0000000e+00 -1.6500388e-01 0.0000000e+00 
0.0000000e+00 -1.7963275e-01 0.0000000e+00 
0.0000000e+00 -1.8860792e-01 0.0000000e+00 
0.0000000e+00 -2.0386495e-02 0.0000000e+00 
0.0000000e+00 4.4702798e-02 0.0000000e+00 
0.0000000e+00 5.5264484e-02 0.0000000e+00 
0.0000000e+00 1.1298560e-02 0.0000000e+00 
0.0000000e+00 1.8612996e-01 0.0000000e+00 
0.0000000e+00 1.0654078e-02 0.0000000e+00 
0.0000000e+00 -1.1029419e-01 0.0000000e+00 
0.0000000e+00 -1.7671487e-01 0.0000000e+00 
SHAPE_SENSITIVITY 3 30  float
0.0000000e+00 0.0000000e+00 0.0000000e+00 
0.0000000e+00 0.0000000e+00 0.0000000e+00 
0.0000000e+00 0.0000000e+00 0.0000000e+00 
0.0000000e+00 0.0000000e+00 0.0000000e+00 
0.0000000e+00 0.0000000e+00 0.0000000e+00 
0.0000000e+00 0.0000000e+00 0.0000000e+00 
0.0000000e+00 0.0000000e+00 0.0000000e+00 
0.0000000e+00 0.0000000e+00 0.0000000e+00 
0.0000000e+00 0.0000000e+00 0.0000000e+00 
0.0000000e+00 0.0000000e+00 0.0000000e+00 
0.0000000e+00 0.0000000e+00 0.0000000e+00 
0.0000000e+00 0.0000000e+00 0.0000000e+00 
0.0000000e+00 0.0000000e+00 0.0000000e+00 
0.0000000e+00 0.0000000e+00 0.0000000e+00 
0.0000000e+00 0.0000000e+00 0.0000000e+00 
0.0000000e+00 0.0000000e+00 0.0000000e+00 
0.0000000e+00 0.0000000e+00 0.0000000e+00 
0.0000000e+00 0.0000000e+00 0.0000000e+00 
0.0000000e+00 0.0000000e+00 0.0000000e+00 
0.0000000e+00 0.0000000e+00 0.0000000e+00 
0.0000000e+00 0.0000000e+00 0.0000000e+00 
0.0000000e+00 0.0000000e+00 0.0000000e+00 
0.0000000e+00 0.0000000e+00 0.0000000e+00 
0.0000000e+00 0.0000000e+00 0.0000000e+00 
0.0000000e+00 0.0000000e+00 0.0000000e+00 
0.0000000e+00 0.0000000e+00 0.0000000e+00 
0.0000000e+00 0.0000000e+00 0.0000000e+00 
0.0000000e+00 0.0000000e+00 0.0000000e+00 
0.0000000e+00 0.0000000e+00 0.0000000e+00 
0.0000000e+00 0.0000000e+00 0.0000000e+00 
CELL_DATA 30
FIELD FieldData 1
I22_SENSITIVITY 1 30  float
5.7631379e+04
3.0886681e+05
8.2462506e+05
1.6471281e+06
2.5133972e+06
9.4098469e+05
-1.0551058e+06
-2.7187238e+06
-3.9467742e+06
-3.2285202e+06
-5.5961410e+04
-3.3179091e+05
-6.9101031e+05
-8.7319862e+05
-1.1852206e+06
4.6679828e+05
1.2592498e+06
1.2872132e+06
1.2479658e+06
1.0215987e+06
-1.2141459e+07
-1.0482961e+06
6.3940152e+04
-2.6022518e+06
-9.0468720e+06
2.3274290e+06
1.1794753e+07
1.1462074e+07
2.3689720e+06
-5.8189744e+05
