# vtk DataFile Version 4.0
vtk output
ASCII
DATASET UNSTRUCTURED_GRID
POINTS 5 float
0.0000000e+00 0.0000000e+00 0.0000000e+00 
1.0000000e+00 0.0000000e+00 0.0000000e+00 
2.0000000e+00 0.0000000e+00 0.0000000e+00 
5.0000000e-01 0.0000000e+00 0.0000000e+00 
1.5000000e+00 0.0000000e+00 0.0000000e+00 

CELLS 4 12
2 0 3
2 3 1
2 1 4
2 4 2

CELL_TYPES 4
3
3
3
3
POINT_DATA 5
FIELD FieldData 6
DISPLACEMENT 3 5  float
0.0000000e+00 0.0000000e+00 0.0000000e+00 
0.0000000e+00 -3.9682540e-04 0.0000000e+00 
0.0000000e+00 0.0000000e+00 0.0000000e+00 
0.0000000e+00 -2.2321429e-04 0.0000000e+00 
0.0000000e+00 -2.2321429e-04 0.0000000e+00 
REACTION 3 5  float
-5.6710365e+01 1.0000025e+04 0.0000000e+00 
-0.0000000e+00 -2.3293341e-02 0.0000000e+00 
5.6710365e+01 1.0000025e+04 0.0000000e+00 
2.1246685e+01 -1.2671553e-02 0.0000000e+00 
-2.1246685e+01 -1.2671553e-02 0.0000000e+00 
ROTATION 3 5  float
0.0000000e+00 0.0000000e+00 0.0000000e+00 
0.0000000e+00 0.0000000e+00 -2.8872848e-19 
0.0000000e+00 0.0000000e+00 0.0000000e+00 
0.0000000e+00 0.0000000e+00 -5.9523812e-04 
0.0000000e+00 0.0000000e+00 5.9523812e-04 
REACTION_MOMENT 3 5  float
0.0000000e+00 0.0000000e+00 3.1250012e+03 
0.0000000e+00 0.0000000e+00 -1.8189894e-12 
0.0000000e+00 0.0000000e+00 -3.1250012e+03 
0.0000000e+00 0.0000000e+00 -2.4319142e-03 
0.0000000e+00 0.0000000e+00 2.4319142e-03 
FORCE 3 5  float
6.0058586e+01 -7.4999990e+03 0.0000000e+00 
3.6331738e+01 0.0000000e+00 0.0000000e+00 
6.0058586e+01 7.4999990e+03 0.0000000e+00 
4.8195164e+01 -4.9999990e+03 0.0000000e+00 
4.8195164e+01 4.9999990e+03 0.0000000e+00 
MOMENT 3 5  float
0.0000000e+00 0.0000000e+00 1.6534371e+03 
0.0000000e+00 0.0000000e+00 -1.3844794e+03 
0.0000000e+00 0.0000000e+00 1.6534371e+03 
0.0000000e+00 0.0000000e+00 -1.3447830e+02 
0.0000000e+00 0.0000000e+00 -1.3447830e+02 
CELL_DATA 4
FIELD FieldData 2
FORCE 3 4  float
6.0058586e+01 -7.4999990e+03 0.0000000e+00 
3.6331738e+01 -2.4999993e+03 0.0000000e+00 
3.6331738e+01 2.4999993e+03 0.0000000e+00 
6.0058586e+01 7.4999990e+03 0.0000000e+00 
MOMENT 3 4  float
0.0000000e+00 0.0000000e+00 1.2500013e+03 
0.0000000e+00 0.0000000e+00 -1.2500009e+03 
0.0000000e+00 0.0000000e+00 -1.2500009e+03 
0.0000000e+00 0.0000000e+00 1.2500013e+03 
