# vtk DataFile Version 4.0
vtk output
ASCII
DATASET UNSTRUCTURED_GRID
POINTS 212 float
0.0000000e+00 0.0000000e+00 0.0000000e+00 
0.0000000e+00 0.0000000e+00 2.5000000e-01 
0.0000000e+00 0.0000000e+00 5.0000000e-01 
0.0000000e+00 0.0000000e+00 7.5000000e-01 
0.0000000e+00 0.0000000e+00 1.0000000e+00 
0.0000000e+00 0.0000000e+00 1.2500000e+00 
0.0000000e+00 0.0000000e+00 1.5000000e+00 
0.0000000e+00 0.0000000e+00 1.7500000e+00 
0.0000000e+00 0.0000000e+00 2.0000000e+00 
0.0000000e+00 0.0000000e+00 2.2500000e+00 
0.0000000e+00 0.0000000e+00 2.5000000e+00 
0.0000000e+00 0.0000000e+00 2.7500000e+00 
0.0000000e+00 0.0000000e+00 3.0000000e+00 
0.0000000e+00 0.0000000e+00 3.2500000e+00 
0.0000000e+00 0.0000000e+00 3.5000000e+00 
0.0000000e+00 0.0000000e+00 3.7500000e+00 
0.0000000e+00 0.0000000e+00 4.0000000e+00 
0.0000000e+00 0.0000000e+00 4.2500000e+00 
0.0000000e+00 0.0000000e+00 4.5000000e+00 
0.0000000e+00 0.0000000e+00 4.7500000e+00 
0.0000000e+00 0.0000000e+00 5.0000000e+00 
0.0000000e+00 0.0000000e+00 5.2500000e+00 
0.0000000e+00 0.0000000e+00 5.5000000e+00 
0.0000000e+00 0.0000000e+00 5.7500000e+00 
0.0000000e+00 0.0000000e+00 6.0000000e+00 
0.0000000e+00 0.0000000e+00 6.2500000e+00 
0.0000000e+00 0.0000000e+00 6.5000000e+00 
0.0000000e+00 0.0000000e+00 6.7500000e+00 
0.0000000e+00 0.0000000e+00 7.0000000e+00 
0.0000000e+00 0.0000000e+00 7.2500000e+00 
0.0000000e+00 0.0000000e+00 7.5000000e+00 
0.0000000e+00 0.0000000e+00 7.7500000e+00 
0.0000000e+00 0.0000000e+00 8.0000000e+00 
0.0000000e+00 0.0000000e+00 8.2500000e+00 
0.0000000e+00 0.0000000e+00 8.5000000e+00 
0.0000000e+00 0.0000000e+00 8.7500000e+00 
0.0000000e+00 0.0000000e+00 9.0000000e+00 
0.0000000e+00 0.0000000e+00 9.2500000e+00 
0.0000000e+00 0.0000000e+00 9.5000000e+00 
0.0000000e+00 0.0000000e+00 9.7500000e+00 
0.0000000e+00 0.0000000e+00 1.0000000e+01 
0.0000000e+00 0.0000000e+00 1.0250000e+01 
0.0000000e+00 0.0000000e+00 1.0500000e+01 
0.0000000e+00 0.0000000e+00 1.0750000e+01 
0.0000000e+00 0.0000000e+00 1.1000000e+01 
0.0000000e+00 0.0000000e+00 1.1250000e+01 
0.0000000e+00 0.0000000e+00 1.1500000e+01 
0.0000000e+00 0.0000000e+00 1.1750000e+01 
0.0000000e+00 0.0000000e+00 1.2000000e+01 
0.0000000e+00 0.0000000e+00 1.2250000e+01 
0.0000000e+00 0.0000000e+00 1.2500000e+01 
0.0000000e+00 0.0000000e+00 1.2750000e+01 
0.0000000e+00 0.0000000e+00 1.3000000e+01 
0.0000000e+00 0.0000000e+00 1.3250000e+01 
0.0000000e+00 0.0000000e+00 1.3500000e+01 
0.0000000e+00 0.0000000e+00 1.3750000e+01 
0.0000000e+00 0.0000000e+00 1.4000000e+01 
0.0000000e+00 0.0000000e+00 1.4250000e+01 
0.0000000e+00 0.0000000e+00 1.4500000e+01 
0.0000000e+00 0.0000000e+00 1.4750000e+01 
0.0000000e+00 0.0000000e+00 1.5000000e+01 
0.0000000e+00 0.0000000e+00 1.5250000e+01 
0.0000000e+00 0.0000000e+00 1.5500000e+01 
0.0000000e+00 0.0000000e+00 1.5750000e+01 
0.0000000e+00 0.0000000e+00 1.6000000e+01 
0.0000000e+00 0.0000000e+00 1.6250000e+01 
0.0000000e+00 0.0000000e+00 1.6500000e+01 
0.0000000e+00 0.0000000e+00 1.6750000e+01 
0.0000000e+00 0.0000000e+00 1.7000000e+01 
0.0000000e+00 0.0000000e+00 1.7250000e+01 
0.0000000e+00 0.0000000e+00 1.7500000e+01 
0.0000000e+00 0.0000000e+00 1.7750000e+01 
0.0000000e+00 0.0000000e+00 1.8000000e+01 
5.0000000e-01 0.0000000e+00 3.0000000e+00 
5.0000000e-01 0.0000000e+00 6.0000000e+00 
5.0000000e-01 0.0000000e+00 9.0000000e+00 
5.0000000e-01 0.0000000e+00 1.2000000e+01 
5.0000000e-01 0.0000000e+00 1.5000000e+01 
5.0000000e-01 0.0000000e+00 1.8000000e+01 
1.0000000e+00 0.0000000e+00 3.0000000e+00 
1.0000000e+00 0.0000000e+00 6.0000000e+00 
1.0000000e+00 0.0000000e+00 9.0000000e+00 
1.0000000e+00 0.0000000e+00 1.2000000e+01 
1.0000000e+00 0.0000000e+00 1.5000000e+01 
1.0000000e+00 0.0000000e+00 1.8000000e+01 
1.5000000e+00 0.0000000e+00 3.0000000e+00 
1.5000000e+00 0.0000000e+00 6.0000000e+00 
1.5000000e+00 0.0000000e+00 9.0000000e+00 
1.5000000e+00 0.0000000e+00 1.2000000e+01 
1.5000000e+00 0.0000000e+00 1.5000000e+01 
1.5000000e+00 0.0000000e+00 1.8000000e+01 
2.0000000e+00 0.0000000e+00 3.0000000e+00 
2.0000000e+00 0.0000000e+00 6.0000000e+00 
2.0000000e+00 0.0000000e+00 9.0000000e+00 
2.0000000e+00 0.0000000e+00 1.2000000e+01 
2.0000000e+00 0.0000000e+00 1.5000000e+01 
2.0000000e+00 0.0000000e+00 1.8000000e+01 
2.5000000e+00 0.0000000e+00 3.0000000e+00 
2.5000000e+00 0.0000000e+00 6.0000000e+00 
2.5000000e+00 0.0000000e+00 9.0000000e+00 
2.5000000e+00 0.0000000e+00 1.2000000e+01 
2.5000000e+00 0.0000000e+00 1.5000000e+01 
2.5000000e+00 0.0000000e+00 1.8000000e+01 
3.0000000e+00 0.0000000e+00 3.0000000e+00 
3.0000000e+00 0.0000000e+00 6.0000000e+00 
3.0000000e+00 0.0000000e+00 9.0000000e+00 
3.0000000e+00 0.0000000e+00 1.2000000e+01 
3.0000000e+00 0.0000000e+00 1.5000000e+01 
3.0000000e+00 0.0000000e+00 1.8000000e+01 
3.5000000e+00 0.0000000e+00 3.0000000e+00 
3.5000000e+00 0.0000000e+00 6.0000000e+00 
3.5000000e+00 0.0000000e+00 9.0000000e+00 
3.5000000e+00 0.0000000e+00 1.2000000e+01 
3.5000000e+00 0.0000000e+00 1.5000000e+01 
3.5000000e+00 0.0000000e+00 1.8000000e+01 
4.0000000e+00 0.0000000e+00 3.0000000e+00 
4.0000000e+00 0.0000000e+00 6.0000000e+00 
4.0000000e+00 0.0000000e+00 9.0000000e+00 
4.0000000e+00 0.0000000e+00 1.2000000e+01 
4.0000000e+00 0.0000000e+00 1.5000000e+01 
4.0000000e+00 0.0000000e+00 1.8000000e+01 
4.5000000e+00 0.0000000e+00 3.0000000e+00 
4.5000000e+00 0.0000000e+00 6.0000000e+00 
4.5000000e+00 0.0000000e+00 9.0000000e+00 
4.5000000e+00 0.0000000e+00 1.2000000e+01 
4.5000000e+00 0.0000000e+00 1.5000000e+01 
4.5000000e+00 0.0000000e+00 1.8000000e+01 
5.0000000e+00 0.0000000e+00 3.0000000e+00 
5.0000000e+00 0.0000000e+00 6.0000000e+00 
5.0000000e+00 0.0000000e+00 9.0000000e+00 
5.0000000e+00 0.0000000e+00 1.2000000e+01 
5.0000000e+00 0.0000000e+00 1.5000000e+01 
5.0000000e+00 0.0000000e+00 1.8000000e+01 
5.5000000e+00 0.0000000e+00 3.0000000e+00 
5.5000000e+00 0.0000000e+00 6.0000000e+00 
5.5000000e+00 0.0000000e+00 9.0000000e+00 
5.5000000e+00 0.0000000e+00 1.2000000e+01 
5.5000000e+00 0.0000000e+00 1.5000000e+01 
5.5000000e+00 0.0000000e+00 1.8000000e+01 
6.0000000e+00 0.0000000e+00 0.0000000e+00 
6.0000000e+00 0.0000000e+00 2.5000000e-01 
6.0000000e+00 0.0000000e+00 5.0000000e-01 
6.0000000e+00 0.0000000e+00 7.5000000e-01 
6.0000000e+00 0.0000000e+00 1.0000000e+00 
6.0000000e+00 0.0000000e+00 1.2500000e+00 
6.0000000e+00 0.0000000e+00 1.5000000e+00 
6.0000000e+00 0.0000000e+00 1.7500000e+00 
6.0000000e+00 0.0000000e+00 2.0000000e+00 
6.0000000e+00 0.0000000e+00 2.2500000e+00 
6.0000000e+00 0.0000000e+00 2.5000000e+00 
6.0000000e+00 0.0000000e+00 2.7500000e+00 
6.0000000e+00 0.0000000e+00 3.0000000e+00 
6.0000000e+00 0.0000000e+00 3.2500000e+00 
6.0000000e+00 0.0000000e+00 3.5000000e+00 
6.0000000e+00 0.0000000e+00 3.7500000e+00 
6.0000000e+00 0.0000000e+00 4.0000000e+00 
6.0000000e+00 0.0000000e+00 4.2500000e+00 
6.0000000e+00 0.0000000e+00 4.5000000e+00 
6.0000000e+00 0.0000000e+00 4.7500000e+00 
6.0000000e+00 0.0000000e+00 5.0000000e+00 
6.0000000e+00 0.0000000e+00 5.2500000e+00 
6.0000000e+00 0.0000000e+00 5.5000000e+00 
6.0000000e+00 0.0000000e+00 5.7500000e+00 
6.0000000e+00 0.0000000e+00 6.0000000e+00 
6.0000000e+00 0.0000000e+00 6.2500000e+00 
6.0000000e+00 0.0000000e+00 6.5000000e+00 
6.0000000e+00 0.0000000e+00 6.7500000e+00 
6.0000000e+00 0.0000000e+00 7.0000000e+00 
6.0000000e+00 0.0000000e+00 7.2500000e+00 
6.0000000e+00 0.0000000e+00 7.5000000e+00 
6.0000000e+00 0.0000000e+00 7.7500000e+00 
6.0000000e+00 0.0000000e+00 8.0000000e+00 
6.0000000e+00 0.0000000e+00 8.2500000e+00 
6.0000000e+00 0.0000000e+00 8.5000000e+00 
6.0000000e+00 0.0000000e+00 8.7500000e+00 
6.0000000e+00 0.0000000e+00 9.0000000e+00 
6.0000000e+00 0.0000000e+00 9.2500000e+00 
6.0000000e+00 0.0000000e+00 9.5000000e+00 
6.0000000e+00 0.0000000e+00 9.7500000e+00 
6.0000000e+00 0.0000000e+00 1.0000000e+01 
6.0000000e+00 0.0000000e+00 1.0250000e+01 
6.0000000e+00 0.0000000e+00 1.0500000e+01 
6.0000000e+00 0.0000000e+00 1.0750000e+01 
6.0000000e+00 0.0000000e+00 1.1000000e+01 
6.0000000e+00 0.0000000e+00 1.1250000e+01 
6.0000000e+00 0.0000000e+00 1.1500000e+01 
6.0000000e+00 0.0000000e+00 1.1750000e+01 
6.0000000e+00 0.0000000e+00 1.2000000e+01 
6.0000000e+00 0.0000000e+00 1.2250000e+01 
6.0000000e+00 0.0000000e+00 1.2500000e+01 
6.0000000e+00 0.0000000e+00 1.2750000e+01 
6.0000000e+00 0.0000000e+00 1.3000000e+01 
6.0000000e+00 0.0000000e+00 1.3250000e+01 
6.0000000e+00 0.0000000e+00 1.3500000e+01 
6.0000000e+00 0.0000000e+00 1.3750000e+01 
6.0000000e+00 0.0000000e+00 1.4000000e+01 
6.0000000e+00 0.0000000e+00 1.4250000e+01 
6.0000000e+00 0.0000000e+00 1.4500000e+01 
6.0000000e+00 0.0000000e+00 1.4750000e+01 
6.0000000e+00 0.0000000e+00 1.5000000e+01 
6.0000000e+00 0.0000000e+00 1.5250000e+01 
6.0000000e+00 0.0000000e+00 1.5500000e+01 
6.0000000e+00 0.0000000e+00 1.5750000e+01 
6.0000000e+00 0.0000000e+00 1.6000000e+01 
6.0000000e+00 0.0000000e+00 1.6250000e+01 
6.0000000e+00 0.0000000e+00 1.6500000e+01 
6.0000000e+00 0.0000000e+00 1.6750000e+01 
6.0000000e+00 0.0000000e+00 1.7000000e+01 
6.0000000e+00 0.0000000e+00 1.7250000e+01 
6.0000000e+00 0.0000000e+00 1.7500000e+01 
6.0000000e+00 0.0000000e+00 1.7750000e+01 
6.0000000e+00 0.0000000e+00 1.8000000e+01 

CELLS 216 648
2 0 1
2 1 2
2 2 3
2 3 4
2 4 5
2 5 6
2 6 7
2 7 8
2 8 9
2 9 10
2 10 11
2 11 12
2 12 13
2 13 14
2 14 15
2 15 16
2 16 17
2 17 18
2 18 19
2 19 20
2 20 21
2 21 22
2 22 23
2 23 24
2 24 25
2 25 26
2 26 27
2 27 28
2 28 29
2 29 30
2 30 31
2 31 32
2 32 33
2 33 34
2 34 35
2 35 36
2 36 37
2 37 38
2 38 39
2 39 40
2 40 41
2 41 42
2 42 43
2 43 44
2 44 45
2 45 46
2 46 47
2 47 48
2 48 49
2 49 50
2 50 51
2 51 52
2 52 53
2 53 54
2 54 55
2 55 56
2 56 57
2 57 58
2 58 59
2 59 60
2 60 61
2 61 62
2 62 63
2 63 64
2 64 65
2 65 66
2 66 67
2 67 68
2 68 69
2 69 70
2 70 71
2 71 72
2 139 140
2 140 141
2 141 142
2 142 143
2 143 144
2 144 145
2 145 146
2 146 147
2 147 148
2 148 149
2 149 150
2 150 151
2 151 152
2 152 153
2 153 154
2 154 155
2 155 156
2 156 157
2 157 158
2 158 159
2 159 160
2 160 161
2 161 162
2 162 163
2 163 164
2 164 165
2 165 166
2 166 167
2 167 168
2 168 169
2 169 170
2 170 171
2 171 172
2 172 173
2 173 174
2 174 175
2 175 176
2 176 177
2 177 178
2 178 179
2 179 180
2 180 181
2 181 182
2 182 183
2 183 184
2 184 185
2 185 186
2 186 187
2 187 188
2 188 189
2 189 190
2 190 191
2 191 192
2 192 193
2 193 194
2 194 195
2 195 196
2 196 197
2 197 198
2 198 199
2 199 200
2 200 201
2 201 202
2 202 203
2 203 204
2 204 205
2 205 206
2 206 207
2 207 208
2 208 209
2 209 210
2 210 211
2 12 73
2 73 79
2 79 85
2 85 91
2 91 97
2 97 103
2 103 109
2 109 115
2 115 121
2 121 127
2 127 133
2 133 151
2 24 74
2 74 80
2 80 86
2 86 92
2 92 98
2 98 104
2 104 110
2 110 116
2 116 122
2 122 128
2 128 134
2 134 163
2 36 75
2 75 81
2 81 87
2 87 93
2 93 99
2 99 105
2 105 111
2 111 117
2 117 123
2 123 129
2 129 135
2 135 175
2 48 76
2 76 82
2 82 88
2 88 94
2 94 100
2 100 106
2 106 112
2 112 118
2 118 124
2 124 130
2 130 136
2 136 187
2 60 77
2 77 83
2 83 89
2 89 95
2 95 101
2 101 107
2 107 113
2 113 119
2 119 125
2 125 131
2 131 137
2 137 199
2 72 78
2 78 84
2 84 90
2 90 96
2 96 102
2 102 108
2 108 114
2 114 120
2 120 126
2 126 132
2 132 138
2 138 211

CELL_TYPES 216
3
3
3
3
3
3
3
3
3
3
3
3
3
3
3
3
3
3
3
3
3
3
3
3
3
3
3
3
3
3
3
3
3
3
3
3
3
3
3
3
3
3
3
3
3
3
3
3
3
3
3
3
3
3
3
3
3
3
3
3
3
3
3
3
3
3
3
3
3
3
3
3
3
3
3
3
3
3
3
3
3
3
3
3
3
3
3
3
3
3
3
3
3
3
3
3
3
3
3
3
3
3
3
3
3
3
3
3
3
3
3
3
3
3
3
3
3
3
3
3
3
3
3
3
3
3
3
3
3
3
3
3
3
3
3
3
3
3
3
3
3
3
3
3
3
3
3
3
3
3
3
3
3
3
3
3
3
3
3
3
3
3
3
3
3
3
3
3
3
3
3
3
3
3
3
3
3
3
3
3
3
3
3
3
3
3
3
3
3
3
3
3
3
3
3
3
3
3
3
3
3
3
3
3
3
3
3
3
3
3
3
3
3
3
3
3
POINT_DATA 212
FIELD FieldData 8
DISPLACEMENT 3 212  float
0.0000000e+00 0.0000000e+00 0.0000000e+00 
-7.8088888e-05 0.0000000e+00 -3.2663615e-05 
-1.5292956e-04 0.0000000e+00 -6.5100365e-05 
-2.2127376e-04 0.0000000e+00 -9.7310258e-05 
-2.7987326e-04 0.0000000e+00 -1.2929329e-04 
-3.2547986e-04 0.0000000e+00 -1.6104945e-04 
-3.5484528e-04 0.0000000e+00 -1.9257877e-04 
-3.6472135e-04 0.0000000e+00 -2.2388122e-04 
-3.5185981e-04 0.0000000e+00 -2.5495680e-04 
-3.1301240e-04 0.0000000e+00 -2.8580552e-04 
-2.4493094e-04 0.0000000e+00 -3.1642738e-04 
-1.4436716e-04 0.0000000e+00 -3.4682237e-04 
-8.0728678e-06 0.0000000e+00 -3.7699053e-04 
1.1482947e-04 0.0000000e+00 -4.0419129e-04 
1.8013273e-04 0.0000000e+00 -4.3116522e-04 
1.9845822e-04 0.0000000e+00 -4.5791228e-04 
1.8042725e-04 0.0000000e+00 -4.8443244e-04 
1.3666112e-04 0.0000000e+00 -5.1072577e-04 
7.7781144e-05 0.0000000e+00 -5.3679227e-04 
1.4408616e-05 0.0000000e+00 -5.6263187e-04 
-4.2835152e-05 0.0000000e+00 -5.8824458e-04 
-8.3328850e-05 0.0000000e+00 -6.1363046e-04 
-9.6451186e-05 0.0000000e+00 -6.3878950e-04 
-7.1580842e-05 0.0000000e+00 -6.6372164e-04 
1.9034863e-06 0.0000000e+00 -6.8842695e-04 
7.8487508e-05 0.0000000e+00 -7.1016490e-04 
1.1149795e-04 0.0000000e+00 -7.3167594e-04 
1.0981764e-04 0.0000000e+00 -7.5296016e-04 
8.2329396e-05 0.0000000e+00 -7.7401754e-04 
3.7916034e-05 0.0000000e+00 -7.9484802e-04 
-1.4539618e-05 0.0000000e+00 -8.1545167e-04 
-6.6154738e-05 0.0000000e+00 -8.3582842e-04 
-1.0804651e-04 0.0000000e+00 -8.5597829e-04 
-1.3133210e-04 0.0000000e+00 -8.7590137e-04 
-1.2712869e-04 0.0000000e+00 -8.9559756e-04 
-8.6553468e-05 0.0000000e+00 -9.1506686e-04 
-7.2360405e-07 0.0000000e+00 -9.3430933e-04 
8.3928295e-05 0.0000000e+00 -9.5058442e-04 
1.2141019e-04 0.0000000e+00 -9.6663262e-04 
1.2126580e-04 0.0000000e+00 -9.8245405e-04 
9.3038820e-05 0.0000000e+00 -9.9804858e-04 
4.6272944e-05 0.0000000e+00 -1.0134162e-03 
-9.4881198e-06 0.0000000e+00 -1.0285570e-03 
-6.4700675e-05 0.0000000e+00 -1.0434709e-03 
-1.0982102e-04 0.0000000e+00 -1.0581580e-03 
-1.3530545e-04 0.0000000e+00 -1.0726182e-03 
-1.3161027e-04 0.0000000e+00 -1.0868515e-03 
-8.9191773e-05 0.0000000e+00 -1.1008580e-03 
1.4937352e-06 0.0000000e+00 -1.1146376e-03 
9.4611263e-05 0.0000000e+00 -1.1254498e-03 
1.4341630e-04 0.0000000e+00 -1.1360352e-03 
1.5608831e-04 0.0000000e+00 -1.1463937e-03 
1.4080673e-04 0.0000000e+00 -1.1565255e-03 
1.0575102e-04 0.0000000e+00 -1.1664302e-03 
5.9100625e-05 0.0000000e+00 -1.1761081e-03 
9.0349877e-06 0.0000000e+00 -1.1855593e-03 
-3.6266436e-05 0.0000000e+00 -1.1947835e-03 
-6.8624198e-05 0.0000000e+00 -1.2037809e-03 
-7.9858852e-05 0.0000000e+00 -1.2125514e-03 
-6.1790954e-05 0.0000000e+00 -1.2210950e-03 
-6.2410372e-06 0.0000000e+00 -1.2294118e-03 
3.9061397e-05 0.0000000e+00 -1.2347612e-03 
3.0186888e-05 0.0000000e+00 -1.2398837e-03 
-1.8985076e-05 0.0000000e+00 -1.2447794e-03 
-9.4575014e-05 0.0000000e+00 -1.2494483e-03 
-1.8270343e-04 0.0000000e+00 -1.2538902e-03 
-2.6949085e-04 0.0000000e+00 -1.2581053e-03 
-3.4105778e-04 0.0000000e+00 -1.2620935e-03 
-3.8352475e-04 0.0000000e+00 -1.2658549e-03 
-3.8301226e-04 0.0000000e+00 -1.2693894e-03 
-3.2564084e-04 0.0000000e+00 -1.2726971e-03 
-1.9753097e-04 0.0000000e+00 -1.2757779e-03 
1.5196812e-05 0.0000000e+00 -1.2786319e-03 
-6.7273895e-06 0.0000000e+00 -8.6350593e-04 
1.5862386e-06 0.0000000e+00 -1.0761063e-03 
-6.0300334e-07 0.0000000e+00 -1.3404804e-03 
1.2447794e-06 0.0000000e+00 -1.5328759e-03 
-5.2008645e-06 0.0000000e+00 -1.5725149e-03 
1.2664011e-05 0.0000000e+00 -1.9565856e-03 
-5.3819117e-06 0.0000000e+00 -1.5619178e-03 
1.2689909e-06 0.0000000e+00 -1.6936525e-03 
-4.8240270e-07 0.0000000e+00 -1.9731561e-03 
9.9582348e-07 0.0000000e+00 -2.1754247e-03 
-4.1606913e-06 0.0000000e+00 -2.1535894e-03 
1.0131208e-05 0.0000000e+00 -2.8116289e-03 
-4.0364339e-06 0.0000000e+00 -2.2920140e-03 
9.5174317e-07 0.0000000e+00 -2.3608529e-03 
-3.6180202e-07 0.0000000e+00 -2.6521240e-03 
7.4686761e-07 0.0000000e+00 -2.8620719e-03 
-3.1205186e-06 0.0000000e+00 -2.7924231e-03 
7.5984062e-06 0.0000000e+00 -3.6635494e-03 
-2.6909559e-06 0.0000000e+00 -2.9136292e-03 
6.3449545e-07 0.0000000e+00 -2.9375425e-03 
-2.4120135e-07 0.0000000e+00 -3.2372188e-03 
4.9791174e-07 0.0000000e+00 -3.4526519e-03 
-2.0803457e-06 0.0000000e+00 -3.3488509e-03 
5.0656040e-06 0.0000000e+00 -4.3721818e-03 
-1.3454779e-06 0.0000000e+00 -3.3266454e-03 
3.1724772e-07 0.0000000e+00 -3.3236037e-03 
-1.2060067e-07 0.0000000e+00 -3.6283231e-03 
2.4895587e-07 0.0000000e+00 -3.8470470e-03 
-1.0401728e-06 0.0000000e+00 -3.7227548e-03 
2.5328020e-06 0.0000000e+00 -4.8374087e-03 
-1.9992447e-15 0.0000000e+00 -3.4709920e-03 
-3.1461283e-15 0.0000000e+00 -3.4589651e-03 
-4.0880715e-15 0.0000000e+00 -3.7653658e-03 
-5.1578754e-15 0.0000000e+00 -3.9851866e-03 
-6.2703342e-15 0.0000000e+00 -3.8540638e-03 
-7.0614812e-15 0.0000000e+00 -4.9991589e-03 
1.3454779e-06 0.0000000e+00 -3.3266454e-03 
-3.1724772e-07 0.0000000e+00 -3.3236037e-03 
1.2060066e-07 0.0000000e+00 -3.6283231e-03 
-2.4895590e-07 0.0000000e+00 -3.8470470e-03 
1.0401728e-06 0.0000000e+00 -3.7227548e-03 
-2.5328020e-06 0.0000000e+00 -4.8374087e-03 
2.6909559e-06 0.0000000e+00 -2.9136292e-03 
-6.3449545e-07 0.0000000e+00 -2.9375425e-03 
2.4120132e-07 0.0000000e+00 -3.2372188e-03 
-4.9791174e-07 0.0000000e+00 -3.4526519e-03 
2.0803457e-06 0.0000000e+00 -3.3488509e-03 
-5.0656040e-06 0.0000000e+00 -4.3721818e-03 
4.0364339e-06 0.0000000e+00 -2.2920140e-03 
-9.5174317e-07 0.0000000e+00 -2.3608529e-03 
3.6180199e-07 0.0000000e+00 -2.6521240e-03 
-7.4686767e-07 0.0000000e+00 -2.8620719e-03 
3.1205186e-06 0.0000000e+00 -2.7924231e-03 
-7.5984062e-06 0.0000000e+00 -3.6635494e-03 
5.3819117e-06 0.0000000e+00 -1.5619178e-03 
-1.2689909e-06 0.0000000e+00 -1.6936525e-03 
4.8240270e-07 0.0000000e+00 -1.9731561e-03 
-9.9582348e-07 0.0000000e+00 -2.1754247e-03 
4.1606913e-06 0.0000000e+00 -2.1535894e-03 
-1.0131208e-05 0.0000000e+00 -2.8116289e-03 
6.7273895e-06 0.0000000e+00 -8.6350593e-04 
-1.5862386e-06 0.0000000e+00 -1.0761063e-03 
6.0300334e-07 0.0000000e+00 -1.3404804e-03 
-1.2447794e-06 0.0000000e+00 -1.5328759e-03 
5.2008641e-06 0.0000000e+00 -1.5725149e-03 
-1.2664011e-05 0.0000000e+00 -1.9565856e-03 
0.0000000e+00 0.0000000e+00 0.0000000e+00 
7.8088888e-05 0.0000000e+00 -3.2663615e-05 
1.5292956e-04 0.0000000e+00 -6.5100365e-05 
2.2127376e-04 0.0000000e+00 -9.7310258e-05 
2.7987326e-04 0.0000000e+00 -1.2929329e-04 
3.2547986e-04 0.0000000e+00 -1.6104945e-04 
3.5484528e-04 0.0000000e+00 -1.9257877e-04 
3.6472135e-04 0.0000000e+00 -2.2388122e-04 
3.5185981e-04 0.0000000e+00 -2.5495680e-04 
3.1301240e-04 0.0000000e+00 -2.8580552e-04 
2.4493094e-04 0.0000000e+00 -3.1642738e-04 
1.4436716e-04 0.0000000e+00 -3.4682237e-04 
8.0728678e-06 0.0000000e+00 -3.7699053e-04 
-1.1482947e-04 0.0000000e+00 -4.0419129e-04 
-1.8013273e-04 0.0000000e+00 -4.3116522e-04 
-1.9845822e-04 0.0000000e+00 -4.5791228e-04 
-1.8042725e-04 0.0000000e+00 -4.8443244e-04 
-1.3666112e-04 0.0000000e+00 -5.1072577e-04 
-7.7781144e-05 0.0000000e+00 -5.3679227e-04 
-1.4408616e-05 0.0000000e+00 -5.6263187e-04 
4.2835152e-05 0.0000000e+00 -5.8824458e-04 
8.3328850e-05 0.0000000e+00 -6.1363046e-04 
9.6451186e-05 0.0000000e+00 -6.3878950e-04 
7.1580842e-05 0.0000000e+00 -6.6372164e-04 
-1.9034863e-06 0.0000000e+00 -6.8842695e-04 
-7.8487508e-05 0.0000000e+00 -7.1016490e-04 
-1.1149795e-04 0.0000000e+00 -7.3167594e-04 
-1.0981764e-04 0.0000000e+00 -7.5296016e-04 
-8.2329396e-05 0.0000000e+00 -7.7401754e-04 
-3.7916034e-05 0.0000000e+00 -7.9484802e-04 
1.4539618e-05 0.0000000e+00 -8.1545167e-04 
6.6154738e-05 0.0000000e+00 -8.3582842e-04 
1.0804651e-04 0.0000000e+00 -8.5597829e-04 
1.3133210e-04 0.0000000e+00 -8.7590137e-04 
1.2712869e-04 0.0000000e+00 -8.9559756e-04 
8.6553468e-05 0.0000000e+00 -9.1506686e-04 
7.2360399e-07 0.0000000e+00 -9.3430933e-04 
-8.3928295e-05 0.0000000e+00 -9.5058442e-04 
-1.2141019e-04 0.0000000e+00 -9.6663262e-04 
-1.2126580e-04 0.0000000e+00 -9.8245405e-04 
-9.3038820e-05 0.0000000e+00 -9.9804858e-04 
-4.6272944e-05 0.0000000e+00 -1.0134162e-03 
9.4881198e-06 0.0000000e+00 -1.0285570e-03 
6.4700675e-05 0.0000000e+00 -1.0434709e-03 
1.0982102e-04 0.0000000e+00 -1.0581580e-03 
1.3530545e-04 0.0000000e+00 -1.0726182e-03 
1.3161027e-04 0.0000000e+00 -1.0868515e-03 
8.9191773e-05 0.0000000e+00 -1.1008580e-03 
-1.4937353e-06 0.0000000e+00 -1.1146376e-03 
-9.4611263e-05 0.0000000e+00 -1.1254498e-03 
-1.4341630e-04 0.0000000e+00 -1.1360352e-03 
-1.5608831e-04 0.0000000e+00 -1.1463937e-03 
-1.4080673e-04 0.0000000e+00 -1.1565255e-03 
-1.0575102e-04 0.0000000e+00 -1.1664302e-03 
-5.9100625e-05 0.0000000e+00 -1.1761081e-03 
-9.0349877e-06 0.0000000e+00 -1.1855593e-03 
3.6266436e-05 0.0000000e+00 -1.1947835e-03 
6.8624198e-05 0.0000000e+00 -1.2037809e-03 
7.9858852e-05 0.0000000e+00 -1.2125514e-03 
6.1790954e-05 0.0000000e+00 -1.2210950e-03 
6.2410372e-06 0.0000000e+00 -1.2294118e-03 
-3.9061397e-05 0.0000000e+00 -1.2347612e-03 
-3.0186888e-05 0.0000000e+00 -1.2398837e-03 
1.8985076e-05 0.0000000e+00 -1.2447794e-03 
9.4575014e-05 0.0000000e+00 -1.2494483e-03 
1.8270343e-04 0.0000000e+00 -1.2538902e-03 
2.6949085e-04 0.0000000e+00 -1.2581053e-03 
3.4105778e-04 0.0000000e+00 -1.2620935e-03 
3.8352475e-04 0.0000000e+00 -1.2658549e-03 
3.8301226e-04 0.0000000e+00 -1.2693894e-03 
3.2564084e-04 0.0000000e+00 -1.2726971e-03 
1.9753097e-04 0.0000000e+00 -1.2757779e-03 
-1.5196812e-05 0.0000000e+00 -1.2786319e-03 
ROTATION 3 212  float
0.0000000e+00 -3.1452105e-04 0.0000000e+00 
0.0000000e+00 -3.0802458e-04 0.0000000e+00 
0.0000000e+00 -2.8853520e-04 0.0000000e+00 
0.0000000e+00 -2.5605291e-04 0.0000000e+00 
0.0000000e+00 -2.1057768e-04 0.0000000e+00 
0.0000000e+00 -1.5210954e-04 0.0000000e+00 
0.0000000e+00 -8.0648482e-05 0.0000000e+00 
0.0000000e+00 3.8055045e-06 0.0000000e+00 
0.0000000e+00 1.0125241e-04 0.0000000e+00 
0.0000000e+00 2.1169224e-04 0.0000000e+00 
0.0000000e+00 3.3512499e-04 0.0000000e+00 
0.0000000e+00 4.7155065e-04 0.0000000e+00 
0.0000000e+00 6.2096922e-04 0.0000000e+00 
0.0000000e+00 3.6933032e-04 0.0000000e+00 
0.0000000e+00 1.6017664e-04 0.0000000e+00 
0.0000000e+00 -6.4918272e-06 0.0000000e+00 
0.0000000e+00 -1.3067506e-04 0.0000000e+00 
0.0000000e+00 -2.1237310e-04 0.0000000e+00 
0.0000000e+00 -2.5158588e-04 0.0000000e+00 
0.0000000e+00 -2.4831344e-04 0.0000000e+00 
0.0000000e+00 -2.0255581e-04 0.0000000e+00 
0.0000000e+00 -1.1431294e-04 0.0000000e+00 
0.0000000e+00 1.6415155e-05 0.0000000e+00 
0.0000000e+00 1.8962847e-04 0.0000000e+00 
0.0000000e+00 4.0532701e-04 0.0000000e+00 
0.0000000e+00 2.1326705e-04 0.0000000e+00 
0.0000000e+00 5.6738383e-05 0.0000000e+00 
0.0000000e+00 -6.4259002e-05 0.0000000e+00 
0.0000000e+00 -1.4972509e-04 0.0000000e+00 
0.0000000e+00 -1.9965990e-04 0.0000000e+00 
0.0000000e+00 -2.1406343e-04 0.0000000e+00 
0.0000000e+00 -1.9293565e-04 0.0000000e+00 
0.0000000e+00 -1.3627661e-04 0.0000000e+00 
0.0000000e+00 -4.4086257e-05 0.0000000e+00 
0.0000000e+00 8.3635379e-05 0.0000000e+00 
0.0000000e+00 2.4688829e-04 0.0000000e+00 
0.0000000e+00 4.4567251e-04 0.0000000e+00 
0.0000000e+00 2.3790513e-04 0.0000000e+00 
0.0000000e+00 6.8312555e-05 0.0000000e+00 
0.0000000e+00 -6.3105217e-05 0.0000000e+00 
0.0000000e+00 -1.5634818e-04 0.0000000e+00 
0.0000000e+00 -2.1141635e-04 0.0000000e+00 
0.0000000e+00 -2.2830971e-04 0.0000000e+00 
0.0000000e+00 -2.0702826e-04 0.0000000e+00 
0.0000000e+00 -1.4757202e-04 0.0000000e+00 
0.0000000e+00 -4.9940969e-05 0.0000000e+00 
0.0000000e+00 8.5864885e-05 0.0000000e+00 
0.0000000e+00 2.5984555e-04 0.0000000e+00 
0.0000000e+00 4.7200100e-04 0.0000000e+00 
0.0000000e+00 2.7839217e-04 0.0000000e+00 
0.0000000e+00 1.1750113e-04 0.0000000e+00 
0.0000000e+00 -1.0672102e-05 0.0000000e+00 
0.0000000e+00 -1.0612754e-04 0.0000000e+00 
0.0000000e+00 -1.6886518e-04 0.0000000e+00 
0.0000000e+00 -1.9888504e-04 0.0000000e+00 
0.0000000e+00 -1.9618709e-04 0.0000000e+00 
0.0000000e+00 -1.6077135e-04 0.0000000e+00 
0.0000000e+00 -9.2637805e-05 0.0000000e+00 
0.0000000e+00 8.2135357e-06 0.0000000e+00 
0.0000000e+00 1.4178267e-04 0.0000000e+00 
0.0000000e+00 3.0806960e-04 0.0000000e+00 
0.0000000e+00 6.3602864e-05 0.0000000e+00 
0.0000000e+00 -1.2534593e-04 0.0000000e+00 
0.0000000e+00 -2.5877680e-04 0.0000000e+00 
0.0000000e+00 -3.3668970e-04 0.0000000e+00 
0.0000000e+00 -3.5908469e-04 0.0000000e+00 
0.0000000e+00 -3.2596171e-04 0.0000000e+00 
0.0000000e+00 -2.3732080e-04 0.0000000e+00 
0.0000000e+00 -9.3161936e-05 0.0000000e+00 
0.0000000e+00 1.0651487e-04 0.0000000e+00 
0.0000000e+00 3.6170959e-04 0.0000000e+00 
0.0000000e+00 6.7242229e-04 0.0000000e+00 
0.0000000e+00 1.0386530e-03 0.0000000e+00 
0.0000000e+00 1.2516726e-03 0.0000000e+00 
0.0000000e+00 1.0719708e-03 0.0000000e+00 
0.0000000e+00 1.1055920e-03 0.0000000e+00 
0.0000000e+00 1.1275325e-03 0.0000000e+00 
0.0000000e+00 9.9092291e-04 0.0000000e+00 
0.0000000e+00 1.5997423e-03 0.0000000e+00 
0.0000000e+00 1.4819043e-03 0.0000000e+00 
0.0000000e+00 1.3381428e-03 0.0000000e+00 
0.0000000e+00 1.3650397e-03 0.0000000e+00 
0.0000000e+00 1.3825921e-03 0.0000000e+00 
0.0000000e+00 1.2733045e-03 0.0000000e+00 
0.0000000e+00 1.7603601e-03 0.0000000e+00 
0.0000000e+00 1.3917584e-03 0.0000000e+00 
0.0000000e+00 1.2839374e-03 0.0000000e+00 
0.0000000e+00 1.3041100e-03 0.0000000e+00 
0.0000000e+00 1.3172743e-03 0.0000000e+00 
0.0000000e+00 1.2353086e-03 0.0000000e+00 
0.0000000e+00 1.6006003e-03 0.0000000e+00 
0.0000000e+00 1.0613295e-03 0.0000000e+00 
0.0000000e+00 9.8944886e-04 0.0000000e+00 
0.0000000e+00 1.0028973e-03 0.0000000e+00 
0.0000000e+00 1.0116735e-03 0.0000000e+00 
0.0000000e+00 9.5702970e-04 0.0000000e+00 
0.0000000e+00 1.2005575e-03 0.0000000e+00 
0.0000000e+00 5.7071197e-04 0.0000000e+00 
0.0000000e+00 5.3477159e-04 0.0000000e+00 
0.0000000e+00 5.4149586e-04 0.0000000e+00 
0.0000000e+00 5.4588390e-04 0.0000000e+00 
0.0000000e+00 5.1856204e-04 0.0000000e+00 
0.0000000e+00 6.4032589e-04 0.0000000e+00 
0.0000000e+00 1.6381865e-16 0.0000000e+00 
0.0000000e+00 1.1896354e-16 0.0000000e+00 
0.0000000e+00 1.1311287e-16 0.0000000e+00 
0.0000000e+00 1.4041599e-16 0.0000000e+00 
0.0000000e+00 1.0921243e-16 0.0000000e+00 
0.0000000e+00 5.8051403e-17 0.0000000e+00 
0.0000000e+00 -5.7071197e-04 0.0000000e+00 
0.0000000e+00 -5.3477159e-04 0.0000000e+00 
0.0000000e+00 -5.4149586e-04 0.0000000e+00 
0.0000000e+00 -5.4588390e-04 0.0000000e+00 
0.0000000e+00 -5.1856204e-04 0.0000000e+00 
0.0000000e+00 -6.4032589e-04 0.0000000e+00 
0.0000000e+00 -1.0613295e-03 0.0000000e+00 
0.0000000e+00 -9.8944886e-04 0.0000000e+00 
0.0000000e+00 -1.0028973e-03 0.0000000e+00 
0.0000000e+00 -1.0116735e-03 0.0000000e+00 
0.0000000e+00 -9.5702970e-04 0.0000000e+00 
0.0000000e+00 -1.2005575e-03 0.0000000e+00 
0.0000000e+00 -1.3917584e-03 0.0000000e+00 
0.0000000e+00 -1.2839374e-03 0.0000000e+00 
0.0000000e+00 -1.3041100e-03 0.0000000e+00 
0.0000000e+00 -1.3172743e-03 0.0000000e+00 
0.0000000e+00 -1.2353086e-03 0.0000000e+00 
0.0000000e+00 -1.6006003e-03 0.0000000e+00 
0.0000000e+00 -1.4819043e-03 0.0000000e+00 
0.0000000e+00 -1.3381428e-03 0.0000000e+00 
0.0000000e+00 -1.3650397e-03 0.0000000e+00 
0.0000000e+00 -1.3825921e-03 0.0000000e+00 
0.0000000e+00 -1.2733045e-03 0.0000000e+00 
0.0000000e+00 -1.7603601e-03 0.0000000e+00 
0.0000000e+00 -1.2516726e-03 0.0000000e+00 
0.0000000e+00 -1.0719708e-03 0.0000000e+00 
0.0000000e+00 -1.1055920e-03 0.0000000e+00 
0.0000000e+00 -1.1275325e-03 0.0000000e+00 
0.0000000e+00 -9.9092291e-04 0.0000000e+00 
0.0000000e+00 -1.5997423e-03 0.0000000e+00 
0.0000000e+00 3.1452105e-04 0.0000000e+00 
0.0000000e+00 3.0802458e-04 0.0000000e+00 
0.0000000e+00 2.8853520e-04 0.0000000e+00 
0.0000000e+00 2.5605291e-04 0.0000000e+00 
0.0000000e+00 2.1057768e-04 0.0000000e+00 
0.0000000e+00 1.5210954e-04 0.0000000e+00 
0.0000000e+00 8.0648482e-05 0.0000000e+00 
0.0000000e+00 -3.8055045e-06 0.0000000e+00 
0.0000000e+00 -1.0125241e-04 0.0000000e+00 
0.0000000e+00 -2.1169224e-04 0.0000000e+00 
0.0000000e+00 -3.3512499e-04 0.0000000e+00 
0.0000000e+00 -4.7155065e-04 0.0000000e+00 
0.0000000e+00 -6.2096922e-04 0.0000000e+00 
0.0000000e+00 -3.6933032e-04 0.0000000e+00 
0.0000000e+00 -1.6017664e-04 0.0000000e+00 
0.0000000e+00 6.4918272e-06 0.0000000e+00 
0.0000000e+00 1.3067506e-04 0.0000000e+00 
0.0000000e+00 2.1237310e-04 0.0000000e+00 
0.0000000e+00 2.5158588e-04 0.0000000e+00 
0.0000000e+00 2.4831344e-04 0.0000000e+00 
0.0000000e+00 2.0255581e-04 0.0000000e+00 
0.0000000e+00 1.1431294e-04 0.0000000e+00 
0.0000000e+00 -1.6415155e-05 0.0000000e+00 
0.0000000e+00 -1.8962847e-04 0.0000000e+00 
0.0000000e+00 -4.0532701e-04 0.0000000e+00 
0.0000000e+00 -2.1326705e-04 0.0000000e+00 
0.0000000e+00 -5.6738383e-05 0.0000000e+00 
0.0000000e+00 6.4259002e-05 0.0000000e+00 
0.0000000e+00 1.4972509e-04 0.0000000e+00 
0.0000000e+00 1.9965990e-04 0.0000000e+00 
0.0000000e+00 2.1406343e-04 0.0000000e+00 
0.0000000e+00 1.9293565e-04 0.0000000e+00 
0.0000000e+00 1.3627661e-04 0.0000000e+00 
0.0000000e+00 4.4086257e-05 0.0000000e+00 
0.0000000e+00 -8.3635379e-05 0.0000000e+00 
0.0000000e+00 -2.4688829e-04 0.0000000e+00 
0.0000000e+00 -4.4567251e-04 0.0000000e+00 
0.0000000e+00 -2.3790513e-04 0.0000000e+00 
0.0000000e+00 -6.8312555e-05 0.0000000e+00 
0.0000000e+00 6.3105217e-05 0.0000000e+00 
0.0000000e+00 1.5634818e-04 0.0000000e+00 
0.0000000e+00 2.1141635e-04 0.0000000e+00 
0.0000000e+00 2.2830971e-04 0.0000000e+00 
0.0000000e+00 2.0702826e-04 0.0000000e+00 
0.0000000e+00 1.4757202e-04 0.0000000e+00 
0.0000000e+00 4.9940969e-05 0.0000000e+00 
0.0000000e+00 -8.5864885e-05 0.0000000e+00 
0.0000000e+00 -2.5984555e-04 0.0000000e+00 
0.0000000e+00 -4.7200100e-04 0.0000000e+00 
0.0000000e+00 -2.7839217e-04 0.0000000e+00 
0.0000000e+00 -1.1750113e-04 0.0000000e+00 
0.0000000e+00 1.0672102e-05 0.0000000e+00 
0.0000000e+00 1.0612754e-04 0.0000000e+00 
0.0000000e+00 1.6886518e-04 0.0000000e+00 
0.0000000e+00 1.9888504e-04 0.0000000e+00 
0.0000000e+00 1.9618709e-04 0.0000000e+00 
0.0000000e+00 1.6077135e-04 0.0000000e+00 
0.0000000e+00 9.2637805e-05 0.0000000e+00 
0.0000000e+00 -8.2135357e-06 0.0000000e+00 
0.0000000e+00 -1.4178267e-04 0.0000000e+00 
0.0000000e+00 -3.0806960e-04 0.0000000e+00 
0.0000000e+00 -6.3602864e-05 0.0000000e+00 
0.0000000e+00 1.2534593e-04 0.0000000e+00 
0.0000000e+00 2.5877680e-04 0.0000000e+00 
0.0000000e+00 3.3668970e-04 0.0000000e+00 