# vtk DataFile Version 4.0
vtk output
ASCII
DATASET UNSTRUCTURED_GRID
POINTS 212 float
0.0000000e+00 0.0000000e+00 0.0000000e+00 
0.0000000e+00 0.0000000e+00 2.5000000e-01 
0.0000000e+00 0.0000000e+00 5.0000000e-01 
0.0000000e+00 0.0000000e+00 7.5000000e-01 
0.0000000e+00 0.0000000e+00 1.0000000e+00 
0.0000000e+00 0.0000000e+00 1.2500000e+00 
0.0000000e+00 0.0000000e+00 1.5000000e+00 
0.0000000e+00 0.0000000e+00 1.7500000e+00 
0.0000000e+00 0.0000000e+00 2.0000000e+00 
0.0000000e+00 0.0000000e+00 2.2500000e+00 
0.0000000e+00 0.0000000e+00 2.5000000e+00 
0.0000000e+00 0.0000000e+00 2.7500000e+00 
0.0000000e+00 0.0000000e+00 3.0000000e+00 
0.0000000e+00 0.0000000e+00 3.2500000e+00 
0.0000000e+00 0.0000000e+00 3.5000000e+00 
0.0000000e+00 0.0000000e+00 3.7500000e+00 
0.0000000e+00 0.0000000e+00 4.0000000e+00 
0.0000000e+00 0.0000000e+00 4.2500000e+00 
0.0000000e+00 0.0000000e+00 4.5000000e+00 
0.0000000e+00 0.0000000e+00 4.7500000e+00 
0.0000000e+00 0.0000000e+00 5.0000000e+00 
0.0000000e+00 0.0000000e+00 5.2500000e+00 
0.0000000e+00 0.0000000e+00 5.5000000e+00 
0.0000000e+00 0.0000000e+00 5.7500000e+00 
0.0000000e+00 0.0000000e+00 6.0000000e+00 
0.0000000e+00 0.0000000e+00 6.2500000e+00 
0.0000000e+00 0.0000000e+00 6.5000000e+00 
0.0000000e+00 0.0000000e+00 6.7500000e+00 
0.0000000e+00 0.0000000e+00 7.0000000e+00 
0.0000000e+00 0.0000000e+00 7.2500000e+00 
0.0000000e+00 0.0000000e+00 7.5000000e+00 
0.0000000e+00 0.0000000e+00 7.7500000e+00 
0.0000000e+00 0.0000000e+00 8.0000000e+00 
0.0000000e+00 0.0000000e+00 8.2500000e+00 
0.0000000e+00 0.0000000e+00 8.5000000e+00 
0.0000000e+00 0.0000000e+00 8.7500000e+00 
0.0000000e+00 0.0000000e+00 9.0000000e+00 
0.0000000e+00 0.0000000e+00 9.2500000e+00 
0.0000000e+00 0.0000000e+00 9.5000000e+00 
0.0000000e+00 0.0000000e+00 9.7500000e+00 
0.0000000e+00 0.0000000e+00 1.0000000e+01 
0.0000000e+00 0.0000000e+00 1.0250000e+01 
0.0000000e+00 0.0000000e+00 1.0500000e+01 
0.0000000e+00 0.0000000e+00 1.0750000e+01 
0.0000000e+00 0.0000000e+00 1.1000000e+01 
0.0000000e+00 0.0000000e+00 1.1250000e+01 
0.0000000e+00 0.0000000e+00 1.1500000e+01 
0.0000000e+00 0.0000000e+00 1.1750000e+01 
0.0000000e+00 0.0000000e+00 1.2000000e+01 
0.0000000e+00 0.0000000e+00 1.2250000e+01 
0.0000000e+00 0.0000000e+00 1.2500000e+01 
0.0000000e+00 0.0000000e+00 1.2750000e+01 
0.0000000e+00 0.0000000e+00 1.3000000e+01 
0.0000000e+00 0.0000000e+00 1.3250000e+01 
0.0000000e+00 0.0000000e+00 1.3500000e+01 
0.0000000e+00 0.0000000e+00 1.3750000e+01 
0.0000000e+00 0.0000000e+00 1.4000000e+01 
0.0000000e+00 0.0000000e+00 1.4250000e+01 
0.0000000e+00 0.0000000e+00 1.4500000e+01 
0.0000000e+00 0.0000000e+00 1.4750000e+01 
0.0000000e+00 0.0000000e+00 1.5000000e+01 
0.0000000e+00 0.0000000e+00 1.5250000e+01 
0.0000000e+00 0.0000000e+00 1.5500000e+01 
0.0000000e+00 0.0000000e+00 1.5750000e+01 
0.0000000e+00 0.0000000e+00 1.6000000e+01 
0.0000000e+00 0.0000000e+00 1.6250000e+01 
0.0000000e+00 0.0000000e+00 1.6500000e+01 
0.0000000e+00 0.0000000e+00 1.6750000e+01 
0.0000000e+00 0.0000000e+00 1.7000000e+01 
0.0000000e+00 0.0000000e+00 1.7250000e+01 
0.0000000e+00 0.0000000e+00 1.7500000e+01 
0.0000000e+00 0.0000000e+00 1.7750000e+01 
0.0000000e+00 0.0000000e+00 1.8000000e+01 
5.0000000e-01 0.0000000e+00 3.0000000e+00 
5.0000000e-01 0.0000000e+00 6.0000000e+00 
5.0000000e-01 0.0000000e+00 9.0000000e+00 
5.0000000e-01 0.0000000e+00 1.2000000e+01 
5.0000000e-01 0.0000000e+00 1.5000000e+01 
5.0000000e-01 0.0000000e+00 1.8000000e+01 
1.0000000e+00 0.0000000e+00 3.0000000e+00 
1.0000000e+00 0.0000000e+00 6.0000000e+00 
1.0000000e+00 0.0000000e+00 9.0000000e+00 
1.0000000e+00 0.0000000e+00 1.2000000e+01 
1.0000000e+00 0.0000000e+00 1.5000000e+01 
1.0000000e+00 0.0000000e+00 1.8000000e+01 
1.5000000e+00 0.0000000e+00 3.0000000e+00 
1.5000000e+00 0.0000000e+00 6.0000000e+00 
1.5000000e+00 0.0000000e+00 9.0000000e+00 
1.5000000e+00 0.0000000e+00 1.2000000e+01 
1.5000000e+00 0.0000000e+00 1.5000000e+01 
1.5000000e+00 0.0000000e+00 1.8000000e+01 
2.0000000e+00 0.0000000e+00 3.0000000e+00 
2.0000000e+00 0.0000000e+00 6.0000000e+00 
2.0000000e+00 0.0000000e+00 9.0000000e+00 
2.0000000e+00 0.0000000e+00 1.2000000e+01 
2.0000000e+00 0.0000000e+00 1.5000000e+01 
2.0000000e+00 0.0000000e+00 1.8000000e+01 
2.5000000e+00 0.0000000e+00 3.0000000e+00 
2.5000000e+00 0.0000000e+00 6.0000000e+00 
2.5000000e+00 0.0000000e+00 9.0000000e+00 
2.5000000e+00 0.0000000e+00 1.2000000e+01 
2.5000000e+00 0.0000000e+00 1.5000000e+01 
2.5000000e+00 0.0000000e+00 1.8000000e+01 
3.0000000e+00 0.0000000e+00 3.0000000e+00 
3.0000000e+00 0.0000000e+00 6.0000000e+00 
3.0000000e+00 0.0000000e+00 9.0000000e+00 
3.0000000e+00 0.0000000e+00 1.2000000e+01 
3.0000000e+00 0.0000000e+00 1.5000000e+01 
3.0000000e+00 0.0000000e+00 1.8000000e+01 
3.5000000e+00 0.0000000e+00 3.0000000e+00 
3.5000000e+00 0.0000000e+00 6.0000000e+00 
3.5000000e+00 0.0000000e+00 9.0000000e+00 
3.5000000e+00 0.0000000e+00 1.2000000e+01 
3.5000000e+00 0.0000000e+00 1.5000000e+01 
3.5000000e+00 0.0000000e+00 1.8000000e+01 
4.0000000e+00 0.0000000e+00 3.0000000e+00 
4.0000000e+00 0.0000000e+00 6.0000000e+00 
4.0000000e+00 0.0000000e+00 9.0000000e+00 
4.0000000e+00 0.0000000e+00 1.2000000e+01 
4.0000000e+00 0.0000000e+00 1.5000000e+01 
4.0000000e+00 0.0000000e+00 1.8000000e+01 
4.5000000e+00 0.0000000e+00 3.0000000e+00 
4.5000000e+00 0.0000000e+00 6.0000000e+00 
4.5000000e+00 0.0000000e+00 9.0000000e+00 
4.5000000e+00 0.0000000e+00 1.2000000e+01 
4.5000000e+00 0.0000000e+00 1.5000000e+01 
4.5000000e+00 0.0000000e+00 1.8000000e+01 
5.0000000e+00 0.0000000e+00 3.0000000e+00 
5.0000000e+00 0.0000000e+00 6.0000000e+00 
5.0000000e+00 0.0000000e+00 9.0000000e+00 
5.0000000e+00 0.0000000e+00 1.2000000e+01 
5.0000000e+00 0.0000000e+00 1.5000000e+01 
5.0000000e+00 0.0000000e+00 1.8000000e+01 
5.5000000e+00 0.0000000e+00 3.0000000e+00 
5.5000000e+00 0.0000000e+00 6.0000000e+00 
5.5000000e+00 0.0000000e+00 9.0000000e+00 
5.5000000e+00 0.0000000e+00 1.2000000e+01 
5.5000000e+00 0.0000000e+00 1.5000000e+01 
5.5000000e+00 0.0000000e+00 1.8000000e+01 
6.0000000e+00 0.0000000e+00 0.0000000e+00 
6.0000000e+00 0.0000000e+00 2.5000000e-01 
6.0000000e+00 0.0000000e+00 5.0000000e-01 
6.0000000e+00 0.0000000e+00 7.5000000e-01 
6.0000000e+00 0.0000000e+00 1.0000000e+00 
6.0000000e+00 0.0000000e+00 1.2500000e+00 
6.0000000e+00 0.0000000e+00 1.5000000e+00 
6.0000000e+00 0.0000000e+00 1.7500000e+00 
6.0000000e+00 0.0000000e+00 2.0000000e+00 
6.0000000e+00 0.0000000e+00 2.2500000e+00 
6.0000000e+00 0.0000000e+00 2.5000000e+00 
6.0000000e+00 0.0000000e+00 2.7500000e+00 
6.0000000e+00 0.0000000e+00 3.0000000e+00 
6.0000000e+00 0.0000000e+00 3.2500000e+00 
6.0000000e+00 0.0000000e+00 3.5000000e+00 
6.0000000e+00 0.0000000e+00 3.7500000e+00 
6.0000000e+00 0.0000000e+00 4.0000000e+00 
6.0000000e+00 0.0000000e+00 4.2500000e+00 
6.0000000e+00 0.0000000e+00 4.5000000e+00 
6.0000000e+00 0.0000000e+00 4.7500000e+00 
6.0000000e+00 0.0000000e+00 5.0000000e+00 
6.0000000e+00 0.0000000e+00 5.2500000e+00 
6.0000000e+00 0.0000000e+00 5.5000000e+00 
6.0000000e+00 0.0000000e+00 5.7500000e+00 
6.0000000e+00 0.0000000e+00 6.0000000e+00 
6.0000000e+00 0.0000000e+00 6.2500000e+00 
6.0000000e+00 0.0000000e+00 6.5000000e+00 
6.0000000e+00 0.0000000e+00 6.7500000e+00 
6.0000000e+00 0.0000000e+00 7.0000000e+00 
6.0000000e+00 0.0000000e+00 7.2500000e+00 
6.0000000e+00 0.0000000e+00 7.5000000e+00 
6.0000000e+00 0.0000000e+00 7.7500000e+00 
6.0000000e+00 0.0000000e+00 8.0000000e+00 
6.0000000e+00 0.0000000e+00 8.2500000e+00 
6.0000000e+00 0.0000000e+00 8.5000000e+00 
6.0000000e+00 0.0000000e+00 8.7500000e+00 
6.0000000e+00 0.0000000e+00 9.0000000e+00 
6.0000000e+00 0.0000000e+00 9.2500000e+00 
6.0000000e+00 0.0000000e+00 9.5000000e+00 
6.0000000e+00 0.0000000e+00 9.7500000e+00 
6.0000000e+00 0.0000000e+00 1.0000000e+01 
6.0000000e+00 0.0000000e+00 1.0250000e+01 
6.0000000e+00 0.0000000e+00 1.0500000e+01 
6.0000000e+00 0.0000000e+00 1.0750000e+01 
6.0000000e+00 0.0000000e+00 1.1000000e+01 
6.0000000e+00 0.0000000e+00 1.1250000e+01 
6.0000000e+00 0.0000000e+00 1.1500000e+01 
6.0000000e+00 0.0000000e+00 1.1750000e+01 
6.0000000e+00 0.0000000e+00 1.2000000e+01 
6.0000000e+00 0.0000000e+00 1.2250000e+01 
6.0000000e+00 0.0000000e+00 1.2500000e+01 
6.0000000e+00 0.0000000e+00 1.2750000e+01 
6.0000000e+00 0.0000000e+00 1.3000000e+01 
6.0000000e+00 0.0000000e+00 1.3250000e+01 
6.0000000e+00 0.0000000e+00 1.3500000e+01 
6.0000000e+00 0.0000000e+00 1.3750000e+01 
6.0000000e+00 0.0000000e+00 1.4000000e+01 
6.0000000e+00 0.0000000e+00 1.4250000e+01 
6.0000000e+00 0.0000000e+00 1.4500000e+01 
6.0000000e+00 0.0000000e+00 1.4750000e+01 
6.0000000e+00 0.0000000e+00 1.5000000e+01 
6.0000000e+00 0.0000000e+00 1.5250000e+01 
6.0000000e+00 0.0000000e+00 1.5500000e+01 
6.0000000e+00 0.0000000e+00 1.5750000e+01 
6.0000000e+00 0.0000000e+00 1.6000000e+01 
6.0000000e+00 0.0000000e+00 1.6250000e+01 
6.0000000e+00 0.0000000e+00 1.6500000e+01 
6.0000000e+00 0.0000000e+00 1.6750000e+01 
6.0000000e+00 0.0000000e+00 1.7000000e+01 
6.0000000e+00 0.0000000e+00 1.7250000e+01 
6.0000000e+00 0.0000000e+00 1.7500000e+01 
6.0000000e+00 0.0000000e+00 1.7750000e+01 
6.0000000e+00 0.0000000e+00 1.8000000e+01 

CELLS 216 648
2 0 1
2 1 2
2 2 3
2 3 4
2 4 5
2 5 6
2 6 7
2 7 8
2 8 9
2 9 10
2 10 11
2 11 12
2 12 13
2 13 14
2 14 15
2 15 16
2 16 17
2 17 18
2 18 19
2 19 20
2 20 21
2 21 22
2 22 23
2 23 24
2 24 25
2 25 26
2 26 27
2 27 28
2 28 29
2 29 30
2 30 31
2 31 32
2 32 33
2 33 34
2 34 35
2 35 36
2 36 37
2 37 38
2 38 39
2 39 40
2 40 41
2 41 42
2 42 43
2 43 44
2 44 45
2 45 46
2 46 47
2 47 48
2 48 49
2 49 50
2 50 51
2 51 52
2 52 53
2 53 54
2 54 55
2 55 56
2 56 57
2 57 58
2 58 59
2 59 60
2 60 61
2 61 62
2 62 63
2 63 64
2 64 65
2 65 66
2 66 67
2 67 68
2 68 69
2 69 70
2 70 71
2 71 72
2 139 140
2 140 141
2 141 142
2 142 143
2 143 144
2 144 145
2 145 146
2 146 147
2 147 148
2 148 149
2 149 150
2 150 151
2 151 152
2 152 153
2 153 154
2 154 155
2 155 156
2 156 157
2 157 158
2 158 159
2 159 160
2 160 161
2 161 162
2 162 163
2 163 164
2 164 165
2 165 166
2 166 167
2 167 168
2 168 169
2 169 170
2 170 171
2 171 172
2 172 173
2 173 174
2 174 175
2 175 176
2 176 177
2 177 178
2 178 179
2 179 180
2 180 181
2 181 182
2 182 183
2 183 184
2 184 185
2 185 186
2 186 187
2 187 188
2 188 189
2 189 190
2 190 191
2 191 192
2 192 193
2 193 194
2 194 195
2 195 196
2 196 197
2 197 198
2 198 199
2 199 200
2 200 201
2 201 202
2 202 203
2 203 204
2 204 205
2 205 206
2 206 207
2 207 208
2 208 209
2 209 210
2 210 211
2 12 73
2 73 79
2 79 85
2 85 91
2 91 97
2 97 103
2 103 109
2 109 115
2 115 121
2 121 127
2 127 133
2 133 151
2 24 74
2 74 80
2 80 86
2 86 92
2 92 98
2 98 104
2 104 110
2 110 116
2 116 122
2 122 128
2 128 134
2 134 163
2 36 75
2 75 81
2 81 87
2 87 93
2 93 99
2 99 105
2 105 111
2 111 117
2 117 123
2 123 129
2 129 135
2 135 175
2 48 76
2 76 82
2 82 88
2 88 94
2 94 100
2 100 106
2 106 112
2 112 118
2 118 124
2 124 130
2 130 136
2 136 187
2 60 77
2 77 83
2 83 89
2 89 95
2 95 101
2 101 107
2 107 113
2 113 119
2 119 125
2 125 131
2 131 137
2 137 199
2 72 78
2 78 84
2 84 90
2 90 96
2 96 102
2 102 108
2 108 114
2 114 120
2 120 126
2 126 132
2 132 138
2 138 211

CELL_TYPES 216
3
3
3
3
3
3
3
3
3
3
3
3
3
3
3
3
3
3
3
3
3
3
3
3
3
3
3
3
3
3
3
3
3
3
3
3
3
3
3
3
3
3
3
3
3
3
3
3
3
3
3
3
3
3
3
3
3
3
3
3
3
3
3
3
3
3
3
3
3
3
3
3
3
3
3
3
3
3
3
3
3
3
3
3
3
3
3
3
3
3
3
3
3
3
3
3
3
3
3
3
3
3
3
3
3
3
3
3
3
3
3
3
3
3
3
3
3
3
3
3
3
3
3
3
3
3
3
3
3
3
3
3
3
3
3
3
3
3
3
3
3
3
3
3
3
3
3
3
3
3
3
3
3
3
3
3
3
3
3
3
3
3
3
3
3
3
3
3
3
3
3
3
3
3
3
3
3
3
3
3
3
3
3
3
3
3
3
3
3
3
3
3
3
3
3
3
3
3
3
3
3
3
3
3
3
3
3
3
3
3
3
3
3
3
3
3
POINT_DATA 212
FIELD FieldData 8
DISPLACEMENT 3 212  float
0.0000000e+00 0.0000000e+00 0.0000000e+00 
-1.9503539e-04 0.0000000e+00 -1.2712141e-05 
-3.8189878e-04 0.0000000e+00 -2.5338017e-05 
-5.5241818e-04 0.0000000e+00 -3.7877624e-05 
-6.9842162e-04 0.0000000e+00 -5.0330967e-05 
-8.1173709e-04 0.0000000e+00 -6.2698047e-05 
-8.8419259e-04 0.0000000e+00 -7.4978852e-05 
-9.0761617e-04 0.0000000e+00 -8.7173401e-05 
-8.7383576e-04 0.0000000e+00 -9.9281679e-05 
-7.7467941e-04 0.0000000e+00 -1.1130369e-04 
-6.0197519e-04 0.0000000e+00 -1.2323943e-04 
-3.4755102e-04 0.0000000e+00 -1.3508891e-04 
-3.2349199e-06 0.0000000e+00 -1.4685212e-04 
3.0670292e-04 0.0000000e+00 -1.5743838e-04 
4.7051182e-04 0.0000000e+00 -1.6793839e-04 
5.1514310e-04 0.0000000e+00 -1.7835211e-04 
4.6754788e-04 0.0000000e+00 -1.8867958e-04 
3.5467753e-04 0.0000000e+00 -1.9892077e-04 
2.0348324e-04 0.0000000e+00 -2.0907570e-04 
4.0916268e-05 0.0000000e+00 -2.1914436e-04 
-1.0607214e-04 0.0000000e+00 -2.2912676e-04 
-2.1053074e-04 0.0000000e+00 -2.3902289e-04 
-2.4550827e-04 0.0000000e+00 -2.4883277e-04 
-1.8405351e-04 0.0000000e+00 -2.5855636e-04 
7.8481366e-07 0.0000000e+00 -2.6819369e-04 
1.9394023e-04 0.0000000e+00 -2.7665409e-04 
2.7730895e-04 0.0000000e+00 -2.8502819e-04 
2.7328628e-04 0.0000000e+00 -2.9331606e-04 
2.0426746e-04 0.0000000e+00 -3.0151763e-04 
9.2647781e-05 0.0000000e+00 -3.0963295e-04 
-3.9177503e-05 0.0000000e+00 -3.1766199e-04 
-1.6881310e-04 0.0000000e+00 -3.2560478e-04 
-2.7386376e-04 0.0000000e+00 -3.3346130e-04 
-3.3193419e-04 0.0000000e+00 -3.4123156e-04 
-3.2062916e-04 0.0000000e+00 -3.4891555e-04 
-2.1755333e-04 0.0000000e+00 -3.5651325e-04 
-3.1147727e-07 0.0000000e+00 -3.6402472e-04 
2.1362951e-04 0.0000000e+00 -3.7035922e-04 
3.0800817e-04 0.0000000e+00 -3.7660747e-04 
3.0702795e-04 0.0000000e+00 -3.8276945e-04 
2.3489232e-04 0.0000000e+00 -3.8884513e-04 
1.1580471e-04 0.0000000e+00 -3.9483458e-04 
-2.6031421e-05 0.0000000e+00 -4.0073774e-04 
-1.6641263e-04 0.0000000e+00 -4.0655467e-04 
-2.8113546e-04 0.0000000e+00 -4.1228530e-04 
-3.4599646e-04 0.0000000e+00 -4.1792967e-04 
-3.3679217e-04 0.0000000e+00 -4.2348777e-04 
-2.2931918e-04 0.0000000e+00 -4.2895961e-04 
6.2598644e-07 0.0000000e+00 -4.3434519e-04 
2.3720505e-04 0.0000000e+00 -4.3855380e-04 
3.6215706e-04 0.0000000e+00 -4.4267619e-04 
3.9605156e-04 0.0000000e+00 -4.4671228e-04 
3.5945800e-04 0.0000000e+00 -4.5066210e-04 
2.7294588e-04 0.0000000e+00 -4.5452567e-04 
1.5708471e-04 0.0000000e+00 -4.5830294e-04 
3.2443972e-05 0.0000000e+00 -4.6199397e-04 
-8.0406848e-05 0.0000000e+00 -4.6559874e-04 
-1.6089826e-04 0.0000000e+00 -4.6911722e-04 
-1.8846075e-04 0.0000000e+00 -4.7254947e-04 
-1.4252483e-04 0.0000000e+00 -4.7589542e-04 
-2.5210245e-06 0.0000000e+00 -4.7915513e-04 
1.1073348e-04 0.0000000e+00 -4.8123786e-04 
8.6178108e-05 0.0000000e+00 -4.8323435e-04 
-4.0982653e-05 0.0000000e+00 -4.8514456e-04 
-2.3554434e-04 0.0000000e+00 -4.8696849e-04 
-4.6230250e-04 0.0000000e+00 -4.8870617e-04 
-6.8605266e-04 0.0000000e+00 -4.9035758e-04 
-8.7159040e-04 0.0000000e+00 -4.9192272e-04 
-9.8371122e-04 0.0000000e+00 -4.9340160e-04 
-9.8721054e-04 0.0000000e+00 -4.9479422e-04 
-8.4688404e-04 0.0000000e+00 -4.9610058e-04 
-5.2752724e-04 0.0000000e+00 -4.9732067e-04 
6.0643315e-06 0.0000000e+00 -4.9845449e-04 
-2.6957666e-06 0.0000000e+00 -1.3762425e-03 
6.5401139e-07 0.0000000e+00 -1.2473851e-03 
-2.5956439e-07 0.0000000e+00 -1.3913889e-03 
5.2165535e-07 0.0000000e+00 -1.4937178e-03 
-2.1008539e-06 0.0000000e+00 -1.3453772e-03 
5.0536096e-06 0.0000000e+00 -2.2053509e-03 
-2.1566132e-06 0.0000000e+00 -3.1418998e-03 
5.2320911e-07 0.0000000e+00 -2.8083341e-03 
-2.0765151e-07 0.0000000e+00 -2.9917520e-03 
4.1732429e-07 0.0000000e+00 -3.1202696e-03 
-1.6806830e-06 0.0000000e+00 -2.8138969e-03 
4.0428877e-06 0.0000000e+00 -4.3616947e-03 
-1.6174599e-06 0.0000000e+00 -4.9879486e-03 
3.9240683e-07 0.0000000e+00 -4.4951653e-03 
-1.5573863e-07 0.0000000e+00 -4.7092387e-03 
3.1299322e-07 0.0000000e+00 -4.8581250e-03 
-1.2605122e-06 0.0000000e+00 -4.4288384e-03 
3.0321658e-06 0.0000000e+00 -6.5116109e-03 
-1.0783066e-06 0.0000000e+00 -6.5598185e-03 
2.6160455e-07 0.0000000e+00 -5.9533087e-03 
-1.0382576e-07 0.0000000e+00 -6.1892788e-03 
2.0866214e-07 0.0000000e+00 -6.3527147e-03 
-8.4034150e-07 0.0000000e+00 -5.8356323e-03 
2.0214438e-06 0.0000000e+00 -8.3005289e-03 
-5.3915329e-07 0.0000000e+00 -7.6042465e-03 
1.3080228e-07 0.0000000e+00 -6.9295005e-03 
-5.1912874e-08 0.0000000e+00 -7.1786088e-03 
1.0433107e-07 0.0000000e+00 -7.3507740e-03 
-4.2017075e-07 0.0000000e+00 -6.7810141e-03 
1.0107219e-06 0.0000000e+00 -9.4751855e-03 
1.3954085e-15 0.0000000e+00 -7.9692733e-03 
1.7278947e-15 0.0000000e+00 -7.2717820e-03 
2.1913378e-15 0.0000000e+00 -7.5252694e-03 
2.9828992e-15 0.0000000e+00 -7.7003445e-03 
3.5786676e-15 0.0000000e+00 -7.1130255e-03 
3.9759066e-15 0.0000000e+00 -9.8836226e-03 
5.3915329e-07 0.0000000e+00 -7.6042465e-03 
-1.3080228e-07 0.0000000e+00 -6.9295005e-03 
5.1912881e-08 0.0000000e+00 -7.1786088e-03 
-1.0433106e-07 0.0000000e+00 -7.3507740e-03 
4.2017078e-07 0.0000000e+00 -6.7810141e-03 
-1.0107219e-06 0.0000000e+00 -9.4751855e-03 
1.0783066e-06 0.0000000e+00 -6.5598185e-03 
-2.6160455e-07 0.0000000e+00 -5.9533087e-03 
1.0382576e-07 0.0000000e+00 -6.1892788e-03 
-2.0866213e-07 0.0000000e+00 -6.3527147e-03 
8.4034156e-07 0.0000000e+00 -5.8356323e-03 
-2.0214438e-06 0.0000000e+00 -8.3005289e-03 
1.6174599e-06 0.0000000e+00 -4.9879486e-03 
-3.9240683e-07 0.0000000e+00 -4.4951653e-03 
1.5573863e-07 0.0000000e+00 -4.7092387e-03 
-3.1299319e-07 0.0000000e+00 -4.8581250e-03 
1.2605122e-06 0.0000000e+00 -4.4288384e-03 
-3.0321658e-06 0.0000000e+00 -6.5116109e-03 
2.1566132e-06 0.0000000e+00 -3.1418998e-03 
-5.2320911e-07 0.0000000e+00 -2.8083341e-03 
2.0765151e-07 0.0000000e+00 -2.9917520e-03 
-4.1732429e-07 0.0000000e+00 -3.1202696e-03 
1.6806831e-06 0.0000000e+00 -2.8138969e-03 
-4.0428877e-06 0.0000000e+00 -4.3616947e-03 
2.6957666e-06 0.0000000e+00 -1.3762425e-03 
-6.5401139e-07 0.0000000e+00 -1.2473851e-03 
2.5956439e-07 0.0000000e+00 -1.3913889e-03 
-5.2165535e-07 0.0000000e+00 -1.4937178e-03 
2.1008539e-06 0.0000000e+00 -1.3453772e-03 
-5.0536096e-06 0.0000000e+00 -2.2053509e-03 
0.0000000e+00 0.0000000e+00 0.0000000e+00 
1.9503539e-04 0.0000000e+00 -1.2712141e-05 
3.8189878e-04 0.0000000e+00 -2.5338017e-05 
5.5241818e-04 0.0000000e+00 -3.7877624e-05 
6.9842162e-04 0.0000000e+00 -5.0330967e-05 
8.1173709e-04 0.0000000e+00 -6.2698047e-05 
8.8419259e-04 0.0000000e+00 -7.4978852e-05 
9.0761617e-04 0.0000000e+00 -8.7173401e-05 
8.7383576e-04 0.0000000e+00 -9.9281679e-05 
7.7467941e-04 0.0000000e+00 -1.1130369e-04 
6.0197519e-04 0.0000000e+00 -1.2323943e-04 
3.4755102e-04 0.0000000e+00 -1.3508891e-04 
3.2349199e-06 0.0000000e+00 -1.4685212e-04 
-3.0670292e-04 0.0000000e+00 -1.5743838e-04 
-4.7051182e-04 0.0000000e+00 -1.6793839e-04 
-5.1514310e-04 0.0000000e+00 -1.7835211e-04 
-4.6754788e-04 0.0000000e+00 -1.8867958e-04 
-3.5467753e-04 0.0000000e+00 -1.9892077e-04 
-2.0348324e-04 0.0000000e+00 -2.0907570e-04 
-4.0916268e-05 0.0000000e+00 -2.1914436e-04 
1.0607214e-04 0.0000000e+00 -2.2912676e-04 
2.1053074e-04 0.0000000e+00 -2.3902289e-04 
2.4550827e-04 0.0000000e+00 -2.4883277e-04 
1.8405351e-04 0.0000000e+00 -2.5855636e-04 
-7.8481366e-07 0.0000000e+00 -2.6819369e-04 
-1.9394023e-04 0.0000000e+00 -2.7665409e-04 
-2.7730895e-04 0.0000000e+00 -2.8502819e-04 
-2.7328628e-04 0.0000000e+00 -2.9331606e-04 
-2.0426746e-04 0.0000000e+00 -3.0151763e-04 
-9.2647781e-05 0.0000000e+00 -3.0963295e-04 
3.9177503e-05 0.0000000e+00 -3.1766199e-04 
1.6881310e-04 0.0000000e+00 -3.2560478e-04 
2.7386376e-04 0.0000000e+00 -3.3346130e-04 
3.3193419e-04 0.0000000e+00 -3.4123156e-04 
3.2062916e-04 0.0000000e+00 -3.4891555e-04 
2.1755333e-04 0.0000000e+00 -3.5651325e-04 
3.1147727e-07 0.0000000e+00 -3.6402472e-04 
-2.1362951e-04 0.0000000e+00 -3.7035922e-04 
-3.0800817e-04 0.0000000e+00 -3.7660747e-04 
-3.0702795e-04 0.0000000e+00 -3.8276945e-04 
-2.3489232e-04 0.0000000e+00 -3.8884513e-04 
-1.1580471e-04 0.0000000e+00 -3.9483458e-04 
2.6031421e-05 0.0000000e+00 -4.0073774e-04 
1.6641263e-04 0.0000000e+00 -4.0655467e-04 
2.8113546e-04 0.0000000e+00 -4.1228530e-04 
3.4599646e-04 0.0000000e+00 -4.1792967e-04 
3.3679217e-04 0.0000000e+00 -4.2348777e-04 
2.2931918e-04 0.0000000e+00 -4.2895961e-04 
-6.2598639e-07 0.0000000e+00 -4.3434519e-04 
-2.3720505e-04 0.0000000e+00 -4.3855380e-04 
-3.6215706e-04 0.0000000e+00 -4.4267619e-04 
-3.9605156e-04 0.0000000e+00 -4.4671228e-04 
-3.5945800e-04 0.0000000e+00 -4.5066210e-04 
-2.7294588e-04 0.0000000e+00 -4.5452567e-04 
-1.5708471e-04 0.0000000e+00 -4.5830294e-04 
-3.2443972e-05 0.0000000e+00 -4.6199397e-04 
8.0406848e-05 0.0000000e+00 -4.6559874e-04 
1.6089826e-04 0.0000000e+00 -4.6911722e-04 
1.8846075e-04 0.0000000e+00 -4.7254947e-04 
1.4252483e-04 0.0000000e+00 -4.7589542e-04 
2.5210245e-06 0.0000000e+00 -4.7915513e-04 
-1.1073348e-04 0.0000000e+00 -4.8123786e-04 
-8.6178108e-05 0.0000000e+00 -4.8323435e-04 
4.0982653e-05 0.0000000e+00 -4.8514456e-04 
2.3554434e-04 0.0000000e+00 -4.8696849e-04 
4.6230250e-04 0.0000000e+00 -4.8870617e-04 
6.8605266e-04 0.0000000e+00 -4.9035758e-04 
8.7159040e-04 0.0000000e+00 -4.9192272e-04 
9.8371122e-04 0.0000000e+00 -4.9340160e-04 
9.8721054e-04 0.0000000e+00 -4.9479422e-04 
8.4688404e-04 0.0000000e+00 -4.9610058e-04 
5.2752724e-04 0.0000000e+00 -4.9732067e-04 
-6.0643315e-06 0.0000000e+00 -4.9845449e-04 
ROTATION 3 212  float
0.0000000e+00 -7.8558957e-04 0.0000000e+00 
0.0000000e+00 -7.6924555e-04 0.0000000e+00 
0.0000000e+00 -7.2021363e-04 0.0000000e+00 
0.0000000e+00 -6.3849369e-04 0.0000000e+00 
0.0000000e+00 -5.2408577e-04 0.0000000e+00 
0.0000000e+00 -3.7698995e-04 0.0000000e+00 
0.0000000e+00 -1.9720611e-04 0.0000000e+00 
0.0000000e+00 1.5265678e-05 0.0000000e+00 
0.0000000e+00 2.6042544e-04 0.0000000e+00 
0.0000000e+00 5.3827319e-04 0.0000000e+00 
0.0000000e+00 8.4880885e-04 0.0000000e+00 
0.0000000e+00 1.1920325e-03 0.0000000e+00 
0.0000000e+00 1.5679442e-03 0.0000000e+00 
0.0000000e+00 9.2952600e-04 0.0000000e+00 
0.0000000e+00 3.9891282e-04 0.0000000e+00 
0.0000000e+00 -2.3895374e-05 0.0000000e+00 
0.0000000e+00 -3.3889856e-04 0.0000000e+00 
0.0000000e+00 -5.4609677e-04 0.0000000e+00 
0.0000000e+00 -6.4549001e-04 0.0000000e+00 
0.0000000e+00 -6.3707825e-04 0.0000000e+00 
0.0000000e+00 -5.2086153e-04 0.0000000e+00 
0.0000000e+00 -2.9683977e-04 0.0000000e+00 
0.0000000e+00 3.4986959e-05 0.0000000e+00 
0.0000000e+00 4.7461866e-04 0.0000000e+00 
0.0000000e+00 1.0220554e-03 0.0000000e+00 
0.0000000e+00 5.3811813e-04 0.0000000e+00 
0.0000000e+00 1.4376192e-04 0.0000000e+00 
0.0000000e+00 -1.6101317e-04 0.0000000e+00 
0.0000000e+00 -3.7620717e-04 0.0000000e+00 
0.0000000e+00 -5.0182012e-04 0.0000000e+00 
0.0000000e+00 -5.3785194e-04 0.0000000e+00 
0.0000000e+00 -4.8430270e-04 0.0000000e+00 
0.0000000e+00 -3.4117236e-04 0.0000000e+00 
0.0000000e+00 -1.0846095e-04 0.0000000e+00 
0.0000000e+00 2.1383156e-04 0.0000000e+00 
0.0000000e+00 6.2570517e-04 0.0000000e+00 
0.0000000e+00 1.1271598e-03 0.0000000e+00 
0.0000000e+00 6.0050364e-04 0.0000000e+00 
0.0000000e+00 1.7066127e-04 0.0000000e+00 
0.0000000e+00 -1.6236733e-04 0.0000000e+00 
0.0000000e+00 -3.9858211e-04 0.0000000e+00 
0.0000000e+00 -5.3798308e-04 0.0000000e+00 
0.0000000e+00 -5.8057031e-04 0.0000000e+00 
0.0000000e+00 -5.2634371e-04 0.0000000e+00 
0.0000000e+00 -3.7530329e-04 0.0000000e+00 
0.0000000e+00 -1.2744909e-04 0.0000000e+00 
0.0000000e+00 2.1721891e-04 0.0000000e+00 
0.0000000e+00 6.5870071e-04 0.0000000e+00 
0.0000000e+00 1.1969963e-03 0.0000000e+00 
0.0000000e+00 7.0934917e-04 0.0000000e+00 
0.0000000e+00 3.0398005e-04 0.0000000e+00 
0.0000000e+00 -1.9111139e-05 0.0000000e+00 
0.0000000e+00 -2.5992433e-04 0.0000000e+00 
0.0000000e+00 -4.1845956e-04 0.0000000e+00 
0.0000000e+00 -4.9471681e-04 0.0000000e+00 
0.0000000e+00 -4.8869610e-04 0.0000000e+00 
0.0000000e+00 -4.0039743e-04 0.0000000e+00 
0.0000000e+00 -2.2982078e-04 0.0000000e+00 
0.0000000e+00 2.3033843e-05 0.0000000e+00 
0.0000000e+00 3.5816644e-04 0.0000000e+00 
0.0000000e+00 7.7557703e-04 0.0000000e+00 
0.0000000e+00 1.5392863e-04 0.0000000e+00 
0.0000000e+00 -3.2690191e-04 0.0000000e+00 
0.0000000e+00 -6.6691457e-04 0.0000000e+00 
0.0000000e+00 -8.6610939e-04 0.0000000e+00 
0.0000000e+00 -9.2448632e-04 0.0000000e+00 
0.0000000e+00 -8.4204541e-04 0.0000000e+00 
0.0000000e+00 -6.1878661e-04 0.0000000e+00 
0.0000000e+00 -2.5470994e-04 0.0000000e+00 
0.0000000e+00 2.5018456e-04 0.0000000e+00 
0.0000000e+00 8.9589693e-04 0.0000000e+00 
0.0000000e+00 1.6824271e-03 0.0000000e+00 
0.0000000e+00 2.6097752e-03 0.0000000e+00 
0.0000000e+00 3.1638904e-03 0.0000000e+00 
0.0000000e+00 2.7089831e-03 0.0000000e+00 
0.0000000e+00 2.7965701e-03 0.0000000e+00 
0.0000000e+00 2.8547673e-03 0.0000000e+00 
0.0000000e+00 2.5035844e-03 0.0000000e+00 
0.0000000e+00 4.0320829e-03 0.0000000e+00 
0.0000000e+00 3.7467801e-03 0.0000000e+00 
0.0000000e+00 3.3828542e-03 0.0000000e+00 
0.0000000e+00 3.4529238e-03 0.0000000e+00 
0.0000000e+00 3.4994816e-03 0.0000000e+00 
0.0000000e+00 3.2185353e-03 0.0000000e+00 
0.0000000e+00 4.4413339e-03 0.0000000e+00 
0.0000000e+00 3.5192247e-03 0.0000000e+00 
0.0000000e+00 3.2462801e-03 0.0000000e+00 
0.0000000e+00 3.2988323e-03 0.0000000e+00 
0.0000000e+00 3.3337506e-03 0.0000000e+00 
0.0000000e+00 3.1230410e-03 0.0000000e+00 
0.0000000e+00 4.0401402e-03 0.0000000e+00 
0.0000000e+00 2.6838353e-03 0.0000000e+00 
0.0000000e+00 2.5018724e-03 0.0000000e+00 
0.0000000e+00 2.5369071e-03 0.0000000e+00 
0.0000000e+00 2.5601860e-03 0.0000000e+00 
0.0000000e+00 2.4197130e-03 0.0000000e+00 
0.0000000e+00 3.0311123e-03 0.0000000e+00 
0.0000000e+00 1.4432232e-03 0.0000000e+00 
0.0000000e+00 1.3522418e-03 0.0000000e+00 
0.0000000e+00 1.3697592e-03 0.0000000e+00 
0.0000000e+00 1.3813986e-03 0.0000000e+00 
0.0000000e+00 1.3111620e-03 0.0000000e+00 
0.0000000e+00 1.6168618e-03 0.0000000e+00 
0.0000000e+00 -4.9375945e-18 0.0000000e+00 
0.0000000e+00 -9.8751890e-18 0.0000000e+00 
0.0000000e+00 -6.9126319e-17 0.0000000e+00 
0.0000000e+00 -1.1850227e-16 0.0000000e+00 
0.0000000e+00 -3.4563160e-17 0.0000000e+00 
0.0000000e+00 -1.3743176e-16 0.0000000e+00 
0.0000000e+00 -1.4432232e-03 0.0000000e+00 
0.0000000e+00 -1.3522418e-03 0.0000000e+00 
0.0000000e+00 -1.3697592e-03 0.0000000e+00 
0.0000000e+00 -1.3813986e-03 0.0000000e+00 
0.0000000e+00 -1.3111620e-03 0.0000000e+00 
0.0000000e+00 -1.6168618e-03 0.0000000e+00 
0.0000000e+00 -2.6838353e-03 0.0000000e+00 
0.0000000e+00 -2.5018724e-03 0.0000000e+00 
0.0000000e+00 -2.5369071e-03 0.0000000e+00 
0.0000000e+00 -2.5601860e-03 0.0000000e+00 
0.0000000e+00 -2.4197130e-03 0.0000000e+00 
0.0000000e+00 -3.0311123e-03 0.0000000e+00 
0.0000000e+00 -3.5192247e-03 0.0000000e+00 
0.0000000e+00 -3.2462801e-03 0.0000000e+00 
0.0000000e+00 -3.2988323e-03 0.0000000e+00 
0.0000000e+00 -3.3337506e-03 0.0000000e+00 
0.0000000e+00 -3.1230410e-03 0.0000000e+00 
0.0000000e+00 -4.0401402e-03 0.0000000e+00 
0.0000000e+00 -3.7467801e-03 0.0000000e+00 
0.0000000e+00 -3.3828542e-03 0.0000000e+00 
0.0000000e+00 -3.4529238e-03 0.0000000e+00 
0.0000000e+00 -3.4994816e-03 0.0000000e+00 
0.0000000e+00 -3.2185353e-03 0.0000000e+00 
0.0000000e+00 -4.4413339e-03 0.0000000e+00 
0.0000000e+00 -3.1638904e-03 0.0000000e+00 
0.0000000e+00 -2.7089831e-03 0.0000000e+00 
0.0000000e+00 -2.7965701e-03 0.0000000e+00 
0.0000000e+00 -2.8547673e-03 0.0000000e+00 
0.0000000e+00 -2.5035844e-03 0.0000000e+00 
0.0000000e+00 -4.0320829e-03 0.0000000e+00 
0.0000000e+00 7.8558957e-04 0.0000000e+00 
0.0000000e+00 7.6924555e-04 0.0000000e+00 
0.0000000e+00 7.2021363e-04 0.0000000e+00 
0.0000000e+00 6.3849369e-04 0.0000000e+00 
0.0000000e+00 5.2408577e-04 0.0000000e+00 
0.0000000e+00 3.7698995e-04 0.0000000e+00 
0.0000000e+00 1.9720611e-04 0.0000000e+00 
0.0000000e+00 -1.5265678e-05 0.0000000e+00 
0.0000000e+00 -2.6042544e-04 0.0000000e+00 
0.0000000e+00 -5.3827319e-04 0.0000000e+00 
0.0000000e+00 -8.4880885e-04 0.0000000e+00 
0.0000000e+00 -1.1920325e-03 0.0000000e+00 
0.0000000e+00 -1.5679442e-03 0.0000000e+00 
0.0000000e+00 -9.2952600e-04 0.0000000e+00 
0.0000000e+00 -3.9891282e-04 0.0000000e+00 
0.0000000e+00 2.3895374e-05 0.0000000e+00 
0.0000000e+00 3.3889856e-04 0.0000000e+00 
0.0000000e+00 5.4609677e-04 0.0000000e+00 
0.0000000e+00 6.4549001e-04 0.0000000e+00 
0.0000000e+00 6.3707825e-04 0.0000000e+00 
0.0000000e+00 5.2086153e-04 0.0000000e+00 
0.0000000e+00 2.9683977e-04 0.0000000e+00 
0.0000000e+00 -3.4986959e-05 0.0000000e+00 
0.0000000e+00 -4.7461866e-04 0.0000000e+00 
0.0000000e+00 -1.0220554e-03 0.0000000e+00 
0.0000000e+00 -5.3811813e-04 0.0000000e+00 
0.0000000e+00 -1.4376192e-04 0.0000000e+00 
0.0000000e+00 1.6101317e-04 0.0000000e+00 
0.0000000e+00 3.7620717e-04 0.0000000e+00 
0.0000000e+00 5.0182012e-04 0.0000000e+00 
0.0000000e+00 5.3785194e-04 0.0000000e+00 
0.0000000e+00 4.8430270e-04 0.0000000e+00 
0.0000000e+00 3.4117236e-04 0.0000000e+00 
0.0000000e+00 1.0846095e-04 0.0000000e+00 
0.0000000e+00 -2.1383156e-04 0.0000000e+00 
0.0000000e+00 -6.2570517e-04 0.0000000e+00 
0.0000000e+00 -1.1271598e-03 0.0000000e+00 
0.0000000e+00 -6.0050364e-04 0.0000000e+00 
0.0000000e+00 -1.7066127e-04 0.0000000e+00 
0.0000000e+00 1.6236733e-04 0.0000000e+00 
0.0000000e+00 3.9858211e-04 0.0000000e+00 
0.0000000e+00 5.3798308e-04 0.0000000e+00 
0.0000000e+00 5.8057031e-04 0.0000000e+00 
0.0000000e+00 5.2634371e-04 0.0000000e+00 
0.0000000e+00 3.7530329e-04 0.0000000e+00 
0.0000000e+00 1.2744909e-04 0.0000000e+00 
0.0000000e+00 -2.1721891e-04 0.0000000e+00 
0.0000000e+00 -6.5870071e-04 0.0000000e+00 
0.0000000e+00 -1.1969963e-03 0.0000000e+00 
0.0000000e+00 -7.0934917e-04 0.0000000e+00 
0.0000000e+00 -3.0398005e-04 0.0000000e+00 
0.0000000e+00 1.9111139e-05 0.0000000e+00 
0.0000000e+00 2.5992433e-04 0.0000000e+00 
0.0000000e+00 4.1845956e-04 0.0000000e+00 
0.0000000e+00 4.9471681e-04 0.0000000e+00 
0.0000000e+00 4.8869610e-04 0.0000000e+00 
0.0000000e+00 4.0039743e-04 0.0000000e+00 
0.0000000e+00 2.2982078e-04 0.0000000e+00 
0.0000000e+00 -2.3033843e-05 0.0000000e+00 
0.0000000e+00 -3.5816644e-04 0.0000000e+00 
0.0000000e+00 -7.7557703e-04 0.0000000e+00 
0.0000000e+00 -1.5392863e-04 0.0000000e+00 
0.0000000e+00 3.2690191e-04 0.0000000e+00 
0.0000000e+00 6.6691457e-04 0.0000000e+00 
0.0000000e+00 8.6610939e-04 0.0000000e+00 