# vtk DataFile Version 4.0
vtk output
ASCII
DATASET UNSTRUCTURED_GRID
POINTS 212 float
0.0000000e+00 0.0000000e+00 0.0000000e+00 
0.0000000e+00 0.0000000e+00 2.5000000e-01 
0.0000000e+00 0.0000000e+00 5.0000000e-01 
0.0000000e+00 0.0000000e+00 7.5000000e-01 
0.0000000e+00 0.0000000e+00 1.0000000e+00 
0.0000000e+00 0.0000000e+00 1.2500000e+00 
0.0000000e+00 0.0000000e+00 1.5000000e+00 
0.0000000e+00 0.0000000e+00 1.7500000e+00 
0.0000000e+00 0.0000000e+00 2.0000000e+00 
0.0000000e+00 0.0000000e+00 2.2500000e+00 
0.0000000e+00 0.0000000e+00 2.5000000e+00 
0.0000000e+00 0.0000000e+00 2.7500000e+00 
0.0000000e+00 0.0000000e+00 3.0000000e+00 
0.0000000e+00 0.0000000e+00 3.2500000e+00 
0.0000000e+00 0.0000000e+00 3.5000000e+00 
0.0000000e+00 0.0000000e+00 3.7500000e+00 
0.0000000e+00 0.0000000e+00 4.0000000e+00 
0.0000000e+00 0.0000000e+00 4.2500000e+00 
0.0000000e+00 0.0000000e+00 4.5000000e+00 
0.0000000e+00 0.0000000e+00 4.7500000e+00 
0.0000000e+00 0.0000000e+00 5.0000000e+00 
0.0000000e+00 0.0000000e+00 5.2500000e+00 
0.0000000e+00 0.0000000e+00 5.5000000e+00 
0.0000000e+00 0.0000000e+00 5.7500000e+00 
0.0000000e+00 0.0000000e+00 6.0000000e+00 
0.0000000e+00 0.0000000e+00 6.2500000e+00 
0.0000000e+00 0.0000000e+00 6.5000000e+00 
0.0000000e+00 0.0000000e+00 6.7500000e+00 
0.0000000e+00 0.0000000e+00 7.0000000e+00 
0.0000000e+00 0.0000000e+00 7.2500000e+00 
0.0000000e+00 0.0000000e+00 7.5000000e+00 
0.0000000e+00 0.0000000e+00 7.7500000e+00 
0.0000000e+00 0.0000000e+00 8.0000000e+00 
0.0000000e+00 0.0000000e+00 8.2500000e+00 
0.0000000e+00 0.0000000e+00 8.5000000e+00 
0.0000000e+00 0.0000000e+00 8.7500000e+00 
0.0000000e+00 0.0000000e+00 9.0000000e+00 
0.0000000e+00 0.0000000e+00 9.2500000e+00 
0.0000000e+00 0.0000000e+00 9.5000000e+00 
0.0000000e+00 0.0000000e+00 9.7500000e+00 
0.0000000e+00 0.0000000e+00 1.0000000e+01 
0.0000000e+00 0.0000000e+00 1.0250000e+01 
0.0000000e+00 0.0000000e+00 1.0500000e+01 
0.0000000e+00 0.0000000e+00 1.0750000e+01 
0.0000000e+00 0.0000000e+00 1.1000000e+01 
0.0000000e+00 0.0000000e+00 1.1250000e+01 
0.0000000e+00 0.0000000e+00 1.1500000e+01 
0.0000000e+00 0.0000000e+00 1.1750000e+01 
0.0000000e+00 0.0000000e+00 1.2000000e+01 
0.0000000e+00 0.0000000e+00 1.2250000e+01 
0.0000000e+00 0.0000000e+00 1.2500000e+01 
0.0000000e+00 0.0000000e+00 1.2750000e+01 
0.0000000e+00 0.0000000e+00 1.3000000e+01 
0.0000000e+00 0.0000000e+00 1.3250000e+01 
0.0000000e+00 0.0000000e+00 1.3500000e+01 
0.0000000e+00 0.0000000e+00 1.3750000e+01 
0.0000000e+00 0.0000000e+00 1.4000000e+01 
0.0000000e+00 0.0000000e+00 1.4250000e+01 
0.0000000e+00 0.0000000e+00 1.4500000e+01 
0.0000000e+00 0.0000000e+00 1.4750000e+01 
0.0000000e+00 0.0000000e+00 1.5000000e+01 
0.0000000e+00 0.0000000e+00 1.5250000e+01 
0.0000000e+00 0.0000000e+00 1.5500000e+01 
0.0000000e+00 0.0000000e+00 1.5750000e+01 
0.0000000e+00 0.0000000e+00 1.6000000e+01 
0.0000000e+00 0.0000000e+00 1.6250000e+01 
0.0000000e+00 0.0000000e+00 1.6500000e+01 
0.0000000e+00 0.0000000e+00 1.6750000e+01 
0.0000000e+00 0.0000000e+00 1.7000000e+01 
0.0000000e+00 0.0000000e+00 1.7250000e+01 
0.0000000e+00 0.0000000e+00 1.7500000e+01 
0.0000000e+00 0.0000000e+00 1.7750000e+01 
0.0000000e+00 0.0000000e+00 1.8000000e+01 
5.0000000e-01 0.0000000e+00 3.0000000e+00 
5.0000000e-01 0.0000000e+00 6.0000000e+00 
5.0000000e-01 0.0000000e+00 9.0000000e+00 
5.0000000e-01 0.0000000e+00 1.2000000e+01 
5.0000000e-01 0.0000000e+00 1.5000000e+01 
5.0000000e-01 0.0000000e+00 1.8000000e+01 
1.0000000e+00 0.0000000e+00 3.0000000e+00 
1.0000000e+00 0.0000000e+00 6.0000000e+00 
1.0000000e+00 0.0000000e+00 9.0000000e+00 
1.0000000e+00 0.0000000e+00 1.2000000e+01 
1.0000000e+00 0.0000000e+00 1.5000000e+01 
1.0000000e+00 0.0000000e+00 1.8000000e+01 
1.5000000e+00 0.0000000e+00 3.0000000e+00 
1.5000000e+00 0.0000000e+00 6.0000000e+00 
1.5000000e+00 0.0000000e+00 9.0000000e+00 
1.5000000e+00 0.0000000e+00 1.2000000e+01 
1.5000000e+00 0.0000000e+00 1.5000000e+01 
1.5000000e+00 0.0000000e+00 1.8000000e+01 
2.0000000e+00 0.0000000e+00 3.0000000e+00 
2.0000000e+00 0.0000000e+00 6.0000000e+00 
2.0000000e+00 0.0000000e+00 9.0000000e+00 
2.0000000e+00 0.0000000e+00 1.2000000e+01 
2.0000000e+00 0.0000000e+00 1.5000000e+01 
2.0000000e+00 0.0000000e+00 1.8000000e+01 
2.5000000e+00 0.0000000e+00 3.0000000e+00 
2.5000000e+00 0.0000000e+00 6.0000000e+00 
2.5000000e+00 0.0000000e+00 9.0000000e+00 
2.5000000e+00 0.0000000e+00 1.2000000e+01 
2.5000000e+00 0.0000000e+00 1.5000000e+01 
2.5000000e+00 0.0000000e+00 1.8000000e+01 
3.0000000e+00 0.0000000e+00 3.0000000e+00 
3.0000000e+00 0.0000000e+00 6.0000000e+00 
3.0000000e+00 0.0000000e+00 9.0000000e+00 
3.0000000e+00 0.0000000e+00 1.2000000e+01 
3.0000000e+00 0.0000000e+00 1.5000000e+01 
3.0000000e+00 0.0000000e+00 1.8000000e+01 
3.5000000e+00 0.0000000e+00 3.0000000e+00 
3.5000000e+00 0.0000000e+00 6.0000000e+00 
3.5000000e+00 0.0000000e+00 9.0000000e+00 
3.5000000e+00 0.0000000e+00 1.2000000e+01 
3.5000000e+00 0.0000000e+00 1.5000000e+01 
3.5000000e+00 0.0000000e+00 1.8000000e+01 
4.0000000e+00 0.0000000e+00 3.0000000e+00 
4.0000000e+00 0.0000000e+00 6.0000000e+00 
4.0000000e+00 0.0000000e+00 9.0000000e+00 
4.0000000e+00 0.0000000e+00 1.2000000e+01 
4.0000000e+00 0.0000000e+00 1.5000000e+01 
4.0000000e+00 0.0000000e+00 1.8000000e+01 
4.5000000e+00 0.0000000e+00 3.0000000e+00 
4.5000000e+00 0.0000000e+00 6.0000000e+00 
4.5000000e+00 0.0000000e+00 9.0000000e+00 
4.5000000e+00 0.0000000e+00 1.2000000e+01 
4.5000000e+00 0.0000000e+00 1.5000000e+01 
4.5000000e+00 0.0000000e+00 1.8000000e+01 
5.0000000e+00 0.0000000e+00 3.0000000e+00 
5.0000000e+00 0.0000000e+00 6.0000000e+00 
5.0000000e+00 0.0000000e+00 9.0000000e+00 
5.0000000e+00 0.0000000e+00 1.2000000e+01 
5.0000000e+00 0.0000000e+00 1.5000000e+01 
5.0000000e+00 0.0000000e+00 1.8000000e+01 
5.5000000e+00 0.0000000e+00 3.0000000e+00 
5.5000000e+00 0.0000000e+00 6.0000000e+00 
5.5000000e+00 0.0000000e+00 9.0000000e+00 
5.5000000e+00 0.0000000e+00 1.2000000e+01 
5.5000000e+00 0.0000000e+00 1.5000000e+01 
5.5000000e+00 0.0000000e+00 1.8000000e+01 
6.0000000e+00 0.0000000e+00 0.0000000e+00 
6.0000000e+00 0.0000000e+00 2.5000000e-01 
6.0000000e+00 0.0000000e+00 5.0000000e-01 
6.0000000e+00 0.0000000e+00 7.5000000e-01 
6.0000000e+00 0.0000000e+00 1.0000000e+00 
6.0000000e+00 0.0000000e+00 1.2500000e+00 
6.0000000e+00 0.0000000e+00 1.5000000e+00 
6.0000000e+00 0.0000000e+00 1.7500000e+00 
6.0000000e+00 0.0000000e+00 2.0000000e+00 
6.0000000e+00 0.0000000e+00 2.2500000e+00 
6.0000000e+00 0.0000000e+00 2.5000000e+00 
6.0000000e+00 0.0000000e+00 2.7500000e+00 
6.0000000e+00 0.0000000e+00 3.0000000e+00 
6.0000000e+00 0.0000000e+00 3.2500000e+00 
6.0000000e+00 0.0000000e+00 3.5000000e+00 
6.0000000e+00 0.0000000e+00 3.7500000e+00 
6.0000000e+00 0.0000000e+00 4.0000000e+00 
6.0000000e+00 0.0000000e+00 4.2500000e+00 
6.0000000e+00 0.0000000e+00 4.5000000e+00 
6.0000000e+00 0.0000000e+00 4.7500000e+00 
6.0000000e+00 0.0000000e+00 5.0000000e+00 
6.0000000e+00 0.0000000e+00 5.2500000e+00 
6.0000000e+00 0.0000000e+00 5.5000000e+00 
6.0000000e+00 0.0000000e+00 5.7500000e+00 
6.0000000e+00 0.0000000e+00 6.0000000e+00 
6.0000000e+00 0.0000000e+00 6.2500000e+00 
6.0000000e+00 0.0000000e+00 6.5000000e+00 
6.0000000e+00 0.0000000e+00 6.7500000e+00 
6.0000000e+00 0.0000000e+00 7.0000000e+00 
6.0000000e+00 0.0000000e+00 7.2500000e+00 
6.0000000e+00 0.0000000e+00 7.5000000e+00 
6.0000000e+00 0.0000000e+00 7.7500000e+00 
6.0000000e+00 0.0000000e+00 8.0000000e+00 
6.0000000e+00 0.0000000e+00 8.2500000e+00 
6.0000000e+00 0.0000000e+00 8.5000000e+00 
6.0000000e+00 0.0000000e+00 8.7500000e+00 
6.0000000e+00 0.0000000e+00 9.0000000e+00 
6.0000000e+00 0.0000000e+00 9.2500000e+00 
6.0000000e+00 0.0000000e+00 9.5000000e+00 
6.0000000e+00 0.0000000e+00 9.7500000e+00 
6.0000000e+00 0.0000000e+00 1.0000000e+01 
6.0000000e+00 0.0000000e+00 1.0250000e+01 
6.0000000e+00 0.0000000e+00 1.0500000e+01 
6.0000000e+00 0.0000000e+00 1.0750000e+01 
6.0000000e+00 0.0000000e+00 1.1000000e+01 
6.0000000e+00 0.0000000e+00 1.1250000e+01 
6.0000000e+00 0.0000000e+00 1.1500000e+01 
6.0000000e+00 0.0000000e+00 1.1750000e+01 
6.0000000e+00 0.0000000e+00 1.2000000e+01 
6.0000000e+00 0.0000000e+00 1.2250000e+01 
6.0000000e+00 0.0000000e+00 1.2500000e+01 
6.0000000e+00 0.0000000e+00 1.2750000e+01 
6.0000000e+00 0.0000000e+00 1.3000000e+01 
6.0000000e+00 0.0000000e+00 1.3250000e+01 
6.0000000e+00 0.0000000e+00 1.3500000e+01 
6.0000000e+00 0.0000000e+00 1.3750000e+01 
6.0000000e+00 0.0000000e+00 1.4000000e+01 
6.0000000e+00 0.0000000e+00 1.4250000e+01 
6.0000000e+00 0.0000000e+00 1.4500000e+01 
6.0000000e+00 0.0000000e+00 1.4750000e+01 
6.0000000e+00 0.0000000e+00 1.5000000e+01 
6.0000000e+00 0.0000000e+00 1.5250000e+01 
6.0000000e+00 0.0000000e+00 1.5500000e+01 
6.0000000e+00 0.0000000e+00 1.5750000e+01 
6.0000000e+00 0.0000000e+00 1.6000000e+01 
6.0000000e+00 0.0000000e+00 1.6250000e+01 
6.0000000e+00 0.0000000e+00 1.6500000e+01 
6.0000000e+00 0.0000000e+00 1.6750000e+01 
6.0000000e+00 0.0000000e+00 1.7000000e+01 
6.0000000e+00 0.0000000e+00 1.7250000e+01 
6.0000000e+00 0.0000000e+00 1.7500000e+01 
6.0000000e+00 0.0000000e+00 1.7750000e+01 
6.0000000e+00 0.0000000e+00 1.8000000e+01 

CELLS 216 648
2 0 1
2 1 2
2 2 3
2 3 4
2 4 5
2 5 6
2 6 7
2 7 8
2 8 9
2 9 10
2 10 11
2 11 12
2 12 13
2 13 14
2 14 15
2 15 16
2 16 17
2 17 18
2 18 19
2 19 20
2 20 21
2 21 22
2 22 23
2 23 24
2 24 25
2 25 26
2 26 27
2 27 28
2 28 29
2 29 30
2 30 31
2 31 32
2 32 33
2 33 34
2 34 35
2 35 36
2 36 37
2 37 38
2 38 39
2 39 40
2 40 41
2 41 42
2 42 43
2 43 44
2 44 45
2 45 46
2 46 47
2 47 48
2 48 49
2 49 50
2 50 51
2 51 52
2 52 53
2 53 54
2 54 55
2 55 56
2 56 57
2 57 58
2 58 59
2 59 60
2 60 61
2 61 62
2 62 63
2 63 64
2 64 65
2 65 66
2 66 67
2 67 68
2 68 69
2 69 70
2 70 71
2 71 72
2 139 140
2 140 141
2 141 142
2 142 143
2 143 144
2 144 145
2 145 146
2 146 147
2 147 148
2 148 149
2 149 150
2 150 151
2 151 152
2 152 153
2 153 154
2 154 155
2 155 156
2 156 157
2 157 158
2 158 159
2 159 160
2 160 161
2 161 162
2 162 163
2 163 164
2 164 165
2 165 166
2 166 167
2 167 168
2 168 169
2 169 170
2 170 171
2 171 172
2 172 173
2 173 174
2 174 175
2 175 176
2 176 177
2 177 178
2 178 179
2 179 180
2 180 181
2 181 182
2 182 183
2 183 184
2 184 185
2 185 186
2 186 187
2 187 188
2 188 189
2 189 190
2 190 191
2 191 192
2 192 193
2 193 194
2 194 195
2 195 196
2 196 197
2 197 198
2 198 199
2 199 200
2 200 201
2 201 202
2 202 203
2 203 204
2 204 205
2 205 206
2 206 207
2 207 208
2 208 209
2 209 210
2 210 211
2 12 73
2 73 79
2 79 85
2 85 91
2 91 97
2 97 103
2 103 109
2 109 115
2 115 121
2 121 127
2 127 133
2 133 151
2 24 74
2 74 80
2 80 86
2 86 92
2 92 98
2 98 104
2 104 110
2 110 116
2 116 122
2 122 128
2 128 134
2 134 163
2 36 75
2 75 81
2 81 87
2 87 93
2 93 99
2 99 105
2 105 111
2 111 117
2 117 123
2 123 129
2 129 135
2 135 175
2 48 76
2 76 82
2 82 88
2 88 94
2 94 100
2 100 106
2 106 112
2 112 118
2 118 124
2 124 130
2 130 136
2 136 187
2 60 77
2 77 83
2 83 89
2 89 95
2 95 101
2 101 107
2 107 113
2 113 119
2 119 125
2 125 131
2 131 137
2 137 199
2 72 78
2 78 84
2 84 90
2 90 96
2 96 102
2 102 108
2 108 114
2 114 120
2 120 126
2 126 132
2 132 138
2 138 211

CELL_TYPES 216
3
3
3
3
3
3
3
3
3
3
3
3
3
3
3
3
3
3
3
3
3
3
3
3
3
3
3
3
3
3
3
3
3
3
3
3
3
3
3
3
3
3
3
3
3
3
3
3
3
3
3
3
3
3
3
3
3
3
3
3
3
3
3
3
3
3
3
3
3
3
3
3
3
3
3
3
3
3
3
3
3
3
3
3
3
3
3
3
3
3
3
3
3
3
3
3
3
3
3
3
3
3
3
3
3
3
3
3
3
3
3
3
3
3
3
3
3
3
3
3
3
3
3
3
3
3
3
3
3
3
3
3
3
3
3
3
3
3
3
3
3
3
3
3
3
3
3
3
3
3
3
3
3
3
3
3
3
3
3
3
3
3
3
3
3
3
3
3
3
3
3
3
3
3
3
3
3
3
3
3
3
3
3
3
3
3
3
3
3
3
3
3
3
3
3
3
3
3
3
3
3
3
3
3
3
3
3
3
3
3
3
3
3
3
3
3
POINT_DATA 212
FIELD FieldData 8
DISPLACEMENT 3 212  float
0.0000000e+00 0.0000000e+00 0.0000000e+00 
-7.0089060e-05 0.0000000e+00 -5.2671759e-05 
-1.3728268e-04 0.0000000e+00 -1.0497891e-04 
-1.9868539e-04 0.0000000e+00 -1.5692145e-04 
-2.5140177e-04 0.0000000e+00 -2.0849938e-04 
-2.9253637e-04 0.0000000e+00 -2.5971269e-04 
-3.1919373e-04 0.0000000e+00 -3.1056142e-04 
-3.2847840e-04 0.0000000e+00 -3.6104550e-04 
-3.1749497e-04 0.0000000e+00 -4.1116498e-04 
-2.8334797e-04 0.0000000e+00 -4.6091987e-04 
-2.2314192e-04 0.0000000e+00 -5.1031011e-04 
-1.3398142e-04 0.0000000e+00 -5.5933581e-04 
-1.2971005e-05 0.0000000e+00 -6.0799683e-04 
9.6331787e-05 0.0000000e+00 -6.5185956e-04 
1.5469975e-04 0.0000000e+00 -6.9535774e-04 
1.7152386e-04 0.0000000e+00 -7.3849125e-04 
1.5619506e-04 0.0000000e+00 -7.8126014e-04 
1.1810430e-04 0.0000000e+00 -8.2366448e-04 
6.6642548e-05 0.0000000e+00 -8.6570415e-04 
1.1200738e-05 0.0000000e+00 -9.0737926e-04 
-3.8830160e-05 0.0000000e+00 -9.4868970e-04 
-7.4059200e-05 0.0000000e+00 -9.8963559e-04 
-8.5095417e-05 0.0000000e+00 -1.0302168e-03 
-6.2547871e-05 0.0000000e+00 -1.0704335e-03 
2.9744017e-06 0.0000000e+00 -1.1102855e-03 
7.1088514e-05 0.0000000e+00 -1.1453392e-03 
1.0041859e-04 0.0000000e+00 -1.1800284e-03 
9.8866076e-05 0.0000000e+00 -1.2143529e-03 
7.4332449e-05 0.0000000e+00 -1.2483128e-03 
3.4719153e-05 0.0000000e+00 -1.2819081e-03 
-1.2072345e-05 0.0000000e+00 -1.3151388e-03 
-5.8140587e-05 0.0000000e+00 -1.3480049e-03 
-9.5584117e-05 0.0000000e+00 -1.3805063e-03 
-1.1650148e-04 0.0000000e+00 -1.4126432e-03 
-1.1299120e-04 0.0000000e+00 -1.4444154e-03 
-7.7151824e-05 0.0000000e+00 -1.4758231e-03 
-1.0819081e-06 0.0000000e+00 -1.5068661e-03 
7.4046358e-05 0.0000000e+00 -1.5331109e-03 
1.0742196e-04 0.0000000e+00 -1.5589909e-03 
1.0748814e-04 0.0000000e+00 -1.5845065e-03 
8.2688151e-05 0.0000000e+00 -1.6096573e-03 
4.1465242e-05 0.0000000e+00 -1.6344436e-03 
-7.7373443e-06 0.0000000e+00 -1.6588653e-03 
-5.6476358e-05 0.0000000e+00 -1.6829224e-03 
-9.6308548e-05 0.0000000e+00 -1.7066149e-03 
-1.1879067e-04 0.0000000e+00 -1.7299426e-03 
-1.1547948e-04 0.0000000e+00 -1.7529059e-03 
-7.7931727e-05 0.0000000e+00 -1.7755046e-03 
2.2958372e-06 0.0000000e+00 -1.7977385e-03 
8.4522675e-05 0.0000000e+00 -1.8151742e-03 
1.2730177e-04 0.0000000e+00 -1.8322454e-03 
1.3792669e-04 0.0000000e+00 -1.8489518e-03 
1.2369100e-04 0.0000000e+00 -1.8652937e-03 
9.1888251e-05 0.0000000e+00 -1.8812710e-03 
4.9812003e-05 0.0000000e+00 -1.8968837e-03 
4.7558065e-06 0.0000000e+00 -1.9121317e-03 
-3.5986774e-05 0.0000000e+00 -1.9270151e-03 
-6.5122178e-05 0.0000000e+00 -1.9415340e-03 
-7.5356853e-05 0.0000000e+00 -1.9556882e-03 
-5.9397233e-05 0.0000000e+00 -1.9694779e-03 
-9.9497638e-06 0.0000000e+00 -1.9829029e-03 
3.0687388e-05 0.0000000e+00 -1.9915295e-03 
2.3537772e-05 0.0000000e+00 -1.9997917e-03 
-1.9122503e-05 0.0000000e+00 -2.0076891e-03 
-8.5017316e-05 0.0000000e+00 -2.0152221e-03 
-1.6187056e-04 0.0000000e+00 -2.0223903e-03 
-2.3740612e-04 0.0000000e+00 -2.0291938e-03 
-2.9934788e-04 0.0000000e+00 -2.0356330e-03 
-3.3541970e-04 0.0000000e+00 -2.0417073e-03 
-3.3334552e-04 0.0000000e+00 -2.0474172e-03 
-2.8084917e-04 0.0000000e+00 -2.0527623e-03 
-1.6565456e-04 0.0000000e+00 -2.0577430e-03 
2.4514413e-05 0.0000000e+00 -2.0623589e-03 
-1.0809172e-05 0.0000000e+00 -1.0399156e-03 
2.4786682e-06 0.0000000e+00 -1.4546432e-03 
-9.0159000e-07 0.0000000e+00 -1.8671354e-03 
1.9131976e-06 0.0000000e+00 -2.1682065e-03 
-8.2914703e-06 0.0000000e+00 -2.2878121e-03 
2.0428677e-05 0.0000000e+00 -2.6663318e-03 
-8.6473374e-06 0.0000000e+00 -1.6597351e-03 
1.9829345e-06 0.0000000e+00 -2.0028220e-03 
-7.2127204e-07 0.0000000e+00 -2.4283328e-03 
1.5305581e-06 0.0000000e+00 -2.7377480e-03 
-6.6331759e-06 0.0000000e+00 -2.8037147e-03 
1.6342941e-05 0.0000000e+00 -3.4269230e-03 
-6.4855026e-06 0.0000000e+00 -2.3075966e-03 
1.4872008e-06 0.0000000e+00 -2.5949627e-03 
-5.4095403e-07 0.0000000e+00 -3.0305991e-03 
1.1479186e-06 0.0000000e+00 -3.3465044e-03 
-4.9748819e-06 0.0000000e+00 -3.3707519e-03 
1.2257206e-05 0.0000000e+00 -4.1842735e-03 
-4.3236687e-06 0.0000000e+00 -2.8591652e-03 
9.9146723e-07 0.0000000e+00 -3.1067310e-03 
-3.6063599e-07 0.0000000e+00 -3.5495998e-03 
7.6527908e-07 0.0000000e+00 -3.8701410e-03 
-3.3165879e-06 0.0000000e+00 -3.8645889e-03 
8.1714707e-06 0.0000000e+00 -4.8140483e-03 
-2.1618343e-06 0.0000000e+00 -3.2256306e-03 
4.9573362e-07 0.0000000e+00 -3.4493159e-03 
-1.8031800e-07 0.0000000e+00 -3.8965244e-03 
3.8263954e-07 0.0000000e+00 -4.2198468e-03 
-1.6582940e-06 0.0000000e+00 -4.1964152e-03 
4.0857353e-06 0.0000000e+00 -5.2274377e-03 
1.6935189e-15 0.0000000e+00 -3.3537063e-03 
2.4541820e-15 0.0000000e+00 -3.5694318e-03 
3.1173932e-15 0.0000000e+00 -4.0180865e-03 
3.9037495e-15 0.0000000e+00 -4.3423362e-03 
4.6669224e-15 0.0000000e+00 -4.3129446e-03 
5.1797115e-15 0.0000000e+00 -5.3711548e-03 
2.1618343e-06 0.0000000e+00 -3.2256306e-03 
-4.9573362e-07 0.0000000e+00 -3.4493159e-03 
1.8031801e-07 0.0000000e+00 -3.8965244e-03 
-3.8263951e-07 0.0000000e+00 -4.2198468e-03 
1.6582940e-06 0.0000000e+00 -4.1964152e-03 
-4.0857353e-06 0.0000000e+00 -5.2274377e-03 
4.3236687e-06 0.0000000e+00 -2.8591652e-03 
-9.9146723e-07 0.0000000e+00 -3.1067310e-03 
3.6063602e-07 0.0000000e+00 -3.5495998e-03 
-7.6527903e-07 0.0000000e+00 -3.8701410e-03 
3.3165879e-06 0.0000000e+00 -3.8645889e-03 
-8.1714707e-06 0.0000000e+00 -4.8140483e-03 
6.4855030e-06 0.0000000e+00 -2.3075966e-03 
-1.4872008e-06 0.0000000e+00 -2.5949627e-03 
5.4095403e-07 0.0000000e+00 -3.0305991e-03 
-1.1479186e-06 0.0000000e+00 -3.3465044e-03 
4.9748819e-06 0.0000000e+00 -3.3707519e-03 
-1.2257206e-05 0.0000000e+00 -4.1842735e-03 
8.6473374e-06 0.0000000e+00 -1.6597351e-03 
-1.9829345e-06 0.0000000e+00 -2.0028220e-03 
7.2127204e-07 0.0000000e+00 -2.4283328e-03 
-1.5305581e-06 0.0000000e+00 -2.7377480e-03 
6.6331759e-06 0.0000000e+00 -2.8037147e-03 
-1.6342941e-05 0.0000000e+00 -3.4269230e-03 
1.0809172e-05 0.0000000e+00 -1.0399156e-03 
-2.4786682e-06 0.0000000e+00 -1.4546432e-03 
9.0159006e-07 0.0000000e+00 -1.8671354e-03 
-1.9131976e-06 0.0000000e+00 -2.1682065e-03 
8.2914703e-06 0.0000000e+00 -2.2878121e-03 
-2.0428677e-05 0.0000000e+00 -2.6663318e-03 
0.0000000e+00 0.0000000e+00 0.0000000e+00 
7.0089060e-05 0.0000000e+00 -5.2671759e-05 
1.3728268e-04 0.0000000e+00 -1.0497891e-04 
1.9868539e-04 0.0000000e+00 -1.5692145e-04 
2.5140177e-04 0.0000000e+00 -2.0849938e-04 
2.9253637e-04 0.0000000e+00 -2.5971269e-04 
3.1919373e-04 0.0000000e+00 -3.1056142e-04 
3.2847840e-04 0.0000000e+00 -3.6104550e-04 
3.1749497e-04 0.0000000e+00 -4.1116498e-04 
2.8334797e-04 0.0000000e+00 -4.6091987e-04 
2.2314192e-04 0.0000000e+00 -5.1031011e-04 
1.3398142e-04 0.0000000e+00 -5.5933581e-04 
1.2971006e-05 0.0000000e+00 -6.0799683e-04 
-9.6331787e-05 0.0000000e+00 -6.5185956e-04 
-1.5469975e-04 0.0000000e+00 -6.9535774e-04 
-1.7152386e-04 0.0000000e+00 -7.3849125e-04 
-1.5619506e-04 0.0000000e+00 -7.8126014e-04 
-1.1810430e-04 0.0000000e+00 -8.2366448e-04 
-6.6642548e-05 0.0000000e+00 -8.6570415e-04 
-1.1200738e-05 0.0000000e+00 -9.0737926e-04 
3.8830160e-05 0.0000000e+00 -9.4868970e-04 
7.4059200e-05 0.0000000e+00 -9.8963559e-04 
8.5095417e-05 0.0000000e+00 -1.0302168e-03 
6.2547871e-05 0.0000000e+00 -1.0704335e-03 
-2.9744017e-06 0.0000000e+00 -1.1102855e-03 
-7.1088514e-05 0.0000000e+00 -1.1453392e-03 
-1.0041859e-04 0.0000000e+00 -1.1800284e-03 
-9.8866076e-05 0.0000000e+00 -1.2143529e-03 
-7.4332449e-05 0.0000000e+00 -1.2483128e-03 
-3.4719153e-05 0.0000000e+00 -1.2819081e-03 
1.2072345e-05 0.0000000e+00 -1.3151388e-03 
5.8140587e-05 0.0000000e+00 -1.3480049e-03 
9.5584117e-05 0.0000000e+00 -1.3805063e-03 
1.1650148e-04 0.0000000e+00 -1.4126432e-03 
1.1299120e-04 0.0000000e+00 -1.4444154e-03 
7.7151824e-05 0.0000000e+00 -1.4758231e-03 
1.0819081e-06 0.0000000e+00 -1.5068661e-03 
-7.4046358e-05 0.0000000e+00 -1.5331109e-03 
-1.0742196e-04 0.0000000e+00 -1.5589909e-03 
-1.0748814e-04 0.0000000e+00 -1.5845065e-03 
-8.2688151e-05 0.0000000e+00 -1.6096573e-03 
-4.1465242e-05 0.0000000e+00 -1.6344436e-03 
7.7373443e-06 0.0000000e+00 -1.6588653e-03 
5.6476358e-05 0.0000000e+00 -1.6829224e-03 
9.6308548e-05 0.0000000e+00 -1.7066149e-03 
1.1879067e-04 0.0000000e+00 -1.7299426e-03 
1.1547948e-04 0.0000000e+00 -1.7529059e-03 
7.7931727e-05 0.0000000e+00 -1.7755046e-03 
-2.2958372e-06 0.0000000e+00 -1.7977385e-03 
-8.4522675e-05 0.0000000e+00 -1.8151742e-03 
-1.2730177e-04 0.0000000e+00 -1.8322454e-03 
-1.3792669e-04 0.0000000e+00 -1.8489518e-03 
-1.2369100e-04 0.0000000e+00 -1.8652937e-03 
-9.1888251e-05 0.0000000e+00 -1.8812710e-03 
-4.9812003e-05 0.0000000e+00 -1.8968837e-03 
-4.7558065e-06 0.0000000e+00 -1.9121317e-03 
3.5986774e-05 0.0000000e+00 -1.9270151e-03 
6.5122178e-05 0.0000000e+00 -1.9415340e-03 
7.5356853e-05 0.0000000e+00 -1.9556882e-03 
5.9397233e-05 0.0000000e+00 -1.9694779e-03 
9.9497638e-06 0.0000000e+00 -1.9829029e-03 
-3.0687388e-05 0.0000000e+00 -1.9915295e-03 
-2.3537772e-05 0.0000000e+00 -1.9997917e-03 
1.9122503e-05 0.0000000e+00 -2.0076891e-03 
8.5017316e-05 0.0000000e+00 -2.0152221e-03 
1.6187056e-04 0.0000000e+00 -2.0223903e-03 
2.3740612e-04 0.0000000e+00 -2.0291938e-03 
2.9934788e-04 0.0000000e+00 -2.0356330e-03 
3.3541970e-04 0.0000000e+00 -2.0417073e-03 
3.3334552e-04 0.0000000e+00 -2.0474172e-03 
2.8084917e-04 0.0000000e+00 -2.0527623e-03 
1.6565456e-04 0.0000000e+00 -2.0577430e-03 
-2.4514413e-05 0.0000000e+00 -2.0623589e-03 
ROTATION 3 212  float
0.0000000e+00 -2.8228655e-04 0.0000000e+00 
0.0000000e+00 -2.7649564e-04 0.0000000e+00 
0.0000000e+00 -2.5912296e-04 0.0000000e+00 
0.0000000e+00 -2.3016850e-04 0.0000000e+00 
0.0000000e+00 -1.8963225e-04 0.0000000e+00 
0.0000000e+00 -1.3751422e-04 0.0000000e+00 
0.0000000e+00 -7.3814386e-05 0.0000000e+00 
0.0000000e+00 1.4672246e-06 0.0000000e+00 
0.0000000e+00 8.8330620e-05 0.0000000e+00 
0.0000000e+00 1.8677581e-04 0.0000000e+00 
0.0000000e+00 2.9680278e-04 0.0000000e+00 
0.0000000e+00 4.1841154e-04 0.0000000e+00 
0.0000000e+00 5.5160205e-04 0.0000000e+00 
0.0000000e+00 3.2908088e-04 0.0000000e+00 
0.0000000e+00 1.4412352e-04 0.0000000e+00 
0.0000000e+00 -3.2700257e-06 0.0000000e+00 
0.0000000e+00 -1.1309976e-04 0.0000000e+00 
0.0000000e+00 -1.8536567e-04 0.0000000e+00 
0.0000000e+00 -2.2006777e-04 0.0000000e+00 
0.0000000e+00 -2.1720605e-04 0.0000000e+00 
0.0000000e+00 -1.7678051e-04 0.0000000e+00 
0.0000000e+00 -9.8791155e-05 0.0000000e+00 
0.0000000e+00 1.6762018e-05 0.0000000e+00 
0.0000000e+00 1.6987900e-04 0.0000000e+00 
0.0000000e+00 3.6055982e-04 0.0000000e+00 
0.0000000e+00 1.8962074e-04 0.0000000e+00 
0.0000000e+00 5.0287486e-05 0.0000000e+00 
0.0000000e+00 -5.7439920e-05 0.0000000e+00 
0.0000000e+00 -1.3356149e-04 0.0000000e+00 
0.0000000e+00 -1.7807723e-04 0.0000000e+00 
0.0000000e+00 -1.9098712e-04 0.0000000e+00 
0.0000000e+00 -1.7229118e-04 0.0000000e+00 
0.0000000e+00 -1.2198941e-04 0.0000000e+00 
0.0000000e+00 -4.0081795e-05 0.0000000e+00 
0.0000000e+00 7.3431649e-05 0.0000000e+00 
0.0000000e+00 2.1855094e-04 0.0000000e+00 
0.0000000e+00 3.9527606e-04 0.0000000e+00 
0.0000000e+00 2.1137889e-04 0.0000000e+00 
0.0000000e+00 6.1254730e-05 0.0000000e+00 
0.0000000e+00 -5.5096443e-05 0.0000000e+00 
0.0000000e+00 -1.3767464e-04 0.0000000e+00 
0.0000000e+00 -1.8647983e-04 0.0000000e+00 
0.0000000e+00 -2.0151203e-04 0.0000000e+00 
0.0000000e+00 -1.8277124e-04 0.0000000e+00 
0.0000000e+00 -1.3025747e-04 0.0000000e+00 
0.0000000e+00 -4.3970700e-05 0.0000000e+00 
0.0000000e+00 7.6089062e-05 0.0000000e+00 
0.0000000e+00 2.2992180e-04 0.0000000e+00 
0.0000000e+00 4.1752754e-04 0.0000000e+00 
0.0000000e+00 2.4514951e-04 0.0000000e+00 
0.0000000e+00 1.0194568e-04 0.0000000e+00 
0.0000000e+00 -1.2083907e-05 0.0000000e+00 
0.0000000e+00 -9.6939257e-05 0.0000000e+00 
0.0000000e+00 -1.5262039e-04 0.0000000e+00 
0.0000000e+00 -1.7912727e-04 0.0000000e+00 
0.0000000e+00 -1.7645991e-04 0.0000000e+00 
0.0000000e+00 -1.4461835e-04 0.0000000e+00 
0.0000000e+00 -8.3602528e-05 0.0000000e+00 
0.0000000e+00 6.5875197e-06 0.0000000e+00 
0.0000000e+00 1.2595180e-04 0.0000000e+00 
0.0000000e+00 2.7449030e-04 0.0000000e+00 
0.0000000e+00 5.8790996e-05 0.0000000e+00 
0.0000000e+00 -1.0780386e-04 0.0000000e+00 
0.0000000e+00 -2.2529426e-04 0.0000000e+00 
0.0000000e+00 -2.9368020e-04 0.0000000e+00 
0.0000000e+00 -3.1296167e-04 0.0000000e+00 
0.0000000e+00 -2.8313871e-04 0.0000000e+00 
0.0000000e+00 -2.0421126e-04 0.0000000e+00 
0.0000000e+00 -7.6179356e-05 0.0000000e+00 
0.0000000e+00 1.0095700e-04 0.0000000e+00 
0.0000000e+00 3.2719781e-04 0.0000000e+00 
0.0000000e+00 6.0254306e-04 0.0000000e+00 
0.0000000e+00 9.2699280e-04 0.0000000e+00 
0.0000000e+00 1.1109452e-03 0.0000000e+00 
0.0000000e+00 9.5174339e-04 0.0000000e+00 
0.0000000e+00 9.8067359e-04 0.0000000e+00 
0.0000000e+00 9.9921657e-04 0.0000000e+00 
0.0000000e+00 8.8001881e-04 0.0000000e+00 
0.0000000e+00 1.4237709e-03 0.0000000e+00 
0.0000000e+00 1.3150466e-03 0.0000000e+00 
0.0000000e+00 1.1876851e-03 0.0000000e+00 
0.0000000e+00 1.2108292e-03 0.0000000e+00 
0.0000000e+00 1.2256636e-03 0.0000000e+00 
0.0000000e+00 1.1303053e-03 0.0000000e+00 
0.0000000e+00 1.5653070e-03 0.0000000e+00 
0.0000000e+00 1.2349543e-03 0.0000000e+00 
0.0000000e+00 1.1394331e-03 0.0000000e+00 
0.0000000e+00 1.1567912e-03 0.0000000e+00 
0.0000000e+00 1.1679170e-03 0.0000000e+00 
0.0000000e+00 1.0963985e-03 0.0000000e+00 
0.0000000e+00 1.4226497e-03 0.0000000e+00 
0.0000000e+00 9.4171683e-04 0.0000000e+00 
0.0000000e+00 8.7803608e-04 0.0000000e+00 
0.0000000e+00 8.8960817e-04 0.0000000e+00 
0.0000000e+00 8.9702534e-04 0.0000000e+00 
0.0000000e+00 8.4934622e-04 0.0000000e+00 
0.0000000e+00 1.0668471e-03 0.0000000e+00 
0.0000000e+00 5.0638261e-04 0.0000000e+00 
0.0000000e+00 4.7454223e-04 0.0000000e+00 
0.0000000e+00 4.8032828e-04 0.0000000e+00 
0.0000000e+00 4.8403686e-04 0.0000000e+00 
0.0000000e+00 4.6019731e-04 0.0000000e+00 
0.0000000e+00 5.6894775e-04 0.0000000e+00 
0.0000000e+00 -1.4515728e-16 0.0000000e+00 
0.0000000e+00 -6.2770713e-17 0.0000000e+00 
0.0000000e+00 -1.2161826e-16 0.0000000e+00 
0.0000000e+00 -1.0200241e-16 0.0000000e+00 
0.0000000e+00 -6.4732303e-17 0.0000000e+00 
0.0000000e+00 -1.2436928e-16 0.0000000e+00 
0.0000000e+00 -5.0638261e-04 0.0000000e+00 
0.0000000e+00 -4.7454223e-04 0.0000000e+00 
0.0000000e+00 -4.8032828e-04 0.0000000e+00 
0.0000000e+00 -4.8403686e-04 0.0000000e+00 
0.0000000e+00 -4.6019731e-04 0.0000000e+00 
0.0000000e+00 -5.6894775e-04 0.0000000e+00 
0.0000000e+00 -9.4171683e-04 0.0000000e+00 
0.0000000e+00 -8.7803608e-04 0.0000000e+00 
0.0000000e+00 -8.8960817e-04 0.0000000e+00 
0.0000000e+00 -8.9702534e-04 0.0000000e+00 
0.0000000e+00 -8.4934622e-04 0.0000000e+00 
0.0000000e+00 -1.0668471e-03 0.0000000e+00 
0.0000000e+00 -1.2349543e-03 0.0000000e+00 
0.0000000e+00 -1.1394331e-03 0.0000000e+00 
0.0000000e+00 -1.1567912e-03 0.0000000e+00 
0.0000000e+00 -1.1679170e-03 0.0000000e+00 
0.0000000e+00 -1.0963985e-03 0.0000000e+00 
0.0000000e+00 -1.4226497e-03 0.0000000e+00 
0.0000000e+00 -1.3150466e-03 0.0000000e+00 
0.0000000e+00 -1.1876851e-03 0.0000000e+00 
0.0000000e+00 -1.2108292e-03 0.0000000e+00 
0.0000000e+00 -1.2256636e-03 0.0000000e+00 
0.0000000e+00 -1.1303053e-03 0.0000000e+00 
0.0000000e+00 -1.5653070e-03 0.0000000e+00 
0.0000000e+00 -1.1109452e-03 0.0000000e+00 
0.0000000e+00 -9.5174339e-04 0.0000000e+00 
0.0000000e+00 -9.8067359e-04 0.0000000e+00 
0.0000000e+00 -9.9921657e-04 0.0000000e+00 
0.0000000e+00 -8.8001881e-04 0.0000000e+00 
0.0000000e+00 -1.4237709e-03 0.0000000e+00 
0.0000000e+00 2.8228655e-04 0.0000000e+00 
0.0000000e+00 2.7649564e-04 0.0000000e+00 
0.0000000e+00 2.5912296e-04 0.0000000e+00 
0.0000000e+00 2.3016850e-04 0.0000000e+00 
0.0000000e+00 1.8963225e-04 0.0000000e+00 
0.0000000e+00 1.3751422e-04 0.0000000e+00 
0.0000000e+00 7.3814386e-05 0.0000000e+00 
0.0000000e+00 -1.4672246e-06 0.0000000e+00 
0.0000000e+00 -8.8330620e-05 0.0000000e+00 
0.0000000e+00 -1.8677581e-04 0.0000000e+00 
0.0000000e+00 -2.9680278e-04 0.0000000e+00 
0.0000000e+00 -4.1841154e-04 0.0000000e+00 
0.0000000e+00 -5.5160205e-04 0.0000000e+00 
0.0000000e+00 -3.2908088e-04 0.0000000e+00 
0.0000000e+00 -1.4412352e-04 0.0000000e+00 
0.0000000e+00 3.2700257e-06 0.0000000e+00 
0.0000000e+00 1.1309976e-04 0.0000000e+00 
0.0000000e+00 1.8536567e-04 0.0000000e+00 
0.0000000e+00 2.2006777e-04 0.0000000e+00 
0.0000000e+00 2.1720605e-04 0.0000000e+00 
0.0000000e+00 1.7678051e-04 0.0000000e+00 
0.0000000e+00 9.8791155e-05 0.0000000e+00 
0.0000000e+00 -1.6762018e-05 0.0000000e+00 
0.0000000e+00 -1.6987900e-04 0.0000000e+00 
0.0000000e+00 -3.6055982e-04 0.0000000e+00 
0.0000000e+00 -1.8962074e-04 0.0000000e+00 
0.0000000e+00 -5.0287486e-05 0.0000000e+00 
0.0000000e+00 5.7439920e-05 0.0000000e+00 
0.0000000e+00 1.3356149e-04 0.0000000e+00 
0.0000000e+00 1.7807723e-04 0.0000000e+00 
0.0000000e+00 1.9098712e-04 0.0000000e+00 
0.0000000e+00 1.7229118e-04 0.0000000e+00 
0.0000000e+00 1.2198941e-04 0.0000000e+00 
0.0000000e+00 4.0081795e-05 0.0000000e+00 
0.0000000e+00 -7.3431649e-05 0.0000000e+00 
0.0000000e+00 -2.1855094e-04 0.0000000e+00 
0.0000000e+00 -3.9527606e-04 0.0000000e+00 
0.0000000e+00 -2.1137889e-04 0.0000000e+00 
0.0000000e+00 -6.1254730e-05 0.0000000e+00 
0.0000000e+00 5.5096443e-05 0.0000000e+00 
0.0000000e+00 1.3767464e-04 0.0000000e+00 
0.0000000e+00 1.8647983e-04 0.0000000e+00 
0.0000000e+00 2.0151203e-04 0.0000000e+00 
0.0000000e+00 1.8277124e-04 0.0000000e+00 
0.0000000e+00 1.3025747e-04 0.0000000e+00 
0.0000000e+00 4.3970700e-05 0.0000000e+00 
0.0000000e+00 -7.6089062e-05 0.0000000e+00 
0.0000000e+00 -2.2992180e-04 0.0000000e+00 
0.0000000e+00 -4.1752754e-04 0.0000000e+00 
0.0000000e+00 -2.4514951e-04 0.0000000e+00 
0.0000000e+00 -1.0194568e-04 0.0000000e+00 
0.0000000e+00 1.2083907e-05 0.0000000e+00 
0.0000000e+00 9.6939257e-05 0.0000000e+00 
0.0000000e+00 1.5262039e-04 0.0000000e+00 
0.0000000e+00 1.7912727e-04 0.0000000e+00 
0.0000000e+00 1.7645991e-04 0.0000000e+00 
0.0000000e+00 1.4461835e-04 0.0000000e+00 
0.0000000e+00 8.3602528e-05 0.0000000e+00 
0.0000000e+00 -6.5875197e-06 0.0000000e+00 
0.0000000e+00 -1.2595180e-04 0.0000000e+00 
0.0000000e+00 -2.7449030e-04 0.0000000e+00 
0.0000000e+00 -5.8790996e-05 0.0000000e+00 
0.0000000e+00 1.0780386e-04 0.0000000e+00 
0.0000000e+00 2.2529426e-04 0.0000000e+00 
0.0000000e+00 2.9368020e-04 0.0000000e+00 