# vtk DataFile Version 4.0
vtk output
ASCII
DATASET UNSTRUCTURED_GRID
POINTS 212 float
0.0000000e+00 0.0000000e+00 0.0000000e+00 
0.0000000e+00 0.0000000e+00 2.5000000e-01 
0.0000000e+00 0.0000000e+00 5.0000000e-01 
0.0000000e+00 0.0000000e+00 7.5000000e-01 
0.0000000e+00 0.0000000e+00 1.0000000e+00 
0.0000000e+00 0.0000000e+00 1.2500000e+00 
0.0000000e+00 0.0000000e+00 1.5000000e+00 
0.0000000e+00 0.0000000e+00 1.7500000e+00 
0.0000000e+00 0.0000000e+00 2.0000000e+00 
0.0000000e+00 0.0000000e+00 2.2500000e+00 
0.0000000e+00 0.0000000e+00 2.5000000e+00 
0.0000000e+00 0.0000000e+00 2.7500000e+00 
0.0000000e+00 0.0000000e+00 3.0000000e+00 
0.0000000e+00 0.0000000e+00 3.2500000e+00 
0.0000000e+00 0.0000000e+00 3.5000000e+00 
0.0000000e+00 0.0000000e+00 3.7500000e+00 
0.0000000e+00 0.0000000e+00 4.0000000e+00 
0.0000000e+00 0.0000000e+00 4.2500000e+00 
0.0000000e+00 0.0000000e+00 4.5000000e+00 
0.0000000e+00 0.0000000e+00 4.7500000e+00 
0.0000000e+00 0.0000000e+00 5.0000000e+00 
0.0000000e+00 0.0000000e+00 5.2500000e+00 
0.0000000e+00 0.0000000e+00 5.5000000e+00 
0.0000000e+00 0.0000000e+00 5.7500000e+00 
0.0000000e+00 0.0000000e+00 6.0000000e+00 
0.0000000e+00 0.0000000e+00 6.2500000e+00 
0.0000000e+00 0.0000000e+00 6.5000000e+00 
0.0000000e+00 0.0000000e+00 6.7500000e+00 
0.0000000e+00 0.0000000e+00 7.0000000e+00 
0.0000000e+00 0.0000000e+00 7.2500000e+00 
0.0000000e+00 0.0000000e+00 7.5000000e+00 
0.0000000e+00 0.0000000e+00 7.7500000e+00 
0.0000000e+00 0.0000000e+00 8.0000000e+00 
0.0000000e+00 0.0000000e+00 8.2500000e+00 
0.0000000e+00 0.0000000e+00 8.5000000e+00 
0.0000000e+00 0.0000000e+00 8.7500000e+00 
0.0000000e+00 0.0000000e+00 9.0000000e+00 
0.0000000e+00 0.0000000e+00 9.2500000e+00 
0.0000000e+00 0.0000000e+00 9.5000000e+00 
0.0000000e+00 0.0000000e+00 9.7500000e+00 
0.0000000e+00 0.0000000e+00 1.0000000e+01 
0.0000000e+00 0.0000000e+00 1.0250000e+01 
0.0000000e+00 0.0000000e+00 1.0500000e+01 
0.0000000e+00 0.0000000e+00 1.0750000e+01 
0.0000000e+00 0.0000000e+00 1.1000000e+01 
0.0000000e+00 0.0000000e+00 1.1250000e+01 
0.0000000e+00 0.0000000e+00 1.1500000e+01 
0.0000000e+00 0.0000000e+00 1.1750000e+01 
0.0000000e+00 0.0000000e+00 1.2000000e+01 
0.0000000e+00 0.0000000e+00 1.2250000e+01 
0.0000000e+00 0.0000000e+00 1.2500000e+01 
0.0000000e+00 0.0000000e+00 1.2750000e+01 
0.0000000e+00 0.0000000e+00 1.3000000e+01 
0.0000000e+00 0.0000000e+00 1.3250000e+01 
0.0000000e+00 0.0000000e+00 1.3500000e+01 
0.0000000e+00 0.0000000e+00 1.3750000e+01 
0.0000000e+00 0.0000000e+00 1.4000000e+01 
0.0000000e+00 0.0000000e+00 1.4250000e+01 
0.0000000e+00 0.0000000e+00 1.4500000e+01 
0.0000000e+00 0.0000000e+00 1.4750000e+01 
0.0000000e+00 0.0000000e+00 1.5000000e+01 
0.0000000e+00 0.0000000e+00 1.5250000e+01 
0.0000000e+00 0.0000000e+00 1.5500000e+01 
0.0000000e+00 0.0000000e+00 1.5750000e+01 
0.0000000e+00 0.0000000e+00 1.6000000e+01 
0.0000000e+00 0.0000000e+00 1.6250000e+01 
0.0000000e+00 0.0000000e+00 1.6500000e+01 
0.0000000e+00 0.0000000e+00 1.6750000e+01 
0.0000000e+00 0.0000000e+00 1.7000000e+01 
0.0000000e+00 0.0000000e+00 1.7250000e+01 
0.0000000e+00 0.0000000e+00 1.7500000e+01 
0.0000000e+00 0.0000000e+00 1.7750000e+01 
0.0000000e+00 0.0000000e+00 1.8000000e+01 
5.0000000e-01 0.0000000e+00 3.0000000e+00 
5.0000000e-01 0.0000000e+00 6.0000000e+00 
5.0000000e-01 0.0000000e+00 9.0000000e+00 
5.0000000e-01 0.0000000e+00 1.2000000e+01 
5.0000000e-01 0.0000000e+00 1.5000000e+01 
5.0000000e-01 0.0000000e+00 1.8000000e+01 
1.0000000e+00 0.0000000e+00 3.0000000e+00 
1.0000000e+00 0.0000000e+00 6.0000000e+00 
1.0000000e+00 0.0000000e+00 9.0000000e+00 
1.0000000e+00 0.0000000e+00 1.2000000e+01 
1.0000000e+00 0.0000000e+00 1.5000000e+01 
1.0000000e+00 0.0000000e+00 1.8000000e+01 
1.5000000e+00 0.0000000e+00 3.0000000e+00 
1.5000000e+00 0.0000000e+00 6.0000000e+00 
1.5000000e+00 0.0000000e+00 9.0000000e+00 
1.5000000e+00 0.0000000e+00 1.2000000e+01 
1.5000000e+00 0.0000000e+00 1.5000000e+01 
1.5000000e+00 0.0000000e+00 1.8000000e+01 
2.0000000e+00 0.0000000e+00 3.0000000e+00 
2.0000000e+00 0.0000000e+00 6.0000000e+00 
2.0000000e+00 0.0000000e+00 9.0000000e+00 
2.0000000e+00 0.0000000e+00 1.2000000e+01 
2.0000000e+00 0.0000000e+00 1.5000000e+01 
2.0000000e+00 0.0000000e+00 1.8000000e+01 
2.5000000e+00 0.0000000e+00 3.0000000e+00 
2.5000000e+00 0.0000000e+00 6.0000000e+00 
2.5000000e+00 0.0000000e+00 9.0000000e+00 
2.5000000e+00 0.0000000e+00 1.2000000e+01 
2.5000000e+00 0.0000000e+00 1.5000000e+01 
2.5000000e+00 0.0000000e+00 1.8000000e+01 
3.0000000e+00 0.0000000e+00 3.0000000e+00 
3.0000000e+00 0.0000000e+00 6.0000000e+00 
3.0000000e+00 0.0000000e+00 9.0000000e+00 
3.0000000e+00 0.0000000e+00 1.2000000e+01 
3.0000000e+00 0.0000000e+00 1.5000000e+01 
3.0000000e+00 0.0000000e+00 1.8000000e+01 
3.5000000e+00 0.0000000e+00 3.0000000e+00 
3.5000000e+00 0.0000000e+00 6.0000000e+00 
3.5000000e+00 0.0000000e+00 9.0000000e+00 
3.5000000e+00 0.0000000e+00 1.2000000e+01 
3.5000000e+00 0.0000000e+00 1.5000000e+01 
3.5000000e+00 0.0000000e+00 1.8000000e+01 
4.0000000e+00 0.0000000e+00 3.0000000e+00 
4.0000000e+00 0.0000000e+00 6.0000000e+00 
4.0000000e+00 0.0000000e+00 9.0000000e+00 
4.0000000e+00 0.0000000e+00 1.2000000e+01 
4.0000000e+00 0.0000000e+00 1.5000000e+01 
4.0000000e+00 0.0000000e+00 1.8000000e+01 
4.5000000e+00 0.0000000e+00 3.0000000e+00 
4.5000000e+00 0.0000000e+00 6.0000000e+00 
4.5000000e+00 0.0000000e+00 9.0000000e+00 
4.5000000e+00 0.0000000e+00 1.2000000e+01 
4.5000000e+00 0.0000000e+00 1.5000000e+01 
4.5000000e+00 0.0000000e+00 1.8000000e+01 
5.0000000e+00 0.0000000e+00 3.0000000e+00 
5.0000000e+00 0.0000000e+00 6.0000000e+00 
5.0000000e+00 0.0000000e+00 9.0000000e+00 
5.0000000e+00 0.0000000e+00 1.2000000e+01 
5.0000000e+00 0.0000000e+00 1.5000000e+01 
5.0000000e+00 0.0000000e+00 1.8000000e+01 
5.5000000e+00 0.0000000e+00 3.0000000e+00 
5.5000000e+00 0.0000000e+00 6.0000000e+00 
5.5000000e+00 0.0000000e+00 9.0000000e+00 
5.5000000e+00 0.0000000e+00 1.2000000e+01 
5.5000000e+00 0.0000000e+00 1.5000000e+01 
5.5000000e+00 0.0000000e+00 1.8000000e+01 
6.0000000e+00 0.0000000e+00 0.0000000e+00 
6.0000000e+00 0.0000000e+00 2.5000000e-01 
6.0000000e+00 0.0000000e+00 5.0000000e-01 
6.0000000e+00 0.0000000e+00 7.5000000e-01 
6.0000000e+00 0.0000000e+00 1.0000000e+00 
6.0000000e+00 0.0000000e+00 1.2500000e+00 
6.0000000e+00 0.0000000e+00 1.5000000e+00 
6.0000000e+00 0.0000000e+00 1.7500000e+00 
6.0000000e+00 0.0000000e+00 2.0000000e+00 
6.0000000e+00 0.0000000e+00 2.2500000e+00 
6.0000000e+00 0.0000000e+00 2.5000000e+00 
6.0000000e+00 0.0000000e+00 2.7500000e+00 
6.0000000e+00 0.0000000e+00 3.0000000e+00 
6.0000000e+00 0.0000000e+00 3.2500000e+00 
6.0000000e+00 0.0000000e+00 3.5000000e+00 
6.0000000e+00 0.0000000e+00 3.7500000e+00 
6.0000000e+00 0.0000000e+00 4.0000000e+00 
6.0000000e+00 0.0000000e+00 4.2500000e+00 
6.0000000e+00 0.0000000e+00 4.5000000e+00 
6.0000000e+00 0.0000000e+00 4.7500000e+00 
6.0000000e+00 0.0000000e+00 5.0000000e+00 
6.0000000e+00 0.0000000e+00 5.2500000e+00 
6.0000000e+00 0.0000000e+00 5.5000000e+00 
6.0000000e+00 0.0000000e+00 5.7500000e+00 
6.0000000e+00 0.0000000e+00 6.0000000e+00 
6.0000000e+00 0.0000000e+00 6.2500000e+00 
6.0000000e+00 0.0000000e+00 6.5000000e+00 
6.0000000e+00 0.0000000e+00 6.7500000e+00 
6.0000000e+00 0.0000000e+00 7.0000000e+00 
6.0000000e+00 0.0000000e+00 7.2500000e+00 
6.0000000e+00 0.0000000e+00 7.5000000e+00 
6.0000000e+00 0.0000000e+00 7.7500000e+00 
6.0000000e+00 0.0000000e+00 8.0000000e+00 
6.0000000e+00 0.0000000e+00 8.2500000e+00 
6.0000000e+00 0.0000000e+00 8.5000000e+00 
6.0000000e+00 0.0000000e+00 8.7500000e+00 
6.0000000e+00 0.0000000e+00 9.0000000e+00 
6.0000000e+00 0.0000000e+00 9.2500000e+00 
6.0000000e+00 0.0000000e+00 9.5000000e+00 
6.0000000e+00 0.0000000e+00 9.7500000e+00 
6.0000000e+00 0.0000000e+00 1.0000000e+01 
6.0000000e+00 0.0000000e+00 1.0250000e+01 
6.0000000e+00 0.0000000e+00 1.0500000e+01 
6.0000000e+00 0.0000000e+00 1.0750000e+01 
6.0000000e+00 0.0000000e+00 1.1000000e+01 
6.0000000e+00 0.0000000e+00 1.1250000e+01 
6.0000000e+00 0.0000000e+00 1.1500000e+01 
6.0000000e+00 0.0000000e+00 1.1750000e+01 
6.0000000e+00 0.0000000e+00 1.2000000e+01 
6.0000000e+00 0.0000000e+00 1.2250000e+01 
6.0000000e+00 0.0000000e+00 1.2500000e+01 
6.0000000e+00 0.0000000e+00 1.2750000e+01 
6.0000000e+00 0.0000000e+00 1.3000000e+01 
6.0000000e+00 0.0000000e+00 1.3250000e+01 
6.0000000e+00 0.0000000e+00 1.3500000e+01 
6.0000000e+00 0.0000000e+00 1.3750000e+01 
6.0000000e+00 0.0000000e+00 1.4000000e+01 
6.0000000e+00 0.0000000e+00 1.4250000e+01 
6.0000000e+00 0.0000000e+00 1.4500000e+01 
6.0000000e+00 0.0000000e+00 1.4750000e+01 
6.0000000e+00 0.0000000e+00 1.5000000e+01 
6.0000000e+00 0.0000000e+00 1.5250000e+01 
6.0000000e+00 0.0000000e+00 1.5500000e+01 
6.0000000e+00 0.0000000e+00 1.5750000e+01 
6.0000000e+00 0.0000000e+00 1.6000000e+01 
6.0000000e+00 0.0000000e+00 1.6250000e+01 
6.0000000e+00 0.0000000e+00 1.6500000e+01 
6.0000000e+00 0.0000000e+00 1.6750000e+01 
6.0000000e+00 0.0000000e+00 1.7000000e+01 
6.0000000e+00 0.0000000e+00 1.7250000e+01 
6.0000000e+00 0.0000000e+00 1.7500000e+01 
6.0000000e+00 0.0000000e+00 1.7750000e+01 
6.0000000e+00 0.0000000e+00 1.8000000e+01 

CELLS 216 648
2 0 1
2 1 2
2 2 3
2 3 4
2 4 5
2 5 6
2 6 7
2 7 8
2 8 9
2 9 10
2 10 11
2 11 12
2 12 13
2 13 14
2 14 15
2 15 16
2 16 17
2 17 18
2 18 19
2 19 20
2 20 21
2 21 22
2 22 23
2 23 24
2 24 25
2 25 26
2 26 27
2 27 28
2 28 29
2 29 30
2 30 31
2 31 32
2 32 33
2 33 34
2 34 35
2 35 36
2 36 37
2 37 38
2 38 39
2 39 40
2 40 41
2 41 42
2 42 43
2 43 44
2 44 45
2 45 46
2 46 47
2 47 48
2 48 49
2 49 50
2 50 51
2 51 52
2 52 53
2 53 54
2 54 55
2 55 56
2 56 57
2 57 58
2 58 59
2 59 60
2 60 61
2 61 62
2 62 63
2 63 64
2 64 65
2 65 66
2 66 67
2 67 68
2 68 69
2 69 70
2 70 71
2 71 72
2 139 140
2 140 141
2 141 142
2 142 143
2 143 144
2 144 145
2 145 146
2 146 147
2 147 148
2 148 149
2 149 150
2 150 151
2 151 152
2 152 153
2 153 154
2 154 155
2 155 156
2 156 157
2 157 158
2 158 159
2 159 160
2 160 161
2 161 162
2 162 163
2 163 164
2 164 165
2 165 166
2 166 167
2 167 168
2 168 169
2 169 170
2 170 171
2 171 172
2 172 173
2 173 174
2 174 175
2 175 176
2 176 177
2 177 178
2 178 179
2 179 180
2 180 181
2 181 182
2 182 183
2 183 184
2 184 185
2 185 186
2 186 187
2 187 188
2 188 189
2 189 190
2 190 191
2 191 192
2 192 193
2 193 194
2 194 195
2 195 196
2 196 197
2 197 198
2 198 199
2 199 200
2 200 201
2 201 202
2 202 203
2 203 204
2 204 205
2 205 206
2 206 207
2 207 208
2 208 209
2 209 210
2 210 211
2 12 73
2 73 79
2 79 85
2 85 91
2 91 97
2 97 103
2 103 109
2 109 115
2 115 121
2 121 127
2 127 133
2 133 151
2 24 74
2 74 80
2 80 86
2 86 92
2 92 98
2 98 104
2 104 110
2 110 116
2 116 122
2 122 128
2 128 134
2 134 163
2 36 75
2 75 81
2 81 87
2 87 93
2 93 99
2 99 105
2 105 111
2 111 117
2 117 123
2 123 129
2 129 135
2 135 175
2 48 76
2 76 82
2 82 88
2 88 94
2 94 100
2 100 106
2 106 112
2 112 118
2 118 124
2 124 130
2 130 136
2 136 187
2 60 77
2 77 83
2 83 89
2 89 95
2 95 101
2 101 107
2 107 113
2 113 119
2 119 125
2 125 131
2 131 137
2 137 199
2 72 78
2 78 84
2 84 90
2 90 96
2 96 102
2 102 108
2 108 114
2 114 120
2 120 126
2 126 132
2 132 138
2 138 211

CELL_TYPES 216
3
3
3
3
3
3
3
3
3
3
3
3
3
3
3
3
3
3
3
3
3
3
3
3
3
3
3
3
3
3
3
3
3
3
3
3
3
3
3
3
3
3
3
3
3
3
3
3
3
3
3
3
3
3
3
3
3
3
3
3
3
3
3
3
3
3
3
3
3
3
3
3
3
3
3
3
3
3
3
3
3
3
3
3
3
3
3
3
3
3
3
3
3
3
3
3
3
3
3
3
3
3
3
3
3
3
3
3
3
3
3
3
3
3
3
3
3
3
3
3
3
3
3
3
3
3
3
3
3
3
3
3
3
3
3
3
3
3
3
3
3
3
3
3
3
3
3
3
3
3
3
3
3
3
3
3
3
3
3
3
3
3
3
3
3
3
3
3
3
3
3
3
3
3
3
3
3
3
3
3
3
3
3
3
3
3
3
3
3
3
3
3
3
3
3
3
3
3
3
3
3
3
3
3
3
3
3
3
3
3
3
3
3
3
3
3
POINT_DATA 212
FIELD FieldData 8
DISPLACEMENT 3 212  float
0.0000000e+00 0.0000000e+00 0.0000000e+00 
-4.7969555e-05 0.0000000e+00 -2.0665704e-05 
-9.3944378e-05 0.0000000e+00 -4.1188869e-05 
-1.3592972e-04 0.0000000e+00 -6.1569488e-05 
-1.7193086e-04 0.0000000e+00 -8.1807564e-05 
-1.9995307e-04 0.0000000e+00 -1.0190310e-04 
-2.1800157e-04 0.0000000e+00 -1.2185610e-04 
-2.2408168e-04 0.0000000e+00 -1.4166655e-04 
-2.1619862e-04 0.0000000e+00 -1.6133446e-04 
-1.9235769e-04 0.0000000e+00 -1.8085983e-04 
-1.5056413e-04 0.0000000e+00 -2.0024266e-04 
-8.8823210e-05 0.0000000e+00 -2.1948294e-04 
-5.1401930e-06 0.0000000e+00 -2.3858069e-04 
7.0326132e-05 0.0000000e+00 -2.5579022e-04 
1.1043388e-04 0.0000000e+00 -2.7285723e-04 
1.2170315e-04 0.0000000e+00 -2.8978169e-04 
1.1065403e-04 0.0000000e+00 -3.0656360e-04 
8.3806626e-05 0.0000000e+00 -3.2320298e-04 
4.7681016e-05 0.0000000e+00 -3.3969982e-04 
8.7973058e-06 0.0000000e+00 -3.5605411e-04 
-2.6324416e-05 0.0000000e+00 -3.7226584e-04 
-5.1164054e-05 0.0000000e+00 -3.8833506e-04 
-5.9201517e-05 0.0000000e+00 -4.0426172e-04 
-4.3916709e-05 0.0000000e+00 -4.2004584e-04 
1.2104646e-06 0.0000000e+00 -4.3568743e-04 
4.8235681e-05 0.0000000e+00 -4.4944079e-04 
6.8504174e-05 0.0000000e+00 -4.6305163e-04 
6.7470348e-05 0.0000000e+00 -4.7651993e-04 
5.0588635e-05 0.0000000e+00 -4.8984570e-04 
2.3313441e-05 0.0000000e+00 -5.0302892e-04 
-8.9008117e-06 0.0000000e+00 -5.1606959e-04 
-4.0599709e-05 0.0000000e+00 -5.2896771e-04 
-6.6328830e-05 0.0000000e+00 -5.4172328e-04 
-8.0633763e-05 0.0000000e+00 -5.5433635e-04 
-7.8060089e-05 0.0000000e+00 -5.6680682e-04 
-5.3153391e-05 0.0000000e+00 -5.7913479e-04 
-4.5925373e-07 0.0000000e+00 -5.9132022e-04 
5.1515006e-05 0.0000000e+00 -6.0161744e-04 
7.4531614e-05 0.0000000e+00 -6.1177212e-04 
7.4449308e-05 0.0000000e+00 -6.2178425e-04 
5.7126828e-05 0.0000000e+00 -6.3165382e-04 
2.8422912e-05 0.0000000e+00 -6.4138084e-04 
-5.8037062e-06 0.0000000e+00 -6.5096538e-04 
-3.9694285e-05 0.0000000e+00 -6.6040736e-04 
-6.7390094e-05 0.0000000e+00 -6.6970679e-04 
-8.3032384e-05 0.0000000e+00 -6.7886367e-04 
-8.0762424e-05 0.0000000e+00 -6.8787800e-04 
-5.4721477e-05 0.0000000e+00 -6.9674978e-04 
9.4919557e-07 0.0000000e+00 -7.0547906e-04 
5.8107951e-05 0.0000000e+00 -7.1232009e-04 
8.8056040e-05 0.0000000e+00 -7.1901863e-04 
9.5816547e-05 0.0000000e+00 -7.2557456e-04 
8.6412540e-05 0.0000000e+00 -7.3198800e-04 
6.4867105e-05 0.0000000e+00 -7.3825888e-04 
3.6203313e-05 0.0000000e+00 -7.4438722e-04 
5.4442521e-06 0.0000000e+00 -7.5037306e-04 
-2.2387005e-05 0.0000000e+00 -7.5621629e-04 
-4.2267377e-05 0.0000000e+00 -7.6191704e-04 
-4.9173788e-05 0.0000000e+00 -7.6747517e-04 
-3.8083159e-05 0.0000000e+00 -7.7289081e-04 
-3.9724105e-06 0.0000000e+00 -7.7816390e-04 
2.3855671e-05 0.0000000e+00 -7.8154879e-04 
1.8429804e-05 0.0000000e+00 -7.8479119e-04 
-1.1729673e-05 0.0000000e+00 -7.8789098e-04 
-5.8102429e-05 0.0000000e+00 -7.9084822e-04 
-1.1216812e-04 0.0000000e+00 -7.9366297e-04 
-1.6540643e-04 0.0000000e+00 -7.9633517e-04 
-2.0929698e-04 0.0000000e+00 -7.9886481e-04 
-2.3531949e-04 0.0000000e+00 -8.0125191e-04 
-2.3495356e-04 0.0000000e+00 -8.0349646e-04 
-1.9967892e-04 0.0000000e+00 -8.0559845e-04 
-1.2097519e-04 0.0000000e+00 -8.0755795e-04 
9.6779468e-06 0.0000000e+00 -8.0937485e-04 
-4.2834940e-06 0.0000000e+00 -5.3730514e-04 
1.0087205e-06 0.0000000e+00 -6.7373359e-04 
-3.8271145e-07 0.0000000e+00 -8.4070419e-04 
7.9099630e-07 0.0000000e+00 -9.6225587e-04 
-3.3103422e-06 0.0000000e+00 -9.8884478e-04 
8.0649561e-06 0.0000000e+00 -1.2257058e-03 
-3.4267955e-06 0.0000000e+00 -9.6613873e-04 
8.0697640e-07 0.0000000e+00 -1.0529213e-03 
-3.0616914e-07 0.0000000e+00 -1.2291684e-03 
6.3279703e-07 0.0000000e+00 -1.3567687e-03 
-2.6482737e-06 0.0000000e+00 -1.3456426e-03 
6.4519645e-06 0.0000000e+00 -1.7507628e-03 
-2.5700965e-06 0.0000000e+00 -1.4144279e-03 
6.0523229e-07 0.0000000e+00 -1.4625969e-03 
-2.2962686e-07 0.0000000e+00 -1.6460590e-03 
4.7459778e-07 0.0000000e+00 -1.7783638e-03 
-1.9862052e-06 0.0000000e+00 -1.7379039e-03 
4.8389734e-06 0.0000000e+00 -2.2738925e-03 
-1.7133978e-06 0.0000000e+00 -1.7961086e-03 
4.0348817e-07 0.0000000e+00 -1.8166966e-03 
-1.5308459e-07 0.0000000e+00 -2.0053121e-03 
3.1639851e-07 0.0000000e+00 -2.1409774e-03 
-1.3241369e-06 0.0000000e+00 -2.0795648e-03 
3.2259823e-06 0.0000000e+00 -2.7090306e-03 
-8.5669888e-07 0.0000000e+00 -2.0497066e-03 
2.0174409e-07 0.0000000e+00 -2.0537460e-03 
-7.6542293e-08 0.0000000e+00 -2.2454539e-03 
1.5819926e-07 0.0000000e+00 -2.3831353e-03 
-6.6206843e-07 0.0000000e+00 -2.3091510e-03 
1.6129911e-06 0.0000000e+00 -2.9947034e-03 
-1.4778828e-15 0.0000000e+00 -2.1383376e-03 
-2.5117625e-15 0.0000000e+00 -2.1368610e-03 
-3.4373207e-15 0.0000000e+00 -2.3295993e-03 
-4.0178203e-15 0.0000000e+00 -2.4679529e-03 
-4.3159988e-15 0.0000000e+00 -2.3897782e-03 
-4.4839747e-15 0.0000000e+00 -3.0940257e-03 
8.5669888e-07 0.0000000e+00 -2.0497066e-03 
-2.0174410e-07 0.0000000e+00 -2.0537460e-03 
7.6542285e-08 0.0000000e+00 -2.2454539e-03 
-1.5819927e-07 0.0000000e+00 -2.3831353e-03 
6.6206843e-07 0.0000000e+00 -2.3091510e-03 
-1.6129911e-06 0.0000000e+00 -2.9947034e-03 
1.7133978e-06 0.0000000e+00 -1.7961086e-03 
-4.0348820e-07 0.0000000e+00 -1.8166966e-03 
1.5308457e-07 0.0000000e+00 -2.0053121e-03 
-3.1639851e-07 0.0000000e+00 -2.1409774e-03 
1.3241369e-06 0.0000000e+00 -2.0795648e-03 
-3.2259823e-06 0.0000000e+00 -2.7090306e-03 
2.5700965e-06 0.0000000e+00 -1.4144279e-03 
-6.0523229e-07 0.0000000e+00 -1.4625969e-03 
2.2962686e-07 0.0000000e+00 -1.6460590e-03 
-4.7459778e-07 0.0000000e+00 -1.7783638e-03 
1.9862052e-06 0.0000000e+00 -1.7379039e-03 
-4.8389734e-06 0.0000000e+00 -2.2738925e-03 
3.4267955e-06 0.0000000e+00 -9.6613873e-04 
-8.0697640e-07 0.0000000e+00 -1.0529213e-03 
3.0616914e-07 0.0000000e+00 -1.2291684e-03 
-6.3279703e-07 0.0000000e+00 -1.3567687e-03 
2.6482737e-06 0.0000000e+00 -1.3456426e-03 
-6.4519645e-06 0.0000000e+00 -1.7507628e-03 
4.2834940e-06 0.0000000e+00 -5.3730514e-04 
-1.0087205e-06 0.0000000e+00 -6.7373359e-04 
3.8271145e-07 0.0000000e+00 -8.4070419e-04 
-7.9099630e-07 0.0000000e+00 -9.6225587e-04 
3.3103422e-06 0.0000000e+00 -9.8884478e-04 
-8.0649561e-06 0.0000000e+00 -1.2257058e-03 
0.0000000e+00 0.0000000e+00 0.0000000e+00 
4.7969555e-05 0.0000000e+00 -2.0665704e-05 
9.3944378e-05 0.0000000e+00 -4.1188869e-05 
1.3592972e-04 0.0000000e+00 -6.1569488e-05 
1.7193086e-04 0.0000000e+00 -8.1807564e-05 
1.9995307e-04 0.0000000e+00 -1.0190310e-04 
2.1800157e-04 0.0000000e+00 -1.2185610e-04 
2.2408168e-04 0.0000000e+00 -1.4166655e-04 
2.1619862e-04 0.0000000e+00 -1.6133446e-04 
1.9235769e-04 0.0000000e+00 -1.8085983e-04 
1.5056413e-04 0.0000000e+00 -2.0024266e-04 
8.8823210e-05 0.0000000e+00 -2.1948294e-04 
5.1401930e-06 0.0000000e+00 -2.3858069e-04 
-7.0326132e-05 0.0000000e+00 -2.5579022e-04 
-1.1043388e-04 0.0000000e+00 -2.7285723e-04 
-1.2170315e-04 0.0000000e+00 -2.8978169e-04 
-1.1065403e-04 0.0000000e+00 -3.0656360e-04 
-8.3806626e-05 0.0000000e+00 -3.2320298e-04 
-4.7681016e-05 0.0000000e+00 -3.3969982e-04 
-8.7973058e-06 0.0000000e+00 -3.5605411e-04 
2.6324416e-05 0.0000000e+00 -3.7226584e-04 
5.1164054e-05 0.0000000e+00 -3.8833506e-04 
5.9201517e-05 0.0000000e+00 -4.0426172e-04 
4.3916709e-05 0.0000000e+00 -4.2004584e-04 
-1.2104646e-06 0.0000000e+00 -4.3568743e-04 
-4.8235681e-05 0.0000000e+00 -4.4944079e-04 
-6.8504174e-05 0.0000000e+00 -4.6305163e-04 
-6.7470348e-05 0.0000000e+00 -4.7651993e-04 
-5.0588635e-05 0.0000000e+00 -4.8984570e-04 
-2.3313441e-05 0.0000000e+00 -5.0302892e-04 
8.9008117e-06 0.0000000e+00 -5.1606959e-04 
4.0599709e-05 0.0000000e+00 -5.2896771e-04 
6.6328830e-05 0.0000000e+00 -5.4172328e-04 
8.0633763e-05 0.0000000e+00 -5.5433635e-04 
7.8060089e-05 0.0000000e+00 -5.6680682e-04 
5.3153391e-05 0.0000000e+00 -5.7913479e-04 
4.5925373e-07 0.0000000e+00 -5.9132022e-04 
-5.1515006e-05 0.0000000e+00 -6.0161744e-04 
-7.4531614e-05 0.0000000e+00 -6.1177212e-04 
-7.4449308e-05 0.0000000e+00 -6.2178425e-04 
-5.7126828e-05 0.0000000e+00 -6.3165382e-04 
-2.8422912e-05 0.0000000e+00 -6.4138084e-04 
5.8037062e-06 0.0000000e+00 -6.5096538e-04 
3.9694285e-05 0.0000000e+00 -6.6040736e-04 
6.7390094e-05 0.0000000e+00 -6.6970679e-04 
8.3032384e-05 0.0000000e+00 -6.7886367e-04 
8.0762424e-05 0.0000000e+00 -6.8787800e-04 
5.4721477e-05 0.0000000e+00 -6.9674978e-04 
-9.4919557e-07 0.0000000e+00 -7.0547906e-04 
-5.8107951e-05 0.0000000e+00 -7.1232009e-04 
-8.8056040e-05 0.0000000e+00 -7.1901863e-04 
-9.5816547e-05 0.0000000e+00 -7.2557456e-04 
-8.6412540e-05 0.0000000e+00 -7.3198800e-04 
-6.4867105e-05 0.0000000e+00 -7.3825888e-04 
-3.6203313e-05 0.0000000e+00 -7.4438722e-04 
-5.4442521e-06 0.0000000e+00 -7.5037306e-04 
2.2387005e-05 0.0000000e+00 -7.5621629e-04 
4.2267377e-05 0.0000000e+00 -7.6191704e-04 
4.9173788e-05 0.0000000e+00 -7.6747517e-04 
3.8083159e-05 0.0000000e+00 -7.7289081e-04 
3.9724105e-06 0.0000000e+00 -7.7816390e-04 
-2.3855671e-05 0.0000000e+00 -7.8154879e-04 
-1.8429804e-05 0.0000000e+00 -7.8479119e-04 
1.1729673e-05 0.0000000e+00 -7.8789098e-04 
5.8102429e-05 0.0000000e+00 -7.9084822e-04 
1.1216812e-04 0.0000000e+00 -7.9366297e-04 
1.6540643e-04 0.0000000e+00 -7.9633517e-04 
2.0929698e-04 0.0000000e+00 -7.9886481e-04 
2.3531949e-04 0.0000000e+00 -8.0125191e-04 
2.3495356e-04 0.0000000e+00 -8.0349646e-04 
1.9967892e-04 0.0000000e+00 -8.0559845e-04 
1.2097519e-04 0.0000000e+00 -8.0755795e-04 
-9.6779468e-06 0.0000000e+00 -8.0937485e-04 
ROTATION 3 212  float
0.0000000e+00 -1.9320805e-04 0.0000000e+00 
0.0000000e+00 -1.8921857e-04 0.0000000e+00 
0.0000000e+00 -1.7725016e-04 0.0000000e+00 
0.0000000e+00 -1.5730280e-04 0.0000000e+00 
0.0000000e+00 -1.2937649e-04 0.0000000e+00 
0.0000000e+00 -9.3471252e-05 0.0000000e+00 
0.0000000e+00 -4.9587059e-05 0.0000000e+00 
0.0000000e+00 2.2760742e-06 0.0000000e+00 
0.0000000e+00 6.2118153e-05 0.0000000e+00 
0.0000000e+00 1.2993917e-04 0.0000000e+00 
0.0000000e+00 2.0573914e-04 0.0000000e+00 
0.0000000e+00 2.8951804e-04 0.0000000e+00 
0.0000000e+00 3.8127590e-04 0.0000000e+00 
0.0000000e+00 2.2680142e-04 0.0000000e+00 
0.0000000e+00 9.8407312e-05 0.0000000e+00 
0.0000000e+00 -3.9064225e-06 0.0000000e+00 
0.0000000e+00 -8.0139776e-05 0.0000000e+00 
0.0000000e+00 -1.3029276e-04 0.0000000e+00 
0.0000000e+00 -1.5436536e-04 0.0000000e+00 
0.0000000e+00 -1.5235759e-04 0.0000000e+00 
0.0000000e+00 -1.2426946e-04 0.0000000e+00 
0.0000000e+00 -7.0100934e-05 0.0000000e+00 
0.0000000e+00 1.0147964e-05 0.0000000e+00 
0.0000000e+00 1.1647723e-04 0.0000000e+00 
0.0000000e+00 2.4888688e-04 0.0000000e+00 
0.0000000e+00 1.3095113e-04 0.0000000e+00 
0.0000000e+00 3.4833058e-05 0.0000000e+00 
0.0000000e+00 -3.9467352e-05 0.0000000e+00 
0.0000000e+00 -9.1950096e-05 0.0000000e+00 
0.0000000e+00 -1.2261517e-04 0.0000000e+00 
0.0000000e+00 -1.3146257e-04 0.0000000e+00 
0.0000000e+00 -1.1849232e-04 0.0000000e+00 
0.0000000e+00 -8.3704392e-05 0.0000000e+00 
0.0000000e+00 -2.7098797e-05 0.0000000e+00 
0.0000000e+00 5.1324467e-05 0.0000000e+00 
0.0000000e+00 1.5156540e-04 0.0000000e+00 
0.0000000e+00 2.7362400e-04 0.0000000e+00 
0.0000000e+00 1.4607591e-04 0.0000000e+00 
0.0000000e+00 4.1962783e-05 0.0000000e+00 
0.0000000e+00 -3.8715396e-05 0.0000000e+00 
0.0000000e+00 -9.5958625e-05 0.0000000e+00 
0.0000000e+00 -1.2976689e-04 0.0000000e+00 
0.0000000e+00 -1.4014023e-04 0.0000000e+00 
0.0000000e+00 -1.2707860e-04 0.0000000e+00 
0.0000000e+00 -9.0582020e-05 0.0000000e+00 
0.0000000e+00 -3.0650492e-05 0.0000000e+00 
0.0000000e+00 5.2715986e-05 0.0000000e+00 
0.0000000e+00 1.5951741e-04 0.0000000e+00 
0.0000000e+00 2.8975381e-04 0.0000000e+00 
0.0000000e+00 1.7086498e-04 0.0000000e+00 
0.0000000e+00 7.2068469e-05 0.0000000e+00 
0.0000000e+00 -6.6357252e-06 0.0000000e+00 
0.0000000e+00 -6.5247601e-05 0.0000000e+00 
0.0000000e+00 -1.0376717e-04 0.0000000e+00 
0.0000000e+00 -1.2219443e-04 0.0000000e+00 
0.0000000e+00 -1.2052936e-04 0.0000000e+00 
0.0000000e+00 -9.8771983e-05 0.0000000e+00 
0.0000000e+00 -5.6922287e-05 0.0000000e+00 
0.0000000e+00 5.0197182e-06 0.0000000e+00 
0.0000000e+00 8.7054039e-05 0.0000000e+00 
0.0000000e+00 1.8918068e-04 0.0000000e+00 
0.0000000e+00 3.9124207e-05 0.0000000e+00 
0.0000000e+00 -7.6850913e-05 0.0000000e+00 
0.0000000e+00 -1.5874469e-04 0.0000000e+00 
0.0000000e+00 -2.0655712e-04 0.0000000e+00 
0.0000000e+00 -2.2028820e-04 0.0000000e+00 
0.0000000e+00 -1.9993795e-04 0.0000000e+00 
0.0000000e+00 -1.4550635e-04 0.0000000e+00 
0.0000000e+00 -5.6993398e-05 0.0000000e+00 
0.0000000e+00 6.5600892e-05 0.0000000e+00 
0.0000000e+00 2.2227653e-04 0.0000000e+00 
0.0000000e+00 4.1303350e-04 0.0000000e+00 
0.0000000e+00 6.3787185e-04 0.0000000e+00 
0.0000000e+00 7.6854083e-04 0.0000000e+00 
0.0000000e+00 6.5821665e-04 0.0000000e+00 
0.0000000e+00 6.7883095e-04 0.0000000e+00 
0.0000000e+00 6.9227244e-04 0.0000000e+00 
0.0000000e+00 6.0846150e-04 0.0000000e+00 
0.0000000e+00 9.8237081e-04 0.0000000e+00 
0.0000000e+00 9.0990897e-04 0.0000000e+00 
0.0000000e+00 8.2164962e-04 0.0000000e+00 
0.0000000e+00 8.3814102e-04 0.0000000e+00 
0.0000000e+00 8.4889418e-04 0.0000000e+00 
0.0000000e+00 7.8184548e-04 0.0000000e+00 
0.0000000e+00 1.0809728e-03 0.0000000e+00 
0.0000000e+00 8.5455953e-04 0.0000000e+00 
0.0000000e+00 7.8836503e-04 0.0000000e+00 
0.0000000e+00 8.0073357e-04 0.0000000e+00 
0.0000000e+00 8.0879848e-04 0.0000000e+00 
0.0000000e+00 7.5851189e-04 0.0000000e+00 
0.0000000e+00 9.8285754e-04 0.0000000e+00 
0.0000000e+00 6.5167196e-04 0.0000000e+00 
0.0000000e+00 6.0754229e-04 0.0000000e+00 
0.0000000e+00 6.1578798e-04 0.0000000e+00 
0.0000000e+00 6.2116463e-04 0.0000000e+00 
0.0000000e+00 5.8764021e-04 0.0000000e+00 
0.0000000e+00 7.3720393e-04 0.0000000e+00 
0.0000000e+00 3.5042566e-04 0.0000000e+00 
0.0000000e+00 3.2836082e-04 0.0000000e+00 
0.0000000e+00 3.3248370e-04 0.0000000e+00 
0.0000000e+00 3.3517199e-04 0.0000000e+00 
0.0000000e+00 3.1840982e-04 0.0000000e+00 
0.0000000e+00 3.9319167e-04 0.0000000e+00 
0.0000000e+00 1.1850826e-16 0.0000000e+00 
0.0000000e+00 1.2956903e-16 0.0000000e+00 
0.0000000e+00 1.1218782e-16 0.0000000e+00 
0.0000000e+00 5.2143636e-17 0.0000000e+00 
0.0000000e+00 3.1602204e-17 0.0000000e+00 
0.0000000e+00 -5.8799555e-18 0.0000000e+00 
0.0000000e+00 -3.5042566e-04 0.0000000e+00 
0.0000000e+00 -3.2836082e-04 0.0000000e+00 
0.0000000e+00 -3.3248370e-04 0.0000000e+00 
0.0000000e+00 -3.3517199e-04 0.0000000e+00 
0.0000000e+00 -3.1840982e-04 0.0000000e+00 
0.0000000e+00 -3.9319167e-04 0.0000000e+00 
0.0000000e+00 -6.5167196e-04 0.0000000e+00 
0.0000000e+00 -6.0754229e-04 0.0000000e+00 
0.0000000e+00 -6.1578798e-04 0.0000000e+00 
0.0000000e+00 -6.2116463e-04 0.0000000e+00 
0.0000000e+00 -5.8764021e-04 0.0000000e+00 
0.0000000e+00 -7.3720393e-04 0.0000000e+00 
0.0000000e+00 -8.5455953e-04 0.0000000e+00 
0.0000000e+00 -7.8836503e-04 0.0000000e+00 
0.0000000e+00 -8.0073357e-04 0.0000000e+00 
0.0000000e+00 -8.0879848e-04 0.0000000e+00 
0.0000000e+00 -7.5851189e-04 0.0000000e+00 
0.0000000e+00 -9.8285754e-04 0.0000000e+00 
0.0000000e+00 -9.0990897e-04 0.0000000e+00 
0.0000000e+00 -8.2164962e-04 0.0000000e+00 
0.0000000e+00 -8.3814102e-04 0.0000000e+00 
0.0000000e+00 -8.4889418e-04 0.0000000e+00 
0.0000000e+00 -7.8184548e-04 0.0000000e+00 
0.0000000e+00 -1.0809728e-03 0.0000000e+00 
0.0000000e+00 -7.6854083e-04 0.0000000e+00 
0.0000000e+00 -6.5821665e-04 0.0000000e+00 
0.0000000e+00 -6.7883095e-04 0.0000000e+00 
0.0000000e+00 -6.9227244e-04 0.0000000e+00 
0.0000000e+00 -6.0846150e-04 0.0000000e+00 
0.0000000e+00 -9.8237081e-04 0.0000000e+00 
0.0000000e+00 1.9320805e-04 0.0000000e+00 
0.0000000e+00 1.8921857e-04 0.0000000e+00 
0.0000000e+00 1.7725016e-04 0.0000000e+00 
0.0000000e+00 1.5730280e-04 0.0000000e+00 
0.0000000e+00 1.2937649e-04 0.0000000e+00 
0.0000000e+00 9.3471252e-05 0.0000000e+00 
0.0000000e+00 4.9587059e-05 0.0000000e+00 
0.0000000e+00 -2.2760742e-06 0.0000000e+00 
0.0000000e+00 -6.2118153e-05 0.0000000e+00 
0.0000000e+00 -1.2993917e-04 0.0000000e+00 
0.0000000e+00 -2.0573914e-04 0.0000000e+00 
0.0000000e+00 -2.8951804e-04 0.0000000e+00 
0.0000000e+00 -3.8127590e-04 0.0000000e+00 
0.0000000e+00 -2.2680142e-04 0.0000000e+00 
0.0000000e+00 -9.8407312e-05 0.0000000e+00 
0.0000000e+00 3.9064225e-06 0.0000000e+00 
0.0000000e+00 8.0139776e-05 0.0000000e+00 
0.0000000e+00 1.3029276e-04 0.0000000e+00 
0.0000000e+00 1.5436536e-04 0.0000000e+00 
0.0000000e+00 1.5235759e-04 0.0000000e+00 
0.0000000e+00 1.2426946e-04 0.0000000e+00 
0.0000000e+00 7.0100934e-05 0.0000000e+00 
0.0000000e+00 -1.0147964e-05 0.0000000e+00 
0.0000000e+00 -1.1647723e-04 0.0000000e+00 
0.0000000e+00 -2.4888688e-04 0.0000000e+00 
0.0000000e+00 -1.3095113e-04 0.0000000e+00 
0.0000000e+00 -3.4833058e-05 0.0000000e+00 
0.0000000e+00 3.9467352e-05 0.0000000e+00 
0.0000000e+00 9.1950096e-05 0.0000000e+00 
0.0000000e+00 1.2261517e-04 0.0000000e+00 
0.0000000e+00 1.3146257e-04 0.0000000e+00 
0.0000000e+00 1.1849232e-04 0.0000000e+00 
0.0000000e+00 8.3704392e-05 0.0000000e+00 
0.0000000e+00 2.7098797e-05 0.0000000e+00 
0.0000000e+00 -5.1324467e-05 0.0000000e+00 
0.0000000e+00 -1.5156540e-04 0.0000000e+00 
0.0000000e+00 -2.7362400e-04 0.0000000e+00 
0.0000000e+00 -1.4607591e-04 0.0000000e+00 
0.0000000e+00 -4.1962783e-05 0.0000000e+00 
0.0000000e+00 3.8715396e-05 0.0000000e+00 
0.0000000e+00 9.5958625e-05 0.0000000e+00 
0.0000000e+00 1.2976689e-04 0.0000000e+00 
0.0000000e+00 1.4014023e-04 0.0000000e+00 
0.0000000e+00 1.2707860e-04 0.0000000e+00 
0.0000000e+00 9.0582020e-05 0.0000000e+00 
0.0000000e+00 3.0650492e-05 0.0000000e+00 
0.0000000e+00 -5.2715986e-05 0.0000000e+00 
0.0000000e+00 -1.5951741e-04 0.0000000e+00 
0.0000000e+00 -2.8975381e-04 0.0000000e+00 
0.0000000e+00 -1.7086498e-04 0.0000000e+00 
0.0000000e+00 -7.2068469e-05 0.0000000e+00 
0.0000000e+00 6.6357252e-06 0.0000000e+00 
0.0000000e+00 6.5247601e-05 0.0000000e+00 
0.0000000e+00 1.0376717e-04 0.0000000e+00 
0.0000000e+00 1.2219443e-04 0.0000000e+00 
0.0000000e+00 1.2052936e-04 0.0000000e+00 
0.0000000e+00 9.8771983e-05 0.0000000e+00 
0.0000000e+00 5.6922287e-05 0.0000000e+00 
0.0000000e+00 -5.0197182e-06 0.0000000e+00 
0.0000000e+00 -8.7054039e-05 0.0000000e+00 
0.0000000e+00 -1.8918068e-04 0.0000000e+00 
0.0000000e+00 -3.9124207e-05 0.0000000e+00 
0.0000000e+00 7.6850913e-05 0.0000000e+00 
0.0000000e+00 1.5874469e-04 0.0000000e+00 
0.0000000e+00 2.0655712e-04 0.0000000e+00 