# vtk DataFile Version 4.0
vtk output
ASCII
DATASET UNSTRUCTURED_GRID
POINTS 32 float
0.0000000e+00 0.0000000e+00 0.0000000e+00 
0.0000000e+00 0.0000000e+00 1.5000000e+00 
0.0000000e+00 0.0000000e+00 3.0000000e+00 
0.0000000e+00 0.0000000e+00 4.5000000e+00 
0.0000000e+00 0.0000000e+00 6.0000000e+00 
0.0000000e+00 0.0000000e+00 7.5000000e+00 
0.0000000e+00 0.0000000e+00 9.0000000e+00 
0.0000000e+00 0.0000000e+00 1.0500000e+01 
0.0000000e+00 0.0000000e+00 1.2000000e+01 
0.0000000e+00 0.0000000e+00 1.3500000e+01 
0.0000000e+00 0.0000000e+00 1.5000000e+01 
0.0000000e+00 0.0000000e+00 1.6500000e+01 
0.0000000e+00 0.0000000e+00 1.8000000e+01 
3.0000000e+00 0.0000000e+00 3.0000000e+00 
3.0000000e+00 0.0000000e+00 6.0000000e+00 
3.0000000e+00 0.0000000e+00 9.0000000e+00 
3.0000000e+00 0.0000000e+00 1.2000000e+01 
3.0000000e+00 0.0000000e+00 1.5000000e+01 
3.0000000e+00 0.0000000e+00 1.8000000e+01 
6.0000000e+00 0.0000000e+00 0.0000000e+00 
6.0000000e+00 0.0000000e+00 1.5000000e+00 
6.0000000e+00 0.0000000e+00 3.0000000e+00 
6.0000000e+00 0.0000000e+00 4.5000000e+00 
6.0000000e+00 0.0000000e+00 6.0000000e+00 
6.0000000e+00 0.0000000e+00 7.5000000e+00 
6.0000000e+00 0.0000000e+00 9.0000000e+00 
6.0000000e+00 0.0000000e+00 1.0500000e+01 
6.0000000e+00 0.0000000e+00 1.2000000e+01 
6.0000000e+00 0.0000000e+00 1.3500000e+01 
6.0000000e+00 0.0000000e+00 1.5000000e+01 
6.0000000e+00 0.0000000e+00 1.6500000e+01 
6.0000000e+00 0.0000000e+00 1.8000000e+01 

CELLS 36 108
2 0 1
2 1 2
2 2 3
2 3 4
2 4 5
2 5 6
2 6 7
2 7 8
2 8 9
2 9 10
2 10 11
2 11 12
2 19 20
2 20 21
2 21 22
2 22 23
2 23 24
2 24 25
2 25 26
2 26 27
2 27 28
2 28 29
2 29 30
2 30 31
2 2 13
2 13 21
2 4 14
2 14 23
2 6 15
2 15 25
2 8 16
2 16 27
2 10 17
2 17 29
2 12 18
2 18 31

CELL_TYPES 36
3
3
3
3
3
3
3
3
3
3
3
3
3
3
3
3
3
3
3
3
3
3
3
3
3
3
3
3
3
3
3
3
3
3
3
3
POINT_DATA 32
FIELD FieldData 8
DISPLACEMENT 3 32  float
0.0000000e+00 0.0000000e+00 0.0000000e+00 
-2.2302896e-03 0.0000000e+00 -1.6254418e-04 
-6.8841791e-06 0.0000000e+00 -3.1826223e-04 
5.1399117e-04 0.0000000e+00 -4.5314687e-04 
1.6715447e-06 0.0000000e+00 -5.8120536e-04 
-9.9043027e-05 0.0000000e+00 -6.8843050e-04 
-6.6422172e-07 0.0000000e+00 -7.8882946e-04 
-6.5843429e-05 0.0000000e+00 -8.6839503e-04 
1.3338887e-06 0.0000000e+00 -9.4113447e-04 
3.9696932e-04 0.0000000e+00 -9.9304051e-04 
-5.3662147e-06 0.0000000e+00 -1.0381204e-03 
-1.7315896e-03 0.0000000e+00 -1.0623669e-03 
1.2903811e-05 0.0000000e+00 -1.0797872e-03 
2.4930800e-17 0.0000000e+00 -2.0141101e-02 
3.8789119e-17 0.0000000e+00 -1.8337654e-02 
5.0555565e-17 0.0000000e+00 -1.8943464e-02 
5.3698593e-17 0.0000000e+00 -1.9360483e-02 
4.8770413e-17 0.0000000e+00 -1.7861526e-02 
3.8411412e-17 0.0000000e+00 -2.4844628e-02 
0.0000000e+00 0.0000000e+00 0.0000000e+00 
2.2302896e-03 0.0000000e+00 -1.6254418e-04 
6.8841791e-06 0.0000000e+00 -3.1826223e-04 
-5.1399117e-04 0.0000000e+00 -4.5314687e-04 
-1.6715447e-06 0.0000000e+00 -5.8120536e-04 
9.9043027e-05 0.0000000e+00 -6.8843050e-04 
6.6422172e-07 0.0000000e+00 -7.8882946e-04 
6.5843429e-05 0.0000000e+00 -8.6839503e-04 
-1.3338887e-06 0.0000000e+00 -9.4113447e-04 
-3.9696932e-04 0.0000000e+00 -9.9304051e-04 
5.3662147e-06 0.0000000e+00 -1.0381204e-03 
1.7315896e-03 0.0000000e+00 -1.0623669e-03 
-1.2903811e-05 0.0000000e+00 -1.0797872e-03 
ROTATION 3 32  float
0.0000000e+00 -1.9817147e-03 0.0000000e+00 
0.0000000e+00 -4.9714977e-04 0.0000000e+00 
0.0000000e+00 3.9565456e-03 0.0000000e+00 
0.0000000e+00 -1.6295966e-03 0.0000000e+00 
0.0000000e+00 2.5789521e-03 0.0000000e+00 
0.0000000e+00 -1.3570085e-03 0.0000000e+00 
0.0000000e+00 2.8444100e-03 0.0000000e+00 
0.0000000e+00 -1.4653248e-03 0.0000000e+00 
0.0000000e+00 3.0208854e-03 0.0000000e+00 
0.0000000e+00 -1.2478024e-03 0.0000000e+00 
0.0000000e+00 1.9569241e-03 0.0000000e+00 
0.0000000e+00 -2.1262327e-03 0.0000000e+00 
0.0000000e+00 6.5845465e-03 0.0000000e+00 
0.0000000e+00 -2.4247077e-18 0.0000000e+00 
0.0000000e+00 -1.7737006e-18 0.0000000e+00 
0.0000000e+00 -1.3375447e-18 0.0000000e+00 
0.0000000e+00 -1.2482062e-19 0.0000000e+00 
0.0000000e+00 8.5046213e-20 0.0000000e+00 
0.0000000e+00 2.4696584e-19 0.0000000e+00 
0.0000000e+00 1.9817147e-03 0.0000000e+00 
0.0000000e+00 4.9714977e-04 0.0000000e+00 
0.0000000e+00 -3.9565456e-03 0.0000000e+00 
0.0000000e+00 1.6295966e-03 0.0000000e+00 
0.0000000e+00 -2.5789521e-03 0.0000000e+00 
0.0000000e+00 1.3570085e-03 0.0000000e+00 
0.0000000e+00 -2.8444100e-03 0.0000000e+00 
0.0000000e+00 1.4653248e-03 0.0000000e+00 
0.0000000e+00 -3.0208854e-03 0.0000000e+00 
0.0000000e+00 1.2478024e-03 0.0000000e+00 
0.0000000e+00 -1.9569241e-03 0.0000000e+00 
0.0000000e+00 2.1262327e-03 0.0000000e+00 
0.0000000e+00 -6.5845465e-03 0.0000000e+00 
REACTION 3 32  float
4.8370178e+02 -0.0000000e+00 5.3611734e+04 
-5.6843419e-13 -0.0000000e+00 -2.3150873e-01 
1.3642421e-12 -0.0000000e+00 -1.5774778e-01 
-9.0949470e-13 -0.0000000e+00 -1.9314586e-01 
-1.1368684e-13 -0.0000000e+00 -1.3450922e-01 
-0.0000000e+00 -0.0000000e+00 -1.5260944e-01 
-4.5474735e-13 -0.0000000e+00 -9.0351418e-02 
-9.0949470e-13 -0.0000000e+00 -1.1194980e-01 
-1.7053026e-13 -0.0000000e+00 -4.9942996e-02 
6.8212103e-13 -0.0000000e+00 -7.1211584e-02 
1.1368684e-13 -0.0000000e+00 -1.0567020e-02 
4.5474735e-13 -0.0000000e+00 -2.9151466e-02 
4.5474735e-13 -0.0000000e+00 4.9196556e-02 
-4.5474735e-13 -0.0000000e+00 1.0916437e-01 
-0.0000000e+00 -0.0000000e+00 7.6738909e-02 
-0.0000000e+00 -0.0000000e+00 8.3856590e-02 
1.4779289e-12 -0.0000000e+00 8.3276637e-02 
1.0231815e-12 -0.0000000e+00 7.9243235e-02 
-4.5474735e-13 -0.0000000e+00 1.2251150e-01 
-4.8370178e+02 -0.0000000e+00 5.3611734e+04 
3.4106051e-13 -0.0000000e+00 -2.3150873e-01 
-2.2737368e-13 -0.0000000e+00 -1.5774778e-01 
2.2737368e-13 -0.0000000e+00 -1.9314586e-01 
-5.6843419e-13 -0.0000000e+00 -1.3450922e-01 
1.1368684e-12 -0.0000000e+00 -1.5260944e-01 
6.8212103e-13 -0.0000000e+00 -9.0351418e-02 
6.8212103e-13 -0.0000000e+00 -1.1194980e-01 
-6.2527761e-13 -0.0000000e+00 -4.9942996e-02 
-4.5474735e-13 -0.0000000e+00 -7.1211584e-02 
2.2737368e-13 -0.0000000e+00 -1.0567020e-02 
-1.3642421e-12 -0.0000000e+00 -2.9151466e-02 
-9.0949470e-13 -0.0000000e+00 4.9196556e-02 
REACTION_MOMENT 3 32  float
-0.0000000e+00 4.0980026e-01 -0.0000000e+00 
-0.0000000e+00 -8.1833744e-01 -0.0000000e+00 
-0.0000000e+00 2.8369877e-01 -0.0000000e+00 
-0.0000000e+00 1.8984613e-01 -0.0000000e+00 
-0.0000000e+00 -9.3715079e-02 -0.0000000e+00 
-0.0000000e+00 -3.6583420e-02 -0.0000000e+00 
-0.0000000e+00 9.3771378e-03 -0.0000000e+00 
-0.0000000e+00 -2.4320966e-02 -0.0000000e+00 
-0.0000000e+00 -8.0157667e-02 -0.0000000e+00 
-0.0000000e+00 1.4663263e-01 -0.0000000e+00 
-0.0000000e+00 2.2199768e-01 -0.0000000e+00 
-0.0000000e+00 -6.3778013e-01 -0.0000000e+00 
-0.0000000e+00 2.9546049e-01 -0.0000000e+00 
-0.0000000e+00 -0.0000000e+00 -0.0000000e+00 
-0.0000000e+00 -0.0000000e+00 -0.0000000e+00 
-0.0000000e+00 -4.5474735e-13 -0.0000000e+00 
-0.0000000e+00 -9.0949470e-13 -0.0000000e+00 
-0.0000000e+00 -0.0000000e+00 -0.0000000e+00 
-0.0000000e+00 -0.0000000e+00 -0.0000000e+00 
-0.0000000e+00 -4.0980026e-01 -0.0000000e+00 
-0.0000000e+00 8.1833744e-01 -0.0000000e+00 
-0.0000000e+00 -2.8369877e-01 -0.0000000e+00 
-0.0000000e+00 -1.8984613e-01 -0.0000000e+00 
-0.0000000e+00 9.3715079e-02 -0.0000000e+00 
-0.0000000e+00 3.6583420e-02 -0.0000000e+00 
-0.0000000e+00 -9.3771378e-03 -0.0000000e+00 
-0.0000000e+00 2.4320966e-02 -0.0000000e+00 
-0.0000000e+00 8.0157667e-02 -0.0000000e+00 
-0.0000000e+00 -1.4663263e-01 -0.0000000e+00 
-0.0000000e+00 -2.2199768e-01 -0.0000000e+00 
-0.0000000e+00 6.3778013e-01 -0.0000000e+00 
-0.0000000e+00 -2.9546049e-01 -0.0000000e+00 
VOLUME_ACCELERATION 3 32  float
0.0000000e+00 0.0000000e+00 -9.8100004e+00 
0.0000000e+00 0.0000000e+00 -9.8100004e+00 
0.0000000e+00 0.0000000e+00 -9.8100004e+00 
0.0000000e+00 0.0000000e+00 -9.8100004e+00 
0.0000000e+00 0.0000000e+00 -9.8100004e+00 
0.0000000e+00 0.0000000e+00 -9.8100004e+00 
0.0000000e+00 0.0000000e+00 -9.8100004e+00 
0.0000000e+00 0.0000000e+00 -9.8100004e+00 
0.0000000e+00 0.0000000e+00 -9.8100004e+00 
0.0000000e+00 0.0000000e+00 -9.8100004e+00 
0.0000000e+00 0.0000000e+00 -9.8100004e+00 
0.0000000e+00 0.0000000e+00 -9.8100004e+00 
0.0000000e+00 0.0000000e+00 -9.8100004e+00 
0.0000000e+00 0.0000000e+00 -9.8100004e+00 
0.0000000e+00 0.0000000e+00 -9.8100004e+00 
0.0000000e+00 0.0000000e+00 -9.8100004e+00 
0.0000000e+00 0.0000000e+00 -9.8100004e+00 
0.0000000e+00 0.0000000e+00 -9.8100004e+00 
0.0000000e+00 0.0000000e+00 -9.8100004e+00 
0.0000000e+00 0.0000000e+00 -9.8100004e+00 
0.0000000e+00 0.0000000e+00 -9.8100004e+00 
0.0000000e+00 0.0000000e+00 -9.8100004e+00 
0.0000000e+00 0.0000000e+00 -9.8100004e+00 
0.0000000e+00 0.0000000e+00 -9.8100004e+00 
0.0000000e+00 0.0000000e+00 -9.8100004e+00 
0.0000000e+00 0.0000000e+00 -9.8100004e+00 
0.0000000e+00 0.0000000e+00 -9.8100004e+00 
0.0000000e+00 0.0000000e+00 -9.8100004e+00 
0.0000000e+00 0.0000000e+00 -9.8100004e+00 
0.0000000e+00 0.0000000e+00 -9.8100004e+00 
0.0000000e+00 0.0000000e+00 -9.8100004e+00 
0.0000000e+00 0.0000000e+00 -9.8100004e+00 
LINE_LOAD 3 32  float
0.0000000e+00 0.0000000e+00 0.0000000e+00 
0.0000000e+00 0.0000000e+00 0.0000000e+00 
0.0000000e+00 0.0000000e+00 -3.8231861e+01 
0.0000000e+00 0.0000000e+00 0.0000000e+00 
0.0000000e+00 0.0000000e+00 -3.8231861e+01 
0.0000000e+00 0.0000000e+00 0.0000000e+00 
0.0000000e+00 0.0000000e+00 -3.8231861e+01 
0.0000000e+00 0.0000000e+00 0.0000000e+00 
0.0000000e+00 0.0000000e+00 -3.8231861e+01 
0.0000000e+00 0.0000000e+00 0.0000000e+00 
0.0000000e+00 0.0000000e+00 -3.8231861e+01 
0.0000000e+00 0.0000000e+00 0.0000000e+00 
0.0000000e+00 0.0000000e+00 -3.8231861e+01 
0.0000000e+00 0.0000000e+00 -3.8231861e+01 
0.0000000e+00 0.0000000e+00 -3.8231861e+01 
0.0000000e+00 0.0000000e+00 -3.8231861e+01 
0.0000000e+00 0.0000000e+00 -3.8231861e+01 
0.0000000e+00 0.0000000e+00 -3.8231861e+01 
0.0000000e+00 0.0000000e+00 -3.8231861e+01 
0.0000000e+00 0.0000000e+00 0.0000000e+00 
0.0000000e+00 0.0000000e+00 0.0000000e+00 
0.0000000e+00 0.0000000e+00 -3.8231861e+01 
0.0000000e+00 0.0000000e+00 0.0000000e+00 
0.0000000e+00 0.0000000e+00 -3.8231861e+01 
0.0000000e+00 0.0000000e+00 0.0000000e+00 
0.0000000e+00 0.0000000e+00 -3.8231861e+01 
0.0000000e+00 0.0000000e+00 0.0000000e+00 
0.0000000e+00 0.0000000e+00 -3.8231861e+01 
0.0000000e+00 0.0000000e+00 0.0000000e+00 
0.0000000e+00 0.0000000e+00 -3.8231861e+01 
0.0000000e+00 0.0000000e+00 0.0000000e+00 
0.0000000e+00 0.0000000e+00 -3.8231861e+01 
POINT_LOAD 3 32  float
0.0000000e+00 0.0000000e+00 0.0000000e+00 
0.0000000e+00 0.0000000e+00 0.0000000e+00 
0.0000000e+00 0.0000000e+00 0.0000000e+00 
0.0000000e+00 0.0000000e+00 0.0000000e+00 
0.0000000e+00 0.0000000e+00 0.0000000e+00 
0.0000000e+00 0.0000000e+00 0.0000000e+00 
0.0000000e+00 0.0000000e+00 0.0000000e+00 
0.0000000e+00 0.0000000e+00 0.0000000e+00 
0.0000000e+00 0.0000000e+00 0.0000000e+00 
0.0000000e+00 0.0000000e+00 0.0000000e+00 
0.0000000e+00 0.0000000e+00 0.0000000e+00 
0.0000000e+00 0.0000000e+00 0.0000000e+00 
0.0000000e+00 0.0000000e+00 0.0000000e+00 
0.0000000e+00 0.0000000e+00 0.0000000e+00 
0.0000000e+00 0.0000000e+00 0.0000000e+00 
0.0000000e+00 0.0000000e+00 0.0000000e+00 
0.0000000e+00 0.0000000e+00 0.0000000e+00 
0.0000000e+00 0.0000000e+00 0.0000000e+00 
0.0000000e+00 0.0000000e+00 0.0000000e+00 
0.0000000e+00 0.0000000e+00 0.0000000e+00 
0.0000000e+00 0.0000000e+00 0.0000000e+00 
0.0000000e+00 0.0000000e+00 0.0000000e+00 
0.0000000e+00 0.0000000e+00 0.0000000e+00 
0.0000000e+00 0.0000000e+00 0.0000000e+00 
0.0000000e+00 0.0000000e+00 0.0000000e+00 
0.0000000e+00 0.0000000e+00 0.0000000e+00 
0.0000000e+00 0.0000000e+00 0.0000000e+00 
0.0000000e+00 0.0000000e+00 0.0000000e+00 
0.0000000e+00 0.0000000e+00 0.0000000e+00 
0.0000000e+00 0.0000000e+00 0.0000000e+00 
0.0000000e+00 0.0000000e+00 0.0000000e+00 
0.0000000e+00 0.0000000e+00 0.0000000e+00 
POINT_MOMENT 3 32  float
0.0000000e+00 0.0000000e+00 0.0000000e+00 
0.0000000e+00 0.0000000e+00 0.0000000e+00 
0.0000000e+00 0.0000000e+00 0.0000000e+00 
0.0000000e+00 0.0000000e+00 0.0000000e+00 
0.0000000e+00 0.0000000e+00 0.0000000e+00 
0.0000000e+00 0.0000000e+00 0.0000000e+00 
0.0000000e+00 0.0000000e+00 0.0000000e+00 
0.0000000e+00 0.0000000e+00 0.0000000e+00 
0.0000000e+00 0.0000000e+00 0.0000000e+00 
0.0000000e+00 0.0000000e+00 0.0000000e+00 
0.0000000e+00 0.0000000e+00 0.0000000e+00 
0.0000000e+00 0.0000000e+00 0.0000000e+00 
0.0000000e+00 0.0000000e+00 0.0000000e+00 
0.0000000e+00 0.0000000e+00 0.0000000e+00 
0.0000000e+00 0.0000000e+00 0.0000000e+00 
0.0000000e+00 0.0000000e+00 0.0000000e+00 
0.0000000e+00 0.0000000e+00 0.0000000e+00 
0.0000000e+00 0.0000000e+00 0.0000000e+00 
0.0000000e+00 0.0000000e+00 0.0000000e+00 
0.0000000e+00 0.0000000e+00 0.0000000e+00 
0.0000000e+00 0.0000000e+00 0.0000000e+00 
0.0000000e+00 0.0000000e+00 0.0000000e+00 
0.0000000e+00 0.0000000e+00 0.0000000e+00 
0.0000000e+00 0.0000000e+00 0.0000000e+00 
0.0000000e+00 0.0000000e+00 0.0000000e+00 
0.0000000e+00 0.0000000e+00 0.0000000e+00 
0.0000000e+00 0.0000000e+00 0.0000000e+00 
0.0000000e+00 0.0000000e+00 0.0000000e+00 
0.0000000e+00 0.0000000e+00 0.0000000e+00 
0.0000000e+00 0.0000000e+00 0.0000000e+00 
0.0000000e+00 0.0000000e+00 0.0000000e+00 
0.0000000e+00 0.0000000e+00 0.0000000e+00 
CELL_DATA 36
FIELD FieldData 9
YOUNG_MODULUS 1 36  float
2.5383238e+10
2.5383238e+10
2.5383238e+10
2.5383238e+10
2.5383238e+10
2.5383238e+10
2.5383238e+10
2.5383238e+10
2.5383238e+10
2.5383238e+10
2.5383238e+10
2.5383238e+10
2.5383238e+10
2.5383238e+10
2.5383238e+10
2.5383238e+10
2.5383238e+10
2.5383238e+10
2.5383238e+10
2.5383238e+10
2.5383238e+10
2.5383238e+10
2.5383238e+10
2.5383238e+10
2.5383238e+10
2.5383238e+10
2.5383238e+10
2.5383238e+10
2.5383238e+10
2.5383238e+10
2.5383238e+10
2.5383238e+10
2.5383238e+10
2.5383238e+10
2.5383238e+10
2.5383238e+10
DENSITY 1 36  float
7.8500000e+03
7.8500000e+03
7.8500000e+03
7.8500000e+03
7.8500000e+03
7.8500000e+03
7.8500000e+03
7.8500000e+03
7.8500000e+03
7.8500000e+03
7.8500000e+03
7.8500000e+03
7.8500000e+03
7.8500000e+03
7.8500000e+03
7.8500000e+03
7.8500000e+03
7.8500000e+03
7.8500000e+03
7.8500000e+03
7.8500000e+03
7.8500000e+03
7.8500000e+03
7.8500000e+03
7.8500000e+03
7.8500000e+03
7.8500000e+03
7.8500000e+03
7.8500000e+03
7.8500000e+03
7.8500000e+03
7.8500000e+03
7.8500000e+03
7.8500000e+03
7.8500000e+03
7.8500000e+03
CROSS_AREA 1 36  float
1.9090129e-02
1.9090129e-02
1.9090129e-02
1.9090129e-02
1.9090129e-02
1.9090129e-02
1.9090129e-02
1.9090129e-02
1.9090129e-02
1.9090129e-02
1.9090129e-02
1.9090129e-02
1.9090129e-02
1.9090129e-02
1.9090129e-02
1.9090129e-02
1.9090129e-02
1.9090129e-02
1.9090129e-02
1.9090129e-02
1.9090129e-02
1.9090129e-02
1.9090129e-02
1.9090129e-02
1.9090129e-02
1.9090129e-02
1.9090129e-02
1.9090129e-02
1.9090129e-02
1.9090129e-02
1.9090129e-02
1.9090129e-02
1.9090129e-02
1.9090129e-02
1.9090129e-02
1.9090129e-02
I22 1 36  float
1.4440558e-05
1.4440558e-05
1.4440558e-05
1.4440558e-05
1.4440558e-05
1.4440558e-05
1.4440558e-05
1.4440558e-05
1.4440558e-05
1.4440558e-05
1.4440558e-05
1.4440558e-05
1.4440558e-05
1.4440558e-05
1.4440558e-05
1.4440558e-05
1.4440558e-05
1.4440558e-05
1.4440558e-05
1.4440558e-05
1.4440558e-05
1.4440558e-05
1.4440558e-05
1.4440558e-05
1.4440558e-05
1.4440558e-05
1.4440558e-05
1.4440558e-05
1.4440558e-05
1.4440558e-05
1.4440558e-05
1.4440558e-05
1.4440558e-05
1.4440558e-05
1.4440558e-05
1.4440558e-05
I33 1 36  float
9.9999997e-06
9.9999997e-06
9.9999997e-06
9.9999997e-06
9.9999997e-06
9.9999997e-06
9.9999997e-06
9.9999997e-06
9.9999997e-06
9.9999997e-06
9.9999997e-06
9.9999997e-06
9.9999997e-06
9.9999997e-06
9.9999997e-06
9.9999997e-06
9.9999997e-06
9.9999997e-06
9.9999997e-06
9.9999997e-06
9.9999997e-06
9.9999997e-06
9.9999997e-06
9.9999997e-06
9.9999997e-06
9.9999997e-06
9.9999997e-06
9.9999997e-06
9.9999997e-06
9.9999997e-06
9.9999997e-06
9.9999997e-06
9.9999997e-06
9.9999997e-06
9.9999997e-06
9.9999997e-06
TORSIONAL_INERTIA 1 36  float
3.5970561e-06
3.5970561e-06
3.5970561e-06
3.5970561e-06
3.5970561e-06
3.5970561e-06
3.5970561e-06
3.5970561e-06
3.5970561e-06
3.5970561e-06
3.5970561e-06
3.5970561e-06
3.5970561e-06
3.5970561e-06
3.5970561e-06
3.5970561e-06
3.5970561e-06
3.5970561e-06
3.5970561e-06
3.5970561e-06
3.5970561e-06
3.5970561e-06
3.5970561e-06
3.5970561e-06
3.5970561e-06
3.5970561e-06
3.5970561e-06
3.5970561e-06
3.5970561e-06
3.5970561e-06
3.5970561e-06
3.5970561e-06
3.5970561e-06
3.5970561e-06
3.5970561e-06
3.5970561e-06
POISSON_RATIO 1 36  float
3.0000001e-01
3.0000001e-01
3.0000001e-01
3.0000001e-01
3.0000001e-01
3.0000001e-01
3.0000001e-01
3.0000001e-01
3.0000001e-01
3.0000001e-01
3.0000001e-01
3.0000001e-01
3.0000001e-01
3.0000001e-01
3.0000001e-01
3.0000001e-01
3.0000001e-01
3.0000001e-01
3.0000001e-01
3.0000001e-01
3.0000001e-01
3.0000001e-01
3.0000001e-01
3.0000001e-01
3.0000001e-01
3.0000001e-01
3.0000001e-01
3.0000001e-01
3.0000001e-01
3.0000001e-01
3.0000001e-01
3.0000001e-01
3.0000001e-01
3.0000001e-01
3.0000001e-01
3.0000001e-01
MOMENT 3 36  float
0.0000000e+00 3.6277634e+02 0.0000000e+00 
0.0000000e+00 1.0883290e+03 0.0000000e+00 
0.0000000e+00 -1.3650598e+03 0.0000000e+00 
0.0000000e+00 1.0284237e+03 0.0000000e+00 
0.0000000e+00 -9.6181256e+02 0.0000000e+00 
0.0000000e+00 1.0266813e+03 0.0000000e+00 
0.0000000e+00 -1.0531500e+03 0.0000000e+00 
0.0000000e+00 1.0962745e+03 0.0000000e+00 
0.0000000e+00 -1.0431196e+03 0.0000000e+00 
0.0000000e+00 7.8312427e+02 0.0000000e+00 
0.0000000e+00 -9.9778223e+02 0.0000000e+00 
0.0000000e+00 2.1286130e+03 0.0000000e+00 
0.0000000e+00 -3.6277634e+02 0.0000000e+00 
0.0000000e+00 -1.0883290e+03 0.0000000e+00 
0.0000000e+00 1.3650598e+03 0.0000000e+00 
0.0000000e+00 -1.0284237e+03 0.0000000e+00 
0.0000000e+00 9.6181256e+02 0.0000000e+00 
0.0000000e+00 -1.0266813e+03 0.0000000e+00 
0.0000000e+00 1.0531500e+03 0.0000000e+00 
0.0000000e+00 -1.0962745e+03 0.0000000e+00 
0.0000000e+00 1.0431196e+03 0.0000000e+00 
0.0000000e+00 -7.8312427e+02 0.0000000e+00 
0.0000000e+00 9.9778223e+02 0.0000000e+00 
0.0000000e+00 -2.1286130e+03 0.0000000e+00 
0.0000000e+00 -4.8342139e+02 0.0000000e+00 
0.0000000e+00 -4.8342139e+02 0.0000000e+00 
0.0000000e+00 -3.1510333e+02 0.0000000e+00 
0.0000000e+00 -3.1510333e+02 0.0000000e+00 
0.0000000e+00 -3.4753769e+02 0.0000000e+00 
0.0000000e+00 -3.4753769e+02 0.0000000e+00 
0.0000000e+00 -3.6909991e+02 0.0000000e+00 
0.0000000e+00 -3.6909991e+02 0.0000000e+00 
0.0000000e+00 -2.3910226e+02 0.0000000e+00 
0.0000000e+00 -2.3910226e+02 0.0000000e+00 
0.0000000e+00 -8.0451764e+02 0.0000000e+00 
0.0000000e+00 -8.0451764e+02 0.0000000e+00 
FORCE 3 36  float
-5.2509273e+04 0.0000000e+00 4.8370178e+02 
-5.0304121e+04 0.0000000e+00 4.8370178e+02 
-4.3573965e+04 0.0000000e+00 1.5956556e+03 
-4.1368812e+04 0.0000000e+00 1.5956556e+03 
-3.4638656e+04 0.0000000e+00 1.3256626e+03 
-3.2433504e+04 0.0000000e+00 1.3256626e+03 
-2.5703350e+04 0.0000000e+00 1.4329497e+03 
-2.3498195e+04 0.0000000e+00 1.4329497e+03 
-1.6768041e+04 0.0000000e+00 1.2174958e+03 
-1.4562888e+04 0.0000000e+00 1.2174958e+03 
-7.8327319e+03 0.0000000e+00 2.0842634e+03 
-5.6275786e+03 0.0000000e+00 2.0842634e+03 
-5.2509273e+04 0.0000000e+00 -4.8370178e+02 
-5.0304121e+04 0.0000000e+00 -4.8370178e+02 
-4.3573965e+04 0.0000000e+00 -1.5956556e+03 
-4.1368812e+04 0.0000000e+00 -1.5956556e+03 
-3.4638656e+04 0.0000000e+00 -1.3256626e+03 
-3.2433504e+04 0.0000000e+00 -1.3256626e+03 
-2.5703350e+04 0.0000000e+00 -1.4329497e+03 
-2.3498195e+04 0.0000000e+00 -1.4329497e+03 
-1.6768041e+04 0.0000000e+00 -1.2174958e+03 
-1.4562888e+04 0.0000000e+00 -1.2174958e+03 
-7.8327319e+03 0.0000000e+00 -2.0842634e+03 
-5.6275786e+03 0.0000000e+00 -2.0842634e+03 
1.1119539e+03 0.0000000e+00 -2.2625010e+03 
1.1119539e+03 0.0000000e+00 2.2625010e+03 
-2.6999307e+02 0.0000000e+00 -2.2625010e+03 
-2.6999307e+02 0.0000000e+00 2.2625010e+03 
1.0728715e+02 0.0000000e+00 -2.2625010e+03 
1.0728715e+02 0.0000000e+00 2.2625010e+03 
-2.1545383e+02 0.0000000e+00 -2.2625010e+03 
-2.1545383e+02 0.0000000e+00 2.2625010e+03 
8.6676758e+02 0.0000000e+00 -2.2625010e+03 
8.6676758e+02 0.0000000e+00 2.2625010e+03 
-2.0842634e+03 0.0000000e+00 -2.2625010e+03 
-2.0842634e+03 0.0000000e+00 2.2625010e+03 
