# vtk DataFile Version 4.0
vtk output
ASCII
DATASET UNSTRUCTURED_GRID
POINTS 30 float
0.0000000e+00 0.0000000e+00 0.0000000e+00 
0.0000000e+00 0.0000000e+00 8.0000001e-01 
0.0000000e+00 0.0000000e+00 1.6000000e+00 
0.0000000e+00 0.0000000e+00 2.4000001e+00 
0.0000000e+00 0.0000000e+00 3.2000000e+00 
0.0000000e+00 0.0000000e+00 4.0000000e+00 
0.0000000e+00 0.0000000e+00 4.8000002e+00 
0.0000000e+00 0.0000000e+00 5.5999999e+00 
0.0000000e+00 0.0000000e+00 6.4000001e+00 
0.0000000e+00 0.0000000e+00 7.1999998e+00 
0.0000000e+00 0.0000000e+00 8.0000000e+00 
1.0000000e+01 0.0000000e+00 0.0000000e+00 
1.0000000e+01 0.0000000e+00 8.0000001e-01 
1.0000000e+01 0.0000000e+00 1.6000000e+00 
1.0000000e+01 0.0000000e+00 2.4000001e+00 
1.0000000e+01 0.0000000e+00 3.2000000e+00 
1.0000000e+01 0.0000000e+00 4.0000000e+00 
1.0000000e+01 0.0000000e+00 4.8000002e+00 
1.0000000e+01 0.0000000e+00 5.5999999e+00 
1.0000000e+01 0.0000000e+00 6.4000001e+00 
1.0000000e+01 0.0000000e+00 7.1999998e+00 
1.0000000e+01 0.0000000e+00 8.0000000e+00 
2.0000000e+00 0.0000000e+00 4.0000000e+00 
4.0000000e+00 0.0000000e+00 4.0000000e+00 
6.0000000e+00 0.0000000e+00 4.0000000e+00 
8.0000000e+00 0.0000000e+00 4.0000000e+00 
2.0000000e+00 0.0000000e+00 8.0000000e+00 
4.0000000e+00 0.0000000e+00 8.0000000e+00 
6.0000000e+00 0.0000000e+00 8.0000000e+00 
8.0000000e+00 0.0000000e+00 8.0000000e+00 

CELLS 30 90
2 0 1
2 1 2
2 2 3
2 3 4
2 4 5
2 5 6
2 6 7
2 7 8
2 8 9
2 9 10
2 11 12
2 12 13
2 13 14
2 14 15
2 15 16
2 16 17
2 17 18
2 18 19
2 19 20
2 20 21
2 5 22
2 22 23
2 23 24
2 24 25
2 25 16
2 10 26
2 26 27
2 27 28
2 28 29
2 29 21

CELL_TYPES 30
3
3
3
3
3
3
3
3
3
3
3
3
3
3
3
3
3
3
3
3
3
3
3
3
3
3
3
3
3
3
POINT_DATA 30
FIELD FieldData 7
DISPLACEMENT 3 30  float
0.0000000e+00 0.0000000e+00 0.0000000e+00 
7.6096249e-04 0.0000000e+00 -1.4379051e-06 
1.5181863e-03 0.0000000e+00 -5.5445294e-06 
2.2584740e-03 0.0000000e+00 -1.1815369e-05 
2.8971443e-03 0.0000000e+00 -1.4437450e-05 
3.4015477e-03 0.0000000e+00 -1.9064741e-05 
3.8565684e-03 0.0000000e+00 -2.1300149e-05 
4.3087662e-03 0.0000000e+00 -2.3535556e-05 
4.7423653e-03 0.0000000e+00 -2.6136480e-05 
5.1466827e-03 0.0000000e+00 -2.8737402e-05 
5.5364659e-03 0.0000000e+00 -2.9846211e-05 
0.0000000e+00 0.0000000e+00 0.0000000e+00 
7.0920220e-04 0.0000000e+00 -3.8708404e-07 
1.4136946e-03 0.0000000e+00 5.3544164e-07 
2.1333275e-03 0.0000000e+00 2.4419858e-06 
2.8293601e-03 0.0000000e+00 9.8913472e-07 
3.3512588e-03 0.0000000e+00 2.9493938e-06 
3.7378031e-03 0.0000000e+00 5.0353806e-06 
4.1708117e-03 0.0000000e+00 4.5871056e-06 
4.6647345e-03 0.0000000e+00 4.6069144e-06 
5.1534241e-03 0.0000000e+00 2.1648641e-06 
5.4669385e-03 0.0000000e+00 -2.7718627e-07 
3.3916982e-03 0.0000000e+00 -8.7521493e-04 
3.3766686e-03 0.0000000e+00 -1.2482982e-03 
3.3687914e-03 0.0000000e+00 -9.1717747e-04 
3.3606992e-03 0.0000000e+00 -5.4302203e-05 
5.5194451e-03 0.0000000e+00 -1.2048339e-03 
5.5024242e-03 0.0000000e+00 -1.9850463e-03 
5.4894364e-03 0.0000000e+00 -1.6093786e-03 
5.4781875e-03 0.0000000e+00 -4.7147600e-04 
ROTATION 3 30  float
0.0000000e+00 9.5264910e-04 0.0000000e+00 
0.0000000e+00 9.4831112e-04 0.0000000e+00 
0.0000000e+00 9.4730483e-04 0.0000000e+00 
0.0000000e+00 8.7813742e-04 0.0000000e+00 
0.0000000e+00 7.1123836e-04 0.0000000e+00 
0.0000000e+00 5.6343566e-04 0.0000000e+00 
0.0000000e+00 5.7056383e-04 0.0000000e+00 
0.0000000e+00 5.5637932e-04 0.0000000e+00 
0.0000000e+00 5.2565790e-04 0.0000000e+00 
0.0000000e+00 4.8317524e-04 0.0000000e+00 
0.0000000e+00 5.1951793e-04 0.0000000e+00 
0.0000000e+00 8.8933646e-04 0.0000000e+00 
0.0000000e+00 8.8083540e-04 0.0000000e+00 
0.0000000e+00 8.8867679e-04 0.0000000e+00 
0.0000000e+00 9.0492738e-04 0.0000000e+00 
0.0000000e+00 8.0035918e-04 0.0000000e+00 
0.0000000e+00 4.6087793e-04 0.0000000e+00 
0.0000000e+00 5.0760980e-04 0.0000000e+00 
0.0000000e+00 5.8200746e-04 0.0000000e+00 
0.0000000e+00 6.4035360e-04 0.0000000e+00 
0.0000000e+00 5.4137374e-04 0.0000000e+00 
0.0000000e+00 2.0241547e-04 0.0000000e+00 
0.0000000e+00 3.1309164e-04 0.0000000e+00 
0.0000000e+00 2.8048042e-05 0.0000000e+00 
0.0000000e+00 -3.6234001e-04 0.0000000e+00 
0.0000000e+00 -3.6968203e-04 0.0000000e+00 
0.0000000e+00 5.7213492e-04 0.0000000e+00 
0.0000000e+00 1.2474261e-04 0.0000000e+00 
0.0000000e+00 -4.6428829e-04 0.0000000e+00 
0.0000000e+00 -5.3794478e-04 0.0000000e+00 
REACTION 3 30  float
-4.2701962e+02 -0.0000000e+00 3.7745010e+03 
-1.6370905e-11 -0.0000000e+00 -0.0000000e+00 
6.4028427e-10 -0.0000000e+00 -3.6379788e-12 
-4.0563464e-10 -0.0000000e+00 5.4569682e-12 
1.5779733e-09 -0.0000000e+00 1.4551915e-11 
-2.3719622e-09 -0.0000000e+00 -8.8220986e-11 
1.7462298e-10 -0.0000000e+00 -9.4587449e-11 
3.6743586e-10 -0.0000000e+00 7.2759576e-12 
3.2014214e-10 -0.0000000e+00 2.1827873e-11 
1.0913936e-11 -0.0000000e+00 -1.0004442e-11 
-3.0195224e-10 -0.0000000e+00 9.0949470e-12 
-8.3682104e+02 -0.0000000e+00 1.0160956e+03 
1.6552804e-10 -0.0000000e+00 -1.0913936e-11 
7.0258466e-10 -0.0000000e+00 3.4560799e-11 
-4.8385118e-10 -0.0000000e+00 -2.5011104e-11 
-1.0422809e-09 -0.0000000e+00 -5.0931703e-11 
-1.2187229e-09 -0.0000000e+00 -4.1291059e-10 
3.6561687e-10 -0.0000000e+00 3.6379788e-12 
-1.0695658e-09 -0.0000000e+00 -1.8189894e-12 
6.4210326e-10 -0.0000000e+00 -3.3105607e-10 
8.7311491e-11 -0.0000000e+00 -0.0000000e+00 
1.3969839e-09 -0.0000000e+00 2.1827873e-10 
5.0931703e-11 -0.0000000e+00 2.1418600e-10 
-4.7657522e-10 -0.0000000e+00 1.5006663e-11 
2.0190782e-10 -0.0000000e+00 -1.8917490e-10 
1.7807906e-09 -0.0000000e+00 7.2759576e-12 
9.3132257e-10 -0.0000000e+00 -2.9103830e-11 
-1.3315002e-09 -0.0000000e+00 2.5465852e-11 
-5.2386895e-10 -0.0000000e+00 1.0913936e-11 
-0.0000000e+00 -0.0000000e+00 -9.0949470e-13 
REACTION_MOMENT 3 30  float
-0.0000000e+00 -4.3655746e-11 -0.0000000e+00 
-0.0000000e+00 -1.4551915e-11 -0.0000000e+00 
-0.0000000e+00 2.7648639e-10 -0.0000000e+00 
-0.0000000e+00 5.0931703e-11 -0.0000000e+00 
-0.0000000e+00 1.5425030e-09 -0.0000000e+00 
-0.0000000e+00 7.1304385e-10 -0.0000000e+00 
-0.0000000e+00 5.5297278e-10 -0.0000000e+00 
-0.0000000e+00 1.9645086e-10 -0.0000000e+00 
-0.0000000e+00 2.1827873e-10 -0.0000000e+00 
-0.0000000e+00 -6.9849193e-10 -0.0000000e+00 
-0.0000000e+00 -5.6388672e-10 -0.0000000e+00 
-0.0000000e+00 -4.3655746e-11 -0.0000000e+00 
-0.0000000e+00 -1.4551915e-11 -0.0000000e+00 
-0.0000000e+00 2.9103830e-11 -0.0000000e+00 
-0.0000000e+00 8.0035534e-11 -0.0000000e+00 
-0.0000000e+00 1.0186341e-10 -0.0000000e+00 
-0.0000000e+00 1.0186341e-10 -0.0000000e+00 
-0.0000000e+00 -1.6734703e-10 -0.0000000e+00 
-0.0000000e+00 -9.4587449e-11 -0.0000000e+00 
-0.0000000e+00 4.3655746e-11 -0.0000000e+00 
-0.0000000e+00 -2.0190782e-10 -0.0000000e+00 
-0.0000000e+00 -2.2919266e-10 -0.0000000e+00 
-0.0000000e+00 8.1399776e-11 -0.0000000e+00 
-0.0000000e+00 4.2746251e-11 -0.0000000e+00 
-0.0000000e+00 -3.0922820e-11 -0.0000000e+00 
-0.0000000e+00 -1.8189894e-11 -0.0000000e+00 
-0.0000000e+00 7.7307050e-12 -0.0000000e+00 
-0.0000000e+00 -3.6379788e-12 -0.0000000e+00 
-0.0000000e+00 -7.2759576e-12 -0.0000000e+00 
-0.0000000e+00 8.1854523e-12 -0.0000000e+00 
VOLUME_ACCELERATION 3 30  float
0.0000000e+00 0.0000000e+00 0.0000000e+00 
0.0000000e+00 0.0000000e+00 0.0000000e+00 
0.0000000e+00 0.0000000e+00 0.0000000e+00 
0.0000000e+00 0.0000000e+00 0.0000000e+00 
0.0000000e+00 0.0000000e+00 0.0000000e+00 
0.0000000e+00 0.0000000e+00 0.0000000e+00 
0.0000000e+00 0.0000000e+00 0.0000000e+00 
0.0000000e+00 0.0000000e+00 0.0000000e+00 
0.0000000e+00 0.0000000e+00 0.0000000e+00 
0.0000000e+00 0.0000000e+00 0.0000000e+00 
0.0000000e+00 0.0000000e+00 0.0000000e+00 
0.0000000e+00 0.0000000e+00 0.0000000e+00 
0.0000000e+00 0.0000000e+00 0.0000000e+00 
0.0000000e+00 0.0000000e+00 0.0000000e+00 
0.0000000e+00 0.0000000e+00 0.0000000e+00 
0.0000000e+00 0.0000000e+00 0.0000000e+00 
0.0000000e+00 0.0000000e+00 0.0000000e+00 
0.0000000e+00 0.0000000e+00 0.0000000e+00 
0.0000000e+00 0.0000000e+00 0.0000000e+00 
0.0000000e+00 0.0000000e+00 0.0000000e+00 
0.0000000e+00 0.0000000e+00 0.0000000e+00 
0.0000000e+00 0.0000000e+00 0.0000000e+00 
0.0000000e+00 0.0000000e+00 0.0000000e+00 
0.0000000e+00 0.0000000e+00 0.0000000e+00 
0.0000000e+00 0.0000000e+00 0.0000000e+00 
0.0000000e+00 0.0000000e+00 0.0000000e+00 
0.0000000e+00 0.0000000e+00 0.0000000e+00 
0.0000000e+00 0.0000000e+00 0.0000000e+00 
0.0000000e+00 0.0000000e+00 0.0000000e+00 
0.0000000e+00 0.0000000e+00 0.0000000e+00 
POINT_LOAD 3 30  float
0.0000000e+00 0.0000000e+00 0.0000000e+00 
1.1820026e+03 0.0000000e+00 7.0053872e+03 
-8.2195801e+03 0.0000000e+00 5.6810669e+03 
5.3087393e+03 0.0000000e+00 -9.5779951e+03 
6.1915107e+03 0.0000000e+00 5.2636797e+03 
5.2573867e+03 0.0000000e+00 -7.2415137e+03 
0.0000000e+00 0.0000000e+00 0.0000000e+00 
4.7011081e+02 0.0000000e+00 9.5947729e+02 
0.0000000e+00 0.0000000e+00 0.0000000e+00 
8.9171143e+03 0.0000000e+00 -3.9167996e+03 
9.5335713e+03 0.0000000e+00 1.0269497e+03 
0.0000000e+00 0.0000000e+00 0.0000000e+00 
3.2823521e+03 0.0000000e+00 -3.4377256e+03 
-4.0632849e+03 0.0000000e+00 -2.5830483e+03 
-8.6575938e+03 0.0000000e+00 8.8184121e+03 
-2.5735527e+03 0.0000000e+00 -8.9594141e+03 
3.5644971e+03 0.0000000e+00 6.6841079e+03 
1.4671788e+03 0.0000000e+00 6.6524375e+03 
-5.7706108e+03 0.0000000e+00 -1.2287192e+03 
-8.1360938e+03 0.0000000e+00 6.4623799e+03 
0.0000000e+00 0.0000000e+00 0.0000000e+00 
0.0000000e+00 0.0000000e+00 0.0000000e+00 
5.4389502e+03 0.0000000e+00 2.4721548e+03 
-7.5098931e+03 0.0000000e+00 -1.3594983e+03 
2.2574690e+02 0.0000000e+00 -6.3326514e+03 
1.4156652e+03 0.0000000e+00 -8.3133069e+02 
0.0000000e+00 0.0000000e+00 0.0000000e+00 
-4.2343843e+03 0.0000000e+00 -5.6443374e+03 
-1.8259922e+03 0.0000000e+00 -4.7036177e+03 
0.0000000e+00 0.0000000e+00 0.0000000e+00 
POINT_MOMENT 3 30  float
0.0000000e+00 0.0000000e+00 0.0000000e+00 
0.0000000e+00 0.0000000e+00 0.0000000e+00 
0.0000000e+00 0.0000000e+00 0.0000000e+00 
0.0000000e+00 0.0000000e+00 0.0000000e+00 
0.0000000e+00 0.0000000e+00 0.0000000e+00 
0.0000000e+00 0.0000000e+00 0.0000000e+00 
0.0000000e+00 0.0000000e+00 0.0000000e+00 
0.0000000e+00 0.0000000e+00 0.0000000e+00 
0.0000000e+00 0.0000000e+00 0.0000000e+00 
0.0000000e+00 0.0000000e+00 0.0000000e+00 
0.0000000e+00 0.0000000e+00 0.0000000e+00 
0.0000000e+00 0.0000000e+00 0.0000000e+00 
0.0000000e+00 0.0000000e+00 0.0000000e+00 
0.0000000e+00 0.0000000e+00 0.0000000e+00 
0.0000000e+00 0.0000000e+00 0.0000000e+00 
0.0000000e+00 0.0000000e+00 0.0000000e+00 
0.0000000e+00 0.0000000e+00 0.0000000e+00 
0.0000000e+00 0.0000000e+00 0.0000000e+00 
0.0000000e+00 0.0000000e+00 0.0000000e+00 
0.0000000e+00 0.0000000e+00 0.0000000e+00 
0.0000000e+00 0.0000000e+00 0.0000000e+00 
0.0000000e+00 0.0000000e+00 0.0000000e+00 
0.0000000e+00 0.0000000e+00 0.0000000e+00 
0.0000000e+00 0.0000000e+00 0.0000000e+00 
0.0000000e+00 0.0000000e+00 0.0000000e+00 
0.0000000e+00 0.0000000e+00 0.0000000e+00 
0.0000000e+00 0.0000000e+00 0.0000000e+00 
0.0000000e+00 0.0000000e+00 0.0000000e+00 
0.0000000e+00 0.0000000e+00 0.0000000e+00 
0.0000000e+00 0.0000000e+00 0.0000000e+00 
CELL_DATA 30
FIELD FieldData 9
YOUNG_MODULUS 1 30  float
2.1000000e+11
2.1000000e+11
2.1000000e+11
2.1000000e+11
2.1000000e+11
2.1000000e+11
2.1000000e+11
2.1000000e+11
2.1000000e+11
2.1000000e+11
2.1000000e+11
2.1000000e+11
2.1000000e+11
2.1000000e+11
2.1000000e+11
2.1000000e+11
2.1000000e+11
2.1000000e+11
2.1000000e+11
2.1000000e+11
2.1000000e+11
2.1000000e+11
2.1000000e+11
2.1000000e+11
2.1000000e+11
2.1000000e+11
2.1000000e+11
2.1000000e+11
2.1000000e+11
2.1000000e+11
DENSITY 1 30  float
7.8500000e+03
7.8500000e+03
7.8500000e+03
7.8500000e+03
7.8500000e+03
7.8500000e+03
7.8500000e+03
7.8500000e+03
7.8500000e+03
7.8500000e+03
7.8500000e+03
7.8500000e+03
7.8500000e+03
7.8500000e+03
7.8500000e+03
7.8500000e+03
7.8500000e+03
7.8500000e+03
7.8500000e+03
7.8500000e+03
7.8500000e+03
7.8500000e+03
7.8500000e+03
7.8500000e+03
7.8500000e+03
7.8500000e+03
7.8500000e+03
7.8500000e+03
7.8500000e+03
7.8500000e+03
CROSS_AREA 1 30  float
9.9999998e-03
9.9999998e-03
9.9999998e-03
9.9999998e-03
9.9999998e-03
9.9999998e-03
9.9999998e-03
9.9999998e-03
9.9999998e-03
9.9999998e-03
9.9999998e-03
9.9999998e-03
9.9999998e-03
9.9999998e-03
9.9999998e-03
9.9999998e-03
9.9999998e-03
9.9999998e-03
9.9999998e-03
9.9999998e-03
9.9999998e-03
9.9999998e-03
9.9999998e-03
9.9999998e-03
9.9999998e-03
9.9999998e-03
9.9999998e-03
9.9999998e-03
9.9999998e-03
9.9999998e-03
I22 1 30  float
1.5000001e-04
1.5000001e-04
1.5000001e-04
1.5000001e-04
1.5000001e-04
1.5000001e-04
1.5000001e-04
1.5000001e-04
1.5000001e-04
1.5000001e-04
1.5000001e-04
1.5000001e-04
1.5000001e-04
1.5000001e-04
1.5000001e-04
1.5000001e-04
1.5000001e-04
1.5000001e-04
1.5000001e-04
1.5000001e-04
1.5000001e-04
1.5000001e-04
1.5000001e-04
1.5000001e-04
1.5000001e-04
1.5000001e-04
1.5000001e-04
1.5000001e-04
1.5000001e-04
1.5000001e-04
I33 1 30  float
1.5000001e-04
1.5000001e-04
1.5000001e-04
1.5000001e-04
1.5000001e-04
1.5000001e-04
1.5000001e-04
1.5000001e-04
1.5000001e-04
1.5000001e-04
1.5000001e-04
1.5000001e-04
1.5000001e-04
1.5000001e-04
1.5000001e-04
1.5000001e-04
1.5000001e-04
1.5000001e-04
1.5000001e-04
1.5000001e-04
1.5000001e-04
1.5000001e-04
1.5000001e-04
1.5000001e-04
1.5000001e-04
1.5000001e-04
1.5000001e-04
1.5000001e-04
1.5000001e-04
1.5000001e-04
TORSIONAL_INERTIA 1 30  float
3.0000001e-04
3.0000001e-04
3.0000001e-04
3.0000001e-04
3.0000001e-04
3.0000001e-04
3.0000001e-04
3.0000001e-04
3.0000001e-04
3.0000001e-04
3.0000001e-04
3.0000001e-04
3.0000001e-04
3.0000001e-04
3.0000001e-04
3.0000001e-04
3.0000001e-04
3.0000001e-04
3.0000001e-04
3.0000001e-04
3.0000001e-04
3.0000001e-04
3.0000001e-04
3.0000001e-04
3.0000001e-04
3.0000001e-04
3.0000001e-04
3.0000001e-04
3.0000001e-04
3.0000001e-04
POISSON_RATIO 1 30  float
3.0000001e-01
3.0000001e-01
3.0000001e-01
3.0000001e-01
3.0000001e-01
3.0000001e-01
3.0000001e-01
3.0000001e-01
3.0000001e-01
3.0000001e-01
3.0000001e-01
3.0000001e-01
3.0000001e-01
3.0000001e-01
3.0000001e-01
3.0000001e-01
3.0000001e-01
3.0000001e-01
3.0000001e-01
3.0000001e-01
3.0000001e-01
3.0000001e-01
3.0000001e-01
3.0000001e-01
3.0000001e-01
3.0000001e-01
3.0000001e-01
3.0000001e-01
3.0000001e-01
3.0000001e-01
MOMENT 3 30  float
0.0000000e+00 -1.7080785e+02 0.0000000e+00 
0.0000000e+00 -3.9622509e+01 0.0000000e+00 
0.0000000e+00 -2.7234683e+03 0.0000000e+00 
0.0000000e+00 -6.5716499e+03 0.0000000e+00 
0.0000000e+00 -5.8197319e+03 0.0000000e+00 
0.0000000e+00 2.8067233e+02 0.0000000e+00 
0.0000000e+00 -5.5851428e+02 0.0000000e+00 
0.0000000e+00 -1.2096566e+03 0.0000000e+00 
0.0000000e+00 -1.6727546e+03 0.0000000e+00 
0.0000000e+00 1.4309932e+03 0.0000000e+00 
0.0000000e+00 -3.3472842e+02 0.0000000e+00 
0.0000000e+00 3.0875558e+02 0.0000000e+00 
0.0000000e+00 6.3986652e+02 0.0000000e+00 
0.0000000e+00 -4.1173740e+03 0.0000000e+00 
0.0000000e+00 -1.3367073e+04 0.0000000e+00 
0.0000000e+00 1.8400663e+03 0.0000000e+00 
0.0000000e+00 2.9294092e+03 0.0000000e+00 
0.0000000e+00 2.2973792e+03 0.0000000e+00 
0.0000000e+00 -3.8973325e+03 0.0000000e+00 
0.0000000e+00 -1.3346481e+04 0.0000000e+00 
0.0000000e+00 -3.9429180e+03 0.0000000e+00 
0.0000000e+00 -4.4894365e+03 0.0000000e+00 
0.0000000e+00 -6.1486118e+03 0.0000000e+00 
0.0000000e+00 -1.1563712e+02 0.0000000e+00 
0.0000000e+00 1.3081319e+04 0.0000000e+00 
0.0000000e+00 8.2871710e+02 0.0000000e+00 
0.0000000e+00 -7.0464287e+03 0.0000000e+00 
0.0000000e+00 -9.2772363e+03 0.0000000e+00 
0.0000000e+00 -1.1600901e+03 0.0000000e+00 
0.0000000e+00 1.1660674e+04 0.0000000e+00 
FORCE 3 30  float
-3.7745010e+03 0.0000000e+00 -4.2701962e+02 
-1.0779889e+04 0.0000000e+00 7.5498297e+02 
-1.6460955e+04 0.0000000e+00 -7.4645972e+03 
-6.8829609e+03 0.0000000e+00 -2.1558577e+03 
-1.2146641e+04 0.0000000e+00 4.0356531e+03 
-5.8679453e+03 0.0000000e+00 -1.0489833e+03 
-5.8679453e+03 0.0000000e+00 -1.0489833e+03 
-6.8274224e+03 0.0000000e+00 -5.7887250e+02 
-6.8274224e+03 0.0000000e+00 -5.7887250e+02 
-2.9106230e+03 0.0000000e+00 8.3382422e+03 
-1.0160956e+03 0.0000000e+00 -8.3682104e+02 
2.4216299e+03 0.0000000e+00 2.4455310e+03 
5.0046782e+03 0.0000000e+00 -1.6177538e+03 
-3.8137339e+03 0.0000000e+00 -1.0275348e+04 
5.1456797e+03 0.0000000e+00 -1.2848900e+04 
5.4757158e+03 0.0000000e+00 6.2808911e+02 
-1.1767216e+03 0.0000000e+00 2.0952678e+03 
5.1997646e+01 0.0000000e+00 -3.6753428e+03 
-6.4103823e+03 0.0000000e+00 -1.1811437e+04 
-6.4103823e+03 0.0000000e+00 -1.1811437e+04 
-1.0342023e+04 0.0000000e+00 9.6281812e+02 
-1.5780974e+04 0.0000000e+00 -1.5093367e+03 
-8.2710801e+03 0.0000000e+00 -1.4983846e+02 
-8.4968271e+03 0.0000000e+00 6.1828130e+03 
-9.9124922e+03 0.0000000e+00 7.0141440e+03 
-1.7871812e+04 0.0000000e+00 -3.9375728e+03 
-1.7871812e+04 0.0000000e+00 -3.9375728e+03 
-1.3637429e+04 0.0000000e+00 1.7067645e+03 
-1.1811437e+04 0.0000000e+00 6.4103823e+03 
-1.1811437e+04 0.0000000e+00 6.4103823e+03 
