# vtk DataFile Version 4.0
vtk output
ASCII
DATASET UNSTRUCTURED_GRID
POINTS 212 float
0.0000000e+00 0.0000000e+00 0.0000000e+00 
0.0000000e+00 0.0000000e+00 2.5000000e-01 
0.0000000e+00 0.0000000e+00 5.0000000e-01 
0.0000000e+00 0.0000000e+00 7.5000000e-01 
0.0000000e+00 0.0000000e+00 1.0000000e+00 
0.0000000e+00 0.0000000e+00 1.2500000e+00 
0.0000000e+00 0.0000000e+00 1.5000000e+00 
0.0000000e+00 0.0000000e+00 1.7500000e+00 
0.0000000e+00 0.0000000e+00 2.0000000e+00 
0.0000000e+00 0.0000000e+00 2.2500000e+00 
0.0000000e+00 0.0000000e+00 2.5000000e+00 
0.0000000e+00 0.0000000e+00 2.7500000e+00 
0.0000000e+00 0.0000000e+00 3.0000000e+00 
0.0000000e+00 0.0000000e+00 3.2500000e+00 
0.0000000e+00 0.0000000e+00 3.5000000e+00 
0.0000000e+00 0.0000000e+00 3.7500000e+00 
0.0000000e+00 0.0000000e+00 4.0000000e+00 
0.0000000e+00 0.0000000e+00 4.2500000e+00 
0.0000000e+00 0.0000000e+00 4.5000000e+00 
0.0000000e+00 0.0000000e+00 4.7500000e+00 
0.0000000e+00 0.0000000e+00 5.0000000e+00 
0.0000000e+00 0.0000000e+00 5.2500000e+00 
0.0000000e+00 0.0000000e+00 5.5000000e+00 
0.0000000e+00 0.0000000e+00 5.7500000e+00 
0.0000000e+00 0.0000000e+00 6.0000000e+00 
0.0000000e+00 0.0000000e+00 6.2500000e+00 
0.0000000e+00 0.0000000e+00 6.5000000e+00 
0.0000000e+00 0.0000000e+00 6.7500000e+00 
0.0000000e+00 0.0000000e+00 7.0000000e+00 
0.0000000e+00 0.0000000e+00 7.2500000e+00 
0.0000000e+00 0.0000000e+00 7.5000000e+00 
0.0000000e+00 0.0000000e+00 7.7500000e+00 
0.0000000e+00 0.0000000e+00 8.0000000e+00 
0.0000000e+00 0.0000000e+00 8.2500000e+00 
0.0000000e+00 0.0000000e+00 8.5000000e+00 
0.0000000e+00 0.0000000e+00 8.7500000e+00 
0.0000000e+00 0.0000000e+00 9.0000000e+00 
0.0000000e+00 0.0000000e+00 9.2500000e+00 
0.0000000e+00 0.0000000e+00 9.5000000e+00 
0.0000000e+00 0.0000000e+00 9.7500000e+00 
0.0000000e+00 0.0000000e+00 1.0000000e+01 
0.0000000e+00 0.0000000e+00 1.0250000e+01 
0.0000000e+00 0.0000000e+00 1.0500000e+01 
0.0000000e+00 0.0000000e+00 1.0750000e+01 
0.0000000e+00 0.0000000e+00 1.1000000e+01 
0.0000000e+00 0.0000000e+00 1.1250000e+01 
0.0000000e+00 0.0000000e+00 1.1500000e+01 
0.0000000e+00 0.0000000e+00 1.1750000e+01 
0.0000000e+00 0.0000000e+00 1.2000000e+01 
0.0000000e+00 0.0000000e+00 1.2250000e+01 
0.0000000e+00 0.0000000e+00 1.2500000e+01 
0.0000000e+00 0.0000000e+00 1.2750000e+01 
0.0000000e+00 0.0000000e+00 1.3000000e+01 
0.0000000e+00 0.0000000e+00 1.3250000e+01 
0.0000000e+00 0.0000000e+00 1.3500000e+01 
0.0000000e+00 0.0000000e+00 1.3750000e+01 
0.0000000e+00 0.0000000e+00 1.4000000e+01 
0.0000000e+00 0.0000000e+00 1.4250000e+01 
0.0000000e+00 0.0000000e+00 1.4500000e+01 
0.0000000e+00 0.0000000e+00 1.4750000e+01 
0.0000000e+00 0.0000000e+00 1.5000000e+01 
0.0000000e+00 0.0000000e+00 1.5250000e+01 
0.0000000e+00 0.0000000e+00 1.5500000e+01 
0.0000000e+00 0.0000000e+00 1.5750000e+01 
0.0000000e+00 0.0000000e+00 1.6000000e+01 
0.0000000e+00 0.0000000e+00 1.6250000e+01 
0.0000000e+00 0.0000000e+00 1.6500000e+01 
0.0000000e+00 0.0000000e+00 1.6750000e+01 
0.0000000e+00 0.0000000e+00 1.7000000e+01 
0.0000000e+00 0.0000000e+00 1.7250000e+01 
0.0000000e+00 0.0000000e+00 1.7500000e+01 
0.0000000e+00 0.0000000e+00 1.7750000e+01 
0.0000000e+00 0.0000000e+00 1.8000000e+01 
6.0000000e+00 0.0000000e+00 0.0000000e+00 
6.0000000e+00 0.0000000e+00 2.5000000e-01 
6.0000000e+00 0.0000000e+00 5.0000000e-01 
6.0000000e+00 0.0000000e+00 7.5000000e-01 
6.0000000e+00 0.0000000e+00 1.0000000e+00 
6.0000000e+00 0.0000000e+00 1.2500000e+00 
6.0000000e+00 0.0000000e+00 1.5000000e+00 
6.0000000e+00 0.0000000e+00 1.7500000e+00 
6.0000000e+00 0.0000000e+00 2.0000000e+00 
6.0000000e+00 0.0000000e+00 2.2500000e+00 
6.0000000e+00 0.0000000e+00 2.5000000e+00 
6.0000000e+00 0.0000000e+00 2.7500000e+00 
6.0000000e+00 0.0000000e+00 3.0000000e+00 
6.0000000e+00 0.0000000e+00 3.2500000e+00 
6.0000000e+00 0.0000000e+00 3.5000000e+00 
6.0000000e+00 0.0000000e+00 3.7500000e+00 
6.0000000e+00 0.0000000e+00 4.0000000e+00 
6.0000000e+00 0.0000000e+00 4.2500000e+00 
6.0000000e+00 0.0000000e+00 4.5000000e+00 
6.0000000e+00 0.0000000e+00 4.7500000e+00 
6.0000000e+00 0.0000000e+00 5.0000000e+00 
6.0000000e+00 0.0000000e+00 5.2500000e+00 
6.0000000e+00 0.0000000e+00 5.5000000e+00 
6.0000000e+00 0.0000000e+00 5.7500000e+00 
6.0000000e+00 0.0000000e+00 6.0000000e+00 
6.0000000e+00 0.0000000e+00 6.2500000e+00 
6.0000000e+00 0.0000000e+00 6.5000000e+00 
6.0000000e+00 0.0000000e+00 6.7500000e+00 
6.0000000e+00 0.0000000e+00 7.0000000e+00 
6.0000000e+00 0.0000000e+00 7.2500000e+00 
6.0000000e+00 0.0000000e+00 7.5000000e+00 
6.0000000e+00 0.0000000e+00 7.7500000e+00 
6.0000000e+00 0.0000000e+00 8.0000000e+00 
6.0000000e+00 0.0000000e+00 8.2500000e+00 
6.0000000e+00 0.0000000e+00 8.5000000e+00 
6.0000000e+00 0.0000000e+00 8.7500000e+00 
6.0000000e+00 0.0000000e+00 9.0000000e+00 
6.0000000e+00 0.0000000e+00 9.2500000e+00 
6.0000000e+00 0.0000000e+00 9.5000000e+00 
6.0000000e+00 0.0000000e+00 9.7500000e+00 
6.0000000e+00 0.0000000e+00 1.0000000e+01 
6.0000000e+00 0.0000000e+00 1.0250000e+01 
6.0000000e+00 0.0000000e+00 1.0500000e+01 
6.0000000e+00 0.0000000e+00 1.0750000e+01 
6.0000000e+00 0.0000000e+00 1.1000000e+01 
6.0000000e+00 0.0000000e+00 1.1250000e+01 
6.0000000e+00 0.0000000e+00 1.1500000e+01 
6.0000000e+00 0.0000000e+00 1.1750000e+01 
6.0000000e+00 0.0000000e+00 1.2000000e+01 
6.0000000e+00 0.0000000e+00 1.2250000e+01 
6.0000000e+00 0.0000000e+00 1.2500000e+01 
6.0000000e+00 0.0000000e+00 1.2750000e+01 
6.0000000e+00 0.0000000e+00 1.3000000e+01 
6.0000000e+00 0.0000000e+00 1.3250000e+01 
6.0000000e+00 0.0000000e+00 1.3500000e+01 
6.0000000e+00 0.0000000e+00 1.3750000e+01 
6.0000000e+00 0.0000000e+00 1.4000000e+01 
6.0000000e+00 0.0000000e+00 1.4250000e+01 
6.0000000e+00 0.0000000e+00 1.4500000e+01 
6.0000000e+00 0.0000000e+00 1.4750000e+01 
6.0000000e+00 0.0000000e+00 1.5000000e+01 
6.0000000e+00 0.0000000e+00 1.5250000e+01 
6.0000000e+00 0.0000000e+00 1.5500000e+01 
6.0000000e+00 0.0000000e+00 1.5750000e+01 
6.0000000e+00 0.0000000e+00 1.6000000e+01 
6.0000000e+00 0.0000000e+00 1.6250000e+01 
6.0000000e+00 0.0000000e+00 1.6500000e+01 
6.0000000e+00 0.0000000e+00 1.6750000e+01 
6.0000000e+00 0.0000000e+00 1.7000000e+01 
6.0000000e+00 0.0000000e+00 1.7250000e+01 
6.0000000e+00 0.0000000e+00 1.7500000e+01 
6.0000000e+00 0.0000000e+00 1.7750000e+01 
6.0000000e+00 0.0000000e+00 1.8000000e+01 
5.0000000e-01 0.0000000e+00 3.0000000e+00 
1.0000000e+00 0.0000000e+00 3.0000000e+00 
1.5000000e+00 0.0000000e+00 3.0000000e+00 
2.0000000e+00 0.0000000e+00 3.0000000e+00 
2.5000000e+00 0.0000000e+00 3.0000000e+00 
3.0000000e+00 0.0000000e+00 3.0000000e+00 
3.5000000e+00 0.0000000e+00 3.0000000e+00 
4.0000000e+00 0.0000000e+00 3.0000000e+00 
4.5000000e+00 0.0000000e+00 3.0000000e+00 
5.0000000e+00 0.0000000e+00 3.0000000e+00 
5.5000000e+00 0.0000000e+00 3.0000000e+00 
5.0000000e-01 0.0000000e+00 6.0000000e+00 
1.0000000e+00 0.0000000e+00 6.0000000e+00 
1.5000000e+00 0.0000000e+00 6.0000000e+00 
2.0000000e+00 0.0000000e+00 6.0000000e+00 
2.5000000e+00 0.0000000e+00 6.0000000e+00 
3.0000000e+00 0.0000000e+00 6.0000000e+00 
3.5000000e+00 0.0000000e+00 6.0000000e+00 
4.0000000e+00 0.0000000e+00 6.0000000e+00 
4.5000000e+00 0.0000000e+00 6.0000000e+00 
5.0000000e+00 0.0000000e+00 6.0000000e+00 
5.5000000e+00 0.0000000e+00 6.0000000e+00 
5.0000000e-01 0.0000000e+00 9.0000000e+00 
1.0000000e+00 0.0000000e+00 9.0000000e+00 
1.5000000e+00 0.0000000e+00 9.0000000e+00 
2.0000000e+00 0.0000000e+00 9.0000000e+00 
2.5000000e+00 0.0000000e+00 9.0000000e+00 
3.0000000e+00 0.0000000e+00 9.0000000e+00 
3.5000000e+00 0.0000000e+00 9.0000000e+00 
4.0000000e+00 0.0000000e+00 9.0000000e+00 
4.5000000e+00 0.0000000e+00 9.0000000e+00 
5.0000000e+00 0.0000000e+00 9.0000000e+00 
5.5000000e+00 0.0000000e+00 9.0000000e+00 
5.0000000e-01 0.0000000e+00 1.2000000e+01 
1.0000000e+00 0.0000000e+00 1.2000000e+01 
1.5000000e+00 0.0000000e+00 1.2000000e+01 
2.0000000e+00 0.0000000e+00 1.2000000e+01 
2.5000000e+00 0.0000000e+00 1.2000000e+01 
3.0000000e+00 0.0000000e+00 1.2000000e+01 
3.5000000e+00 0.0000000e+00 1.2000000e+01 
4.0000000e+00 0.0000000e+00 1.2000000e+01 
4.5000000e+00 0.0000000e+00 1.2000000e+01 
5.0000000e+00 0.0000000e+00 1.2000000e+01 
5.5000000e+00 0.0000000e+00 1.2000000e+01 
5.0000000e-01 0.0000000e+00 1.5000000e+01 
1.0000000e+00 0.0000000e+00 1.5000000e+01 
1.5000000e+00 0.0000000e+00 1.5000000e+01 
2.0000000e+00 0.0000000e+00 1.5000000e+01 
2.5000000e+00 0.0000000e+00 1.5000000e+01 
3.0000000e+00 0.0000000e+00 1.5000000e+01 
3.5000000e+00 0.0000000e+00 1.5000000e+01 
4.0000000e+00 0.0000000e+00 1.5000000e+01 
4.5000000e+00 0.0000000e+00 1.5000000e+01 
5.0000000e+00 0.0000000e+00 1.5000000e+01 
5.5000000e+00 0.0000000e+00 1.5000000e+01 
5.0000000e-01 0.0000000e+00 1.8000000e+01 
1.0000000e+00 0.0000000e+00 1.8000000e+01 
1.5000000e+00 0.0000000e+00 1.8000000e+01 
2.0000000e+00 0.0000000e+00 1.8000000e+01 
2.5000000e+00 0.0000000e+00 1.8000000e+01 
3.0000000e+00 0.0000000e+00 1.8000000e+01 
3.5000000e+00 0.0000000e+00 1.8000000e+01 
4.0000000e+00 0.0000000e+00 1.8000000e+01 
4.5000000e+00 0.0000000e+00 1.8000000e+01 
5.0000000e+00 0.0000000e+00 1.8000000e+01 
5.5000000e+00 0.0000000e+00 1.8000000e+01 

CELLS 216 648
2 0 1
2 1 2
2 2 3
2 3 4
2 4 5
2 5 6
2 6 7
2 7 8
2 8 9
2 9 10
2 10 11
2 11 12
2 12 13
2 13 14
2 14 15
2 15 16
2 16 17
2 17 18
2 18 19
2 19 20
2 20 21
2 21 22
2 22 23
2 23 24
2 24 25
2 25 26
2 26 27
2 27 28
2 28 29
2 29 30
2 30 31
2 31 32
2 32 33
2 33 34
2 34 35
2 35 36
2 36 37
2 37 38
2 38 39
2 39 40
2 40 41
2 41 42
2 42 43
2 43 44
2 44 45
2 45 46
2 46 47
2 47 48
2 48 49
2 49 50
2 50 51
2 51 52
2 52 53
2 53 54
2 54 55
2 55 56
2 56 57
2 57 58
2 58 59
2 59 60
2 60 61
2 61 62
2 62 63
2 63 64
2 64 65
2 65 66
2 66 67
2 67 68
2 68 69
2 69 70
2 70 71
2 71 72
2 73 74
2 74 75
2 75 76
2 76 77
2 77 78
2 78 79
2 79 80
2 80 81
2 81 82
2 82 83
2 83 84
2 84 85
2 85 86
2 86 87
2 87 88
2 88 89
2 89 90
2 90 91
2 91 92
2 92 93
2 93 94
2 94 95
2 95 96
2 96 97
2 97 98
2 98 99
2 99 100
2 100 101
2 101 102
2 102 103
2 103 104
2 104 105
2 105 106
2 106 107
2 107 108
2 108 109
2 109 110
2 110 111
2 111 112
2 112 113
2 113 114
2 114 115
2 115 116
2 116 117
2 117 118
2 118 119
2 119 120
2 120 121
2 121 122
2 122 123
2 123 124
2 124 125
2 125 126
2 126 127
2 127 128
2 128 129
2 129 130
2 130 131
2 131 132
2 132 133
2 133 134
2 134 135
2 135 136
2 136 137
2 137 138
2 138 139
2 139 140
2 140 141
2 141 142
2 142 143
2 143 144
2 144 145
2 12 146
2 146 147
2 147 148
2 148 149
2 149 150
2 150 151
2 151 152
2 152 153
2 153 154
2 154 155
2 155 156
2 156 85
2 24 157
2 157 158
2 158 159
2 159 160
2 160 161
2 161 162
2 162 163
2 163 164
2 164 165
2 165 166
2 166 167
2 167 97
2 36 168
2 168 169
2 169 170
2 170 171
2 171 172
2 172 173
2 173 174
2 174 175
2 175 176
2 176 177
2 177 178
2 178 109
2 48 179
2 179 180
2 180 181
2 181 182
2 182 183
2 183 184
2 184 185
2 185 186
2 186 187
2 187 188
2 188 189
2 189 121
2 60 190
2 190 191
2 191 192
2 192 193
2 193 194
2 194 195
2 195 196
2 196 197
2 197 198
2 198 199
2 199 200
2 200 133
2 72 201
2 201 202
2 202 203
2 203 204
2 204 205
2 205 206
2 206 207
2 207 208
2 208 209
2 209 210
2 210 211
2 211 145

CELL_TYPES 216
3
3
3
3
3
3
3
3
3
3
3
3
3
3
3
3
3
3
3
3
3
3
3
3
3
3
3
3
3
3
3
3
3
3
3
3
3
3
3
3
3
3
3
3
3
3
3
3
3
3
3
3
3
3
3
3
3
3
3
3
3
3
3
3
3
3
3
3
3
3
3
3
3
3
3
3
3
3
3
3
3
3
3
3
3
3
3
3
3
3
3
3
3
3
3
3
3
3
3
3
3
3
3
3
3
3
3
3
3
3
3
3
3
3
3
3
3
3
3
3
3
3
3
3
3
3
3
3
3
3
3
3
3
3
3
3
3
3
3
3
3
3
3
3
3
3
3
3
3
3
3
3
3
3
3
3
3
3
3
3
3
3
3
3
3
3
3
3
3
3
3
3
3
3
3
3
3
3
3
3
3
3
3
3
3
3
3
3
3
3
3
3
3
3
3
3
3
3
3
3
3
3
3
3
3
3
3
3
3
3
3
3
3
3
3
3
POINT_DATA 212
FIELD FieldData 7
DISPLACEMENT 3 212  float
0.0000000e+00 0.0000000e+00 0.0000000e+00 
-9.8201803e-05 0.0000000e+00 -4.0134697e-07 
-1.9228390e-04 0.0000000e+00 -8.0269393e-07 
-2.7812654e-04 0.0000000e+00 -1.2040409e-06 
-3.5161004e-04 0.0000000e+00 -1.6053879e-06 
-4.0861467e-04 0.0000000e+00 -2.0067348e-06 
-4.4502068e-04 0.0000000e+00 -2.4080819e-06 
-4.5670840e-04 0.0000000e+00 -2.8094289e-06 
-4.3955809e-04 0.0000000e+00 -3.2107757e-06 
-3.8945003e-04 0.0000000e+00 -3.6121228e-06 
-3.0226450e-04 0.0000000e+00 -4.0134696e-06 
-1.7388177e-04 0.0000000e+00 -4.4148169e-06 
-1.8214591e-07 0.0000000e+00 -4.8161637e-06 
1.5612791e-04 0.0000000e+00 -5.1506195e-06 
2.3866644e-04 0.0000000e+00 -5.4850752e-06 
2.6103991e-04 0.0000000e+00 -5.8195310e-06 
2.3685484e-04 0.0000000e+00 -6.1539868e-06 
1.7971770e-04 0.0000000e+00 -6.4884430e-06 
1.0323497e-04 0.0000000e+00 -6.8228987e-06 
2.1013131e-05 0.0000000e+00 -7.1573545e-06 
-5.3341322e-05 0.0000000e+00 -7.4918103e-06 
-1.0622191e-04 0.0000000e+00 -7.8262656e-06 
-1.2402215e-04 0.0000000e+00 -8.1607222e-06 
-9.3135532e-05 0.0000000e+00 -8.4951780e-06 
4.4399471e-08 0.0000000e+00 -8.8296338e-06 
9.7461860e-05 0.0000000e+00 -9.0971980e-06 
1.3951940e-04 0.0000000e+00 -9.3647632e-06 
1.3751104e-04 0.0000000e+00 -9.6323274e-06 
1.0273078e-04 0.0000000e+00 -9.8998917e-06 
4.6472655e-05 0.0000000e+00 -1.0167457e-05 
-1.9969342e-05 0.0000000e+00 -1.0435021e-05 
-8.5301188e-05 0.0000000e+00 -1.0702586e-05 
-1.3822888e-04 0.0000000e+00 -1.0970150e-05 
-1.6745839e-04 0.0000000e+00 -1.1237716e-05 
-1.6169572e-04 0.0000000e+00 -1.1505280e-05 
-1.0964683e-04 0.0000000e+00 -1.1772845e-05 
-1.7744346e-08 0.0000000e+00 -1.2040409e-05 
1.0791781e-04 0.0000000e+00 -1.2241083e-05 
1.5550220e-04 0.0000000e+00 -1.2441757e-05 
1.5495361e-04 0.0000000e+00 -1.2642429e-05 
1.1849026e-04 0.0000000e+00 -1.2843103e-05 
5.8330341e-05 0.0000000e+00 -1.3043777e-05 
-1.3307957e-05 0.0000000e+00 -1.3244450e-05 
-8.4206426e-05 0.0000000e+00 -1.3445124e-05 
-1.4214688e-04 0.0000000e+00 -1.3645797e-05 
-1.7491111e-04 0.0000000e+00 -1.3846470e-05 
-1.7028092e-04 0.0000000e+00 -1.4047144e-05 
-1.1603811e-04 0.0000000e+00 -1.4247817e-05 
3.5507842e-08 0.0000000e+00 -1.4448491e-05 
1.1949803e-04 0.0000000e+00 -1.4582273e-05 
1.8267463e-04 0.0000000e+00 -1.4716055e-05 
1.9993415e-04 0.0000000e+00 -1.4849838e-05 
1.8164539e-04 0.0000000e+00 -1.4983621e-05 
1.3817722e-04 0.0000000e+00 -1.5117403e-05 
7.9898440e-05 0.0000000e+00 -1.5251185e-05 
1.7177903e-05 0.0000000e+00 -1.5384967e-05 
-3.9615566e-05 0.0000000e+00 -1.5518750e-05 
-8.0113139e-05 0.0000000e+00 -1.5652531e-05 
-9.3945979e-05 0.0000000e+00 -1.5786314e-05 
-7.0745256e-05 0.0000000e+00 -1.5920097e-05 
-1.4213884e-07 0.0000000e+00 -1.6053878e-05 
5.6893281e-05 0.0000000e+00 -1.6120770e-05 
4.4326294e-05 0.0000000e+00 -1.6187661e-05 
-2.0071207e-05 0.0000000e+00 -1.6254553e-05 
-1.1852732e-04 0.0000000e+00 -1.6321444e-05 
-2.3327016e-04 0.0000000e+00 -1.6388334e-05 
-3.4652781e-04 0.0000000e+00 -1.6455226e-05 
-4.4052838e-04 0.0000000e+00 -1.6522117e-05 
-4.9750000e-04 0.0000000e+00 -1.6589009e-05 
-4.9967074e-04 0.0000000e+00 -1.6655900e-05 
-4.2926872e-04 0.0000000e+00 -1.6722790e-05 
-2.6852204e-04 0.0000000e+00 -1.6789681e-05 
3.4122041e-07 0.0000000e+00 -1.6856573e-05 
0.0000000e+00 0.0000000e+00 0.0000000e+00 
9.8201803e-05 0.0000000e+00 -4.0134697e-07 
1.9228390e-04 0.0000000e+00 -8.0269393e-07 
2.7812654e-04 0.0000000e+00 -1.2040409e-06 
3.5161004e-04 0.0000000e+00 -1.6053879e-06 
4.0861467e-04 0.0000000e+00 -2.0067348e-06 
4.4502068e-04 0.0000000e+00 -2.4080819e-06 
4.5670840e-04 0.0000000e+00 -2.8094289e-06 
4.3955809e-04 0.0000000e+00 -3.2107757e-06 
3.8945003e-04 0.0000000e+00 -3.6121228e-06 
3.0226450e-04 0.0000000e+00 -4.0134696e-06 
1.7388177e-04 0.0000000e+00 -4.4148169e-06 
1.8214593e-07 0.0000000e+00 -4.8161637e-06 
-1.5612791e-04 0.0000000e+00 -5.1506195e-06 
-2.3866644e-04 0.0000000e+00 -5.4850752e-06 
-2.6103991e-04 0.0000000e+00 -5.8195310e-06 
-2.3685484e-04 0.0000000e+00 -6.1539868e-06 
-1.7971770e-04 0.0000000e+00 -6.4884430e-06 
-1.0323497e-04 0.0000000e+00 -6.8228987e-06 
-2.1013131e-05 0.0000000e+00 -7.1573545e-06 
5.3341322e-05 0.0000000e+00 -7.4918103e-06 
1.0622191e-04 0.0000000e+00 -7.8262656e-06 
1.2402215e-04 0.0000000e+00 -8.1607222e-06 
9.3135532e-05 0.0000000e+00 -8.4951780e-06 
-4.4399460e-08 0.0000000e+00 -8.8296338e-06 
-9.7461860e-05 0.0000000e+00 -9.0971980e-06 
-1.3951940e-04 0.0000000e+00 -9.3647632e-06 
-1.3751104e-04 0.0000000e+00 -9.6323274e-06 
-1.0273078e-04 0.0000000e+00 -9.8998917e-06 
-4.6472655e-05 0.0000000e+00 -1.0167457e-05 
1.9969342e-05 0.0000000e+00 -1.0435021e-05 
8.5301188e-05 0.0000000e+00 -1.0702586e-05 
1.3822888e-04 0.0000000e+00 -1.0970150e-05 
1.6745839e-04 0.0000000e+00 -1.1237716e-05 
1.6169572e-04 0.0000000e+00 -1.1505280e-05 
1.0964683e-04 0.0000000e+00 -1.1772845e-05 
1.7744357e-08 0.0000000e+00 -1.2040409e-05 
-1.0791781e-04 0.0000000e+00 -1.2241083e-05 
-1.5550220e-04 0.0000000e+00 -1.2441757e-05 
-1.5495361e-04 0.0000000e+00 -1.2642429e-05 
-1.1849026e-04 0.0000000e+00 -1.2843103e-05 
-5.8330341e-05 0.0000000e+00 -1.3043777e-05 
1.3307957e-05 0.0000000e+00 -1.3244450e-05 
8.4206426e-05 0.0000000e+00 -1.3445124e-05 
1.4214688e-04 0.0000000e+00 -1.3645797e-05 
1.7491111e-04 0.0000000e+00 -1.3846470e-05 
1.7028092e-04 0.0000000e+00 -1.4047144e-05 
1.1603811e-04 0.0000000e+00 -1.4247817e-05 
-3.5507831e-08 0.0000000e+00 -1.4448491e-05 
-1.1949803e-04 0.0000000e+00 -1.4582273e-05 
-1.8267463e-04 0.0000000e+00 -1.4716055e-05 
-1.9993415e-04 0.0000000e+00 -1.4849838e-05 
-1.8164539e-04 0.0000000e+00 -1.4983621e-05 
-1.3817722e-04 0.0000000e+00 -1.5117403e-05 
-7.9898440e-05 0.0000000e+00 -1.5251185e-05 
-1.7177903e-05 0.0000000e+00 -1.5384967e-05 
3.9615566e-05 0.0000000e+00 -1.5518750e-05 
8.0113139e-05 0.0000000e+00 -1.5652531e-05 
9.3945979e-05 0.0000000e+00 -1.5786314e-05 
7.0745256e-05 0.0000000e+00 -1.5920097e-05 
1.4213886e-07 0.0000000e+00 -1.6053878e-05 
-5.6893281e-05 0.0000000e+00 -1.6120770e-05 
-4.4326294e-05 0.0000000e+00 -1.6187661e-05 
2.0071207e-05 0.0000000e+00 -1.6254553e-05 
1.1852732e-04 0.0000000e+00 -1.6321444e-05 
2.3327016e-04 0.0000000e+00 -1.6388334e-05 
3.4652781e-04 0.0000000e+00 -1.6455226e-05 
4.4052838e-04 0.0000000e+00 -1.6522117e-05 
4.9750000e-04 0.0000000e+00 -1.6589009e-05 
4.9967074e-04 0.0000000e+00 -1.6655900e-05 
4.2926872e-04 0.0000000e+00 -1.6722790e-05 
2.6852204e-04 0.0000000e+00 -1.6789681e-05 
-3.4122041e-07 0.0000000e+00 -1.6856573e-05 
-1.5178826e-07 0.0000000e+00 -6.2674121e-04 
-1.2143062e-07 0.0000000e+00 -1.5214996e-03 
-9.1072955e-08 0.0000000e+00 -2.4575449e-03 
-6.0715301e-08 0.0000000e+00 -3.2547854e-03 
-3.0357651e-08 0.0000000e+00 -3.7845846e-03 
2.6054994e-15 0.0000000e+00 -3.9697601e-03 
3.0357654e-08 0.0000000e+00 -3.7845846e-03 
6.0715308e-08 0.0000000e+00 -3.2547854e-03 
9.1072963e-08 0.0000000e+00 -2.4575449e-03 
1.2143062e-07 0.0000000e+00 -1.5214996e-03 
1.5178827e-07 0.0000000e+00 -6.2674121e-04 
3.6999559e-08 0.0000000e+00 -5.0449447e-04 
2.9599647e-08 0.0000000e+00 -1.2959490e-03 
2.2199737e-08 0.0000000e+00 -2.1516469e-03 
1.4799826e-08 0.0000000e+00 -2.8914963e-03 
7.3999149e-09 0.0000000e+00 -3.3868609e-03 
4.1128074e-15 0.0000000e+00 -3.5605582e-03 
-7.3999069e-09 0.0000000e+00 -3.3868609e-03 
-1.4799817e-08 0.0000000e+00 -2.8914963e-03 
-2.2199728e-08 0.0000000e+00 -2.1516469e-03 
-2.9599640e-08 0.0000000e+00 -1.2959490e-03 
-3.6999552e-08 0.0000000e+00 -5.0449447e-04 
-1.4786955e-08 0.0000000e+00 -5.3212850e-04 
-1.1829563e-08 0.0000000e+00 -1.3435656e-03 
-8.8721706e-09 0.0000000e+00 -2.2148055e-03 
-5.9147789e-09 0.0000000e+00 -2.9657567e-03 
-2.9573868e-09 0.0000000e+00 -3.4677819e-03 
5.2067958e-15 0.0000000e+00 -3.6436997e-03 
2.9573972e-09 0.0000000e+00 -3.4677819e-03 
5.9147891e-09 0.0000000e+00 -2.9657567e-03 
8.8721812e-09 0.0000000e+00 -2.2148055e-03 
1.1829573e-08 0.0000000e+00 -1.3435656e-03 
1.4786965e-08 0.0000000e+00 -5.3212850e-04 
2.9589870e-08 0.0000000e+00 -5.5081269e-04 
2.3671896e-08 0.0000000e+00 -1.3755667e-03 
1.7753925e-08 0.0000000e+00 -2.2571641e-03 
1.1835952e-08 0.0000000e+00 -3.0155135e-03 
5.9179790e-09 0.0000000e+00 -3.5219777e-03 
6.2405606e-15 0.0000000e+00 -3.6993751e-03 
-5.9179666e-09 0.0000000e+00 -3.5219777e-03 
-1.1835939e-08 0.0000000e+00 -3.0155135e-03 
-1.7753912e-08 0.0000000e+00 -2.2571641e-03 
-2.3671884e-08 0.0000000e+00 -1.3755667e-03 
-2.9589858e-08 0.0000000e+00 -5.5081269e-04 
-1.1844904e-07 0.0000000e+00 -4.5469927e-04 
-9.4759230e-08 0.0000000e+00 -1.1995016e-03 
-7.1069415e-08 0.0000000e+00 -2.0189143e-03 
-4.7379611e-08 0.0000000e+00 -2.7328460e-03 
-2.3689802e-08 0.0000000e+00 -3.2126596e-03 
7.2885406e-15 0.0000000e+00 -3.3811734e-03 
2.3689816e-08 0.0000000e+00 -3.2126596e-03 
4.7379626e-08 0.0000000e+00 -2.7328460e-03 
7.1069429e-08 0.0000000e+00 -2.0189143e-03 
9.4759244e-08 0.0000000e+00 -1.1995016e-03 
1.1844905e-07 0.0000000e+00 -4.5469927e-04 
2.8435036e-07 0.0000000e+00 -8.7915763e-04 
2.2748029e-07 0.0000000e+00 -1.9705873e-03 
1.7061022e-07 0.0000000e+00 -3.0595991e-03 
1.1374015e-07 0.0000000e+00 -3.9661014e-03 
5.6870078e-08 0.0000000e+00 -4.5614578e-03 
7.7487336e-15 0.0000000e+00 -4.7684857e-03 
-5.6870061e-08 0.0000000e+00 -4.5614578e-03 
-1.1374013e-07 0.0000000e+00 -3.9661014e-03 
-1.7061021e-07 0.0000000e+00 -3.0595991e-03 
-2.2748027e-07 0.0000000e+00 -1.9705873e-03 
-2.8435034e-07 0.0000000e+00 -8.7915763e-04 
ROTATION 3 212  float
0.0000000e+00 -3.9555371e-04 0.0000000e+00 
0.0000000e+00 -3.8731427e-04 0.0000000e+00 
0.0000000e+00 -3.6259595e-04 0.0000000e+00 
0.0000000e+00 -3.2139878e-04 0.0000000e+00 
0.0000000e+00 -2.6372270e-04 0.0000000e+00 
0.0000000e+00 -1.8956777e-04 0.0000000e+00 
0.0000000e+00 -9.8933961e-05 0.0000000e+00 
0.0000000e+00 8.1787221e-06 0.0000000e+00 
0.0000000e+00 1.3177028e-04 0.0000000e+00 
0.0000000e+00 2.7184072e-04 0.0000000e+00 
0.0000000e+00 4.2839002e-04 0.0000000e+00 
0.0000000e+00 6.0141820e-04 0.0000000e+00 
0.0000000e+00 7.9092529e-04 0.0000000e+00 
0.0000000e+00 4.6862618e-04 0.0000000e+00 
0.0000000e+00 2.0075303e-04 0.0000000e+00 
0.0000000e+00 -1.2694170e-05 0.0000000e+00 
0.0000000e+00 -1.7171544e-04 0.0000000e+00 
0.0000000e+00 -2.7631075e-04 0.0000000e+00 
0.0000000e+00 -3.2648013e-04 0.0000000e+00 
0.0000000e+00 -3.2222358e-04 0.0000000e+00 
0.0000000e+00 -2.6354106e-04 0.0000000e+00 
0.0000000e+00 -1.5043262e-04 0.0000000e+00 
0.0000000e+00 1.7101762e-05 0.0000000e+00 
0.0000000e+00 2.3906209e-04 0.0000000e+00 
0.0000000e+00 5.1544834e-04 0.0000000e+00 
0.0000000e+00 2.7142066e-04 0.0000000e+00 
0.0000000e+00 7.2569019e-05 0.0000000e+00 
0.0000000e+00 -8.1106577e-05 0.0000000e+00 
0.0000000e+00 -1.8960611e-04 0.0000000e+00 
0.0000000e+00 -2.5292960e-04 0.0000000e+00 
0.0000000e+00 -2.7107703e-04 0.0000000e+00 
0.0000000e+00 -2.4404841e-04 0.0000000e+00 
0.0000000e+00 -1.7184374e-04 0.0000000e+00 
0.0000000e+00 -5.4463013e-05 0.0000000e+00 
0.0000000e+00 1.0809377e-04 0.0000000e+00 
0.0000000e+00 3.1582659e-04 0.0000000e+00 
0.0000000e+00 5.6873547e-04 0.0000000e+00 
0.0000000e+00 3.0289442e-04 0.0000000e+00 
0.0000000e+00 8.5926149e-05 0.0000000e+00 
0.0000000e+00 -8.2169332e-05 0.0000000e+00 
0.0000000e+00 -2.0139202e-04 0.0000000e+00 
0.0000000e+00 -2.7174191e-04 0.0000000e+00 
0.0000000e+00 -2.9321900e-04 0.0000000e+00 
0.0000000e+00 -2.6582330e-04 0.0000000e+00 
0.0000000e+00 -1.8955482e-04 0.0000000e+00 
0.0000000e+00 -6.4413543e-05 0.0000000e+00 
0.0000000e+00 1.0960052e-04 0.0000000e+00 
0.0000000e+00 3.3248740e-04 0.0000000e+00 
0.0000000e+00 6.0424703e-04 0.0000000e+00 
0.0000000e+00 3.5836568e-04 0.0000000e+00 
0.0000000e+00 1.5395967e-04 0.0000000e+00 
0.0000000e+00 -8.9710347e-06 0.0000000e+00 
0.0000000e+00 -1.3042642e-04 0.0000000e+00 
0.0000000e+00 -2.1040645e-04 0.0000000e+00 
0.0000000e+00 -2.4891118e-04 0.0000000e+00 
0.0000000e+00 -2.4594058e-04 0.0000000e+00 
0.0000000e+00 -2.0149464e-04 0.0000000e+00 
0.0000000e+00 -1.1557338e-04 0.0000000e+00 
0.0000000e+00 1.1823210e-05 0.0000000e+00 
0.0000000e+00 1.8069512e-04 0.0000000e+00 
0.0000000e+00 3.9104235e-04 0.0000000e+00 
0.0000000e+00 7.7088931e-05 0.0000000e+00 
0.0000000e+00 -1.6577690e-04 0.0000000e+00 
0.0000000e+00 -3.3755516e-04 0.0000000e+00 
0.0000000e+00 -4.3824583e-04 0.0000000e+00 
0.0000000e+00 -4.6784891e-04 0.0000000e+00 
0.0000000e+00 -4.2636439e-04 0.0000000e+00 
0.0000000e+00 -3.1379232e-04 0.0000000e+00 
0.0000000e+00 -1.3013263e-04 0.0000000e+00 
0.0000000e+00 1.2461464e-04 0.0000000e+00 
0.0000000e+00 4.5044950e-04 0.0000000e+00 
0.0000000e+00 8.4737194e-04 0.0000000e+00 
0.0000000e+00 1.3153820e-03 0.0000000e+00 
0.0000000e+00 3.9555371e-04 0.0000000e+00 
0.0000000e+00 3.8731427e-04 0.0000000e+00 
0.0000000e+00 3.6259595e-04 0.0000000e+00 
0.0000000e+00 3.2139878e-04 0.0000000e+00 
0.0000000e+00 2.6372270e-04 0.0000000e+00 
0.0000000e+00 1.8956777e-04 0.0000000e+00 
0.0000000e+00 9.8933961e-05 0.0000000e+00 
0.0000000e+00 -8.1787221e-06 0.0000000e+00 
0.0000000e+00 -1.3177028e-04 0.0000000e+00 
0.0000000e+00 -2.7184072e-04 0.0000000e+00 
0.0000000e+00 -4.2839002e-04 0.0000000e+00 
0.0000000e+00 -6.0141820e-04 0.0000000e+00 
0.0000000e+00 -7.9092529e-04 0.0000000e+00 
0.0000000e+00 -4.6862618e-04 0.0000000e+00 
0.0000000e+00 -2.0075303e-04 0.0000000e+00 
0.0000000e+00 1.2694170e-05 0.0000000e+00 
0.0000000e+00 1.7171544e-04 0.0000000e+00 
0.0000000e+00 2.7631075e-04 0.0000000e+00 
0.0000000e+00 3.2648013e-04 0.0000000e+00 
0.0000000e+00 3.2222358e-04 0.0000000e+00 
0.0000000e+00 2.6354106e-04 0.0000000e+00 
0.0000000e+00 1.5043262e-04 0.0000000e+00 
0.0000000e+00 -1.7101762e-05 0.0000000e+00 
0.0000000e+00 -2.3906209e-04 0.0000000e+00 
0.0000000e+00 -5.1544834e-04 0.0000000e+00 
0.0000000e+00 -2.7142066e-04 0.0000000e+00 
0.0000000e+00 -7.2569019e-05 0.0000000e+00 
0.0000000e+00 8.1106577e-05 0.0000000e+00 
0.0000000e+00 1.8960611e-04 0.0000000e+00 
0.0000000e+00 2.5292960e-04 0.0000000e+00 
0.0000000e+00 2.7107703e-04 0.0000000e+00 
0.0000000e+00 2.4404841e-04 0.0000000e+00 
0.0000000e+00 1.7184374e-04 0.0000000e+00 
0.0000000e+00 5.4463013e-05 0.0000000e+00 
0.0000000e+00 -1.0809377e-04 0.0000000e+00 
0.0000000e+00 -3.1582659e-04 0.0000000e+00 
0.0000000e+00 -5.6873547e-04 0.0000000e+00 
0.0000000e+00 -3.0289442e-04 0.0000000e+00 
0.0000000e+00 -8.5926149e-05 0.0000000e+00 
0.0000000e+00 8.2169332e-05 0.0000000e+00 
0.0000000e+00 2.0139202e-04 0.0000000e+00 
0.0000000e+00 2.7174191e-04 0.0000000e+00 
0.0000000e+00 2.9321900e-04 0.0000000e+00 
0.0000000e+00 2.6582330e-04 0.0000000e+00 
0.0000000e+00 1.8955482e-04 0.0000000e+00 
0.0000000e+00 6.4413543e-05 0.0000000e+00 
0.0000000e+00 -1.0960052e-04 0.0000000e+00 
0.0000000e+00 -3.3248740e-04 0.0000000e+00 
0.0000000e+00 -6.0424703e-04 0.0000000e+00 
0.0000000e+00 -3.5836568e-04 0.0000000e+00 
0.0000000e+00 -1.5395967e-04 0.0000000e+00 
0.0000000e+00 8.9710347e-06 0.0000000e+00 
0.0000000e+00 1.3042642e-04 0.0000000e+00 
0.0000000e+00 2.1040645e-04 0.0000000e+00 
0.0000000e+00 2.4891118e-04 0.0000000e+00 
0.0000000e+00 2.4594058e-04 0.0000000e+00 
0.0000000e+00 2.0149464e-04 0.0000000e+00 
0.0000000e+00 1.1557338e-04 0.0000000e+00 
0.0000000e+00 -1.1823210e-05 0.0000000e+00 
0.0000000e+00 -1.8069512e-04 0.0000000e+00 
0.0000000e+00 -3.9104235e-04 0.0000000e+00 
0.0000000e+00 -7.7088931e-05 0.0000000e+00 
0.0000000e+00 1.6577690e-04 0.0000000e+00 
0.0000000e+00 3.3755516e-04 0.0000000e+00 
0.0000000e+00 4.3824583e-04 0.0000000e+00 
0.0000000e+00 4.6784891e-04 0.0000000e+00 
0.0000000e+00 4.2636439e-04 0.0000000e+00 
0.0000000e+00 3.1379232e-04 0.0000000e+00 
0.0000000e+00 1.3013263e-04 0.0000000e+00 
0.0000000e+00 -1.2461464e-04 0.0000000e+00 
0.0000000e+00 -4.5044950e-04 0.0000000e+00 
0.0000000e+00 -8.4737194e-04 0.0000000e+00 
0.0000000e+00 -1.3153820e-03 0.0000000e+00 
0.0000000e+00 1.6024413e-03 0.0000000e+00 
0.0000000e+00 1.8994099e-03 0.0000000e+00 
0.0000000e+00 1.7847406e-03 0.0000000e+00 
0.0000000e+00 1.3613428e-03 0.0000000e+00 
0.0000000e+00 7.3212618e-04 0.0000000e+00 
0.0000000e+00 -2.3040532e-16 0.0000000e+00 
0.0000000e+00 -7.3212618e-04 0.0000000e+00 
0.0000000e+00 -1.3613428e-03 0.0000000e+00 
0.0000000e+00 -1.7847406e-03 0.0000000e+00 
0.0000000e+00 -1.8994099e-03 0.0000000e+00 
0.0000000e+00 -1.6024413e-03 0.0000000e+00 
0.0000000e+00 1.3728772e-03 0.0000000e+00 
0.0000000e+00 1.7157587e-03 0.0000000e+00 
0.0000000e+00 1.6470022e-03 0.0000000e+00 
0.0000000e+00 1.2695172e-03 0.0000000e+00 
0.0000000e+00 6.8621337e-04 0.0000000e+00 
0.0000000e+00 -1.7583565e-16 0.0000000e+00 
0.0000000e+00 -6.8621337e-04 0.0000000e+00 
0.0000000e+00 -1.2695172e-03 0.0000000e+00 
0.0000000e+00 -1.6470022e-03 0.0000000e+00 
0.0000000e+00 -1.7157587e-03 0.0000000e+00 
0.0000000e+00 -1.3728772e-03 0.0000000e+00 
0.0000000e+00 1.4172831e-03 0.0000000e+00 
0.0000000e+00 1.7512834e-03 0.0000000e+00 
0.0000000e+00 1.6736457e-03 0.0000000e+00 
0.0000000e+00 1.2872797e-03 0.0000000e+00 
0.0000000e+00 6.9509452e-04 0.0000000e+00 
0.0000000e+00 -1.6370905e-16 0.0000000e+00 
0.0000000e+00 -6.9509452e-04 0.0000000e+00 
0.0000000e+00 -1.2872797e-03 0.0000000e+00 
0.0000000e+00 -1.6736457e-03 0.0000000e+00 
0.0000000e+00 -1.7512834e-03 0.0000000e+00 
0.0000000e+00 -1.4172831e-03 0.0000000e+00 
0.0000000e+00 1.4468761e-03 0.0000000e+00 
0.0000000e+00 1.7749578e-03 0.0000000e+00 
0.0000000e+00 1.6914015e-03 0.0000000e+00 
0.0000000e+00 1.2991168e-03 0.0000000e+00 
0.0000000e+00 7.0101314e-04 0.0000000e+00 
0.0000000e+00 -1.2732926e-16 0.0000000e+00 
0.0000000e+00 -7.0101314e-04 0.0000000e+00 
0.0000000e+00 -1.2991168e-03 0.0000000e+00 
0.0000000e+00 -1.6914015e-03 0.0000000e+00 
0.0000000e+00 -1.7749578e-03 0.0000000e+00 
0.0000000e+00 -1.4468761e-03 0.0000000e+00 
0.0000000e+00 1.2692056e-03 0.0000000e+00 
0.0000000e+00 1.6328213e-03 0.0000000e+00 
0.0000000e+00 1.5847991e-03 0.0000000e+00 
0.0000000e+00 1.2280486e-03 0.0000000e+00 
0.0000000e+00 6.6547905e-04 0.0000000e+00 
0.0000000e+00 -1.4551915e-16 0.0000000e+00 
0.0000000e+00 -6.6547905e-04 0.0000000e+00 
0.0000000e+00 -1.2280486e-03 0.0000000e+00 
0.0000000e+00 -1.5847991e-03 0.0000000e+00 
0.0000000e+00 -1.6328213e-03 0.0000000e+00 
0.0000000e+00 -1.2692056e-03 0.0000000e+00 
0.0000000e+00 2.0394886e-03 0.0000000e+00 
0.0000000e+00 2.2490476e-03 0.0000000e+00 
0.0000000e+00 2.0469690e-03 0.0000000e+00 