# vtk DataFile Version 4.0
vtk output
ASCII
DATASET UNSTRUCTURED_GRID
POINTS 212 float
0.0000000e+00 0.0000000e+00 0.0000000e+00 
0.0000000e+00 0.0000000e+00 2.5000000e-01 
0.0000000e+00 0.0000000e+00 5.0000000e-01 
0.0000000e+00 0.0000000e+00 7.5000000e-01 
0.0000000e+00 0.0000000e+00 1.0000000e+00 
0.0000000e+00 0.0000000e+00 1.2500000e+00 
0.0000000e+00 0.0000000e+00 1.5000000e+00 
0.0000000e+00 0.0000000e+00 1.7500000e+00 
0.0000000e+00 0.0000000e+00 2.0000000e+00 
0.0000000e+00 0.0000000e+00 2.2500000e+00 
0.0000000e+00 0.0000000e+00 2.5000000e+00 
0.0000000e+00 0.0000000e+00 2.7500000e+00 
0.0000000e+00 0.0000000e+00 3.0000000e+00 
0.0000000e+00 0.0000000e+00 3.2500000e+00 
0.0000000e+00 0.0000000e+00 3.5000000e+00 
0.0000000e+00 0.0000000e+00 3.7500000e+00 
0.0000000e+00 0.0000000e+00 4.0000000e+00 
0.0000000e+00 0.0000000e+00 4.2500000e+00 
0.0000000e+00 0.0000000e+00 4.5000000e+00 
0.0000000e+00 0.0000000e+00 4.7500000e+00 
0.0000000e+00 0.0000000e+00 5.0000000e+00 
0.0000000e+00 0.0000000e+00 5.2500000e+00 
0.0000000e+00 0.0000000e+00 5.5000000e+00 
0.0000000e+00 0.0000000e+00 5.7500000e+00 
0.0000000e+00 0.0000000e+00 6.0000000e+00 
0.0000000e+00 0.0000000e+00 6.2500000e+00 
0.0000000e+00 0.0000000e+00 6.5000000e+00 
0.0000000e+00 0.0000000e+00 6.7500000e+00 
0.0000000e+00 0.0000000e+00 7.0000000e+00 
0.0000000e+00 0.0000000e+00 7.2500000e+00 
0.0000000e+00 0.0000000e+00 7.5000000e+00 
0.0000000e+00 0.0000000e+00 7.7500000e+00 
0.0000000e+00 0.0000000e+00 8.0000000e+00 
0.0000000e+00 0.0000000e+00 8.2500000e+00 
0.0000000e+00 0.0000000e+00 8.5000000e+00 
0.0000000e+00 0.0000000e+00 8.7500000e+00 
0.0000000e+00 0.0000000e+00 9.0000000e+00 
0.0000000e+00 0.0000000e+00 9.2500000e+00 
0.0000000e+00 0.0000000e+00 9.5000000e+00 
0.0000000e+00 0.0000000e+00 9.7500000e+00 
0.0000000e+00 0.0000000e+00 1.0000000e+01 
0.0000000e+00 0.0000000e+00 1.0250000e+01 
0.0000000e+00 0.0000000e+00 1.0500000e+01 
0.0000000e+00 0.0000000e+00 1.0750000e+01 
0.0000000e+00 0.0000000e+00 1.1000000e+01 
0.0000000e+00 0.0000000e+00 1.1250000e+01 
0.0000000e+00 0.0000000e+00 1.1500000e+01 
0.0000000e+00 0.0000000e+00 1.1750000e+01 
0.0000000e+00 0.0000000e+00 1.2000000e+01 
0.0000000e+00 0.0000000e+00 1.2250000e+01 
0.0000000e+00 0.0000000e+00 1.2500000e+01 
0.0000000e+00 0.0000000e+00 1.2750000e+01 
0.0000000e+00 0.0000000e+00 1.3000000e+01 
0.0000000e+00 0.0000000e+00 1.3250000e+01 
0.0000000e+00 0.0000000e+00 1.3500000e+01 
0.0000000e+00 0.0000000e+00 1.3750000e+01 
0.0000000e+00 0.0000000e+00 1.4000000e+01 
0.0000000e+00 0.0000000e+00 1.4250000e+01 
0.0000000e+00 0.0000000e+00 1.4500000e+01 
0.0000000e+00 0.0000000e+00 1.4750000e+01 
0.0000000e+00 0.0000000e+00 1.5000000e+01 
0.0000000e+00 0.0000000e+00 1.5250000e+01 
0.0000000e+00 0.0000000e+00 1.5500000e+01 
0.0000000e+00 0.0000000e+00 1.5750000e+01 
0.0000000e+00 0.0000000e+00 1.6000000e+01 
0.0000000e+00 0.0000000e+00 1.6250000e+01 
0.0000000e+00 0.0000000e+00 1.6500000e+01 
0.0000000e+00 0.0000000e+00 1.6750000e+01 
0.0000000e+00 0.0000000e+00 1.7000000e+01 
0.0000000e+00 0.0000000e+00 1.7250000e+01 
0.0000000e+00 0.0000000e+00 1.7500000e+01 
0.0000000e+00 0.0000000e+00 1.7750000e+01 
0.0000000e+00 0.0000000e+00 1.8000000e+01 
5.0000000e-01 0.0000000e+00 3.0000000e+00 
5.0000000e-01 0.0000000e+00 6.0000000e+00 
5.0000000e-01 0.0000000e+00 9.0000000e+00 
5.0000000e-01 0.0000000e+00 1.2000000e+01 
5.0000000e-01 0.0000000e+00 1.5000000e+01 
5.0000000e-01 0.0000000e+00 1.8000000e+01 
1.0000000e+00 0.0000000e+00 3.0000000e+00 
1.0000000e+00 0.0000000e+00 6.0000000e+00 
1.0000000e+00 0.0000000e+00 9.0000000e+00 
1.0000000e+00 0.0000000e+00 1.2000000e+01 
1.0000000e+00 0.0000000e+00 1.5000000e+01 
1.0000000e+00 0.0000000e+00 1.8000000e+01 
1.5000000e+00 0.0000000e+00 3.0000000e+00 
1.5000000e+00 0.0000000e+00 6.0000000e+00 
1.5000000e+00 0.0000000e+00 9.0000000e+00 
1.5000000e+00 0.0000000e+00 1.2000000e+01 
1.5000000e+00 0.0000000e+00 1.5000000e+01 
1.5000000e+00 0.0000000e+00 1.8000000e+01 
2.0000000e+00 0.0000000e+00 3.0000000e+00 
2.0000000e+00 0.0000000e+00 6.0000000e+00 
2.0000000e+00 0.0000000e+00 9.0000000e+00 
2.0000000e+00 0.0000000e+00 1.2000000e+01 
2.0000000e+00 0.0000000e+00 1.5000000e+01 
2.0000000e+00 0.0000000e+00 1.8000000e+01 
2.5000000e+00 0.0000000e+00 3.0000000e+00 
2.5000000e+00 0.0000000e+00 6.0000000e+00 
2.5000000e+00 0.0000000e+00 9.0000000e+00 
2.5000000e+00 0.0000000e+00 1.2000000e+01 
2.5000000e+00 0.0000000e+00 1.5000000e+01 
2.5000000e+00 0.0000000e+00 1.8000000e+01 
3.0000000e+00 0.0000000e+00 3.0000000e+00 
3.0000000e+00 0.0000000e+00 6.0000000e+00 
3.0000000e+00 0.0000000e+00 9.0000000e+00 
3.0000000e+00 0.0000000e+00 1.2000000e+01 
3.0000000e+00 0.0000000e+00 1.5000000e+01 
3.0000000e+00 0.0000000e+00 1.8000000e+01 
3.5000000e+00 0.0000000e+00 3.0000000e+00 
3.5000000e+00 0.0000000e+00 6.0000000e+00 
3.5000000e+00 0.0000000e+00 9.0000000e+00 
3.5000000e+00 0.0000000e+00 1.2000000e+01 
3.5000000e+00 0.0000000e+00 1.5000000e+01 
3.5000000e+00 0.0000000e+00 1.8000000e+01 
4.0000000e+00 0.0000000e+00 3.0000000e+00 
4.0000000e+00 0.0000000e+00 6.0000000e+00 
4.0000000e+00 0.0000000e+00 9.0000000e+00 
4.0000000e+00 0.0000000e+00 1.2000000e+01 
4.0000000e+00 0.0000000e+00 1.5000000e+01 
4.0000000e+00 0.0000000e+00 1.8000000e+01 
4.5000000e+00 0.0000000e+00 3.0000000e+00 
4.5000000e+00 0.0000000e+00 6.0000000e+00 
4.5000000e+00 0.0000000e+00 9.0000000e+00 
4.5000000e+00 0.0000000e+00 1.2000000e+01 
4.5000000e+00 0.0000000e+00 1.5000000e+01 
4.5000000e+00 0.0000000e+00 1.8000000e+01 
5.0000000e+00 0.0000000e+00 3.0000000e+00 
5.0000000e+00 0.0000000e+00 6.0000000e+00 
5.0000000e+00 0.0000000e+00 9.0000000e+00 
5.0000000e+00 0.0000000e+00 1.2000000e+01 
5.0000000e+00 0.0000000e+00 1.5000000e+01 
5.0000000e+00 0.0000000e+00 1.8000000e+01 
5.5000000e+00 0.0000000e+00 3.0000000e+00 
5.5000000e+00 0.0000000e+00 6.0000000e+00 
5.5000000e+00 0.0000000e+00 9.0000000e+00 
5.5000000e+00 0.0000000e+00 1.2000000e+01 
5.5000000e+00 0.0000000e+00 1.5000000e+01 
5.5000000e+00 0.0000000e+00 1.8000000e+01 
6.0000000e+00 0.0000000e+00 0.0000000e+00 
6.0000000e+00 0.0000000e+00 2.5000000e-01 
6.0000000e+00 0.0000000e+00 5.0000000e-01 
6.0000000e+00 0.0000000e+00 7.5000000e-01 
6.0000000e+00 0.0000000e+00 1.0000000e+00 
6.0000000e+00 0.0000000e+00 1.2500000e+00 
6.0000000e+00 0.0000000e+00 1.5000000e+00 
6.0000000e+00 0.0000000e+00 1.7500000e+00 
6.0000000e+00 0.0000000e+00 2.0000000e+00 
6.0000000e+00 0.0000000e+00 2.2500000e+00 
6.0000000e+00 0.0000000e+00 2.5000000e+00 
6.0000000e+00 0.0000000e+00 2.7500000e+00 
6.0000000e+00 0.0000000e+00 3.0000000e+00 
6.0000000e+00 0.0000000e+00 3.2500000e+00 
6.0000000e+00 0.0000000e+00 3.5000000e+00 
6.0000000e+00 0.0000000e+00 3.7500000e+00 
6.0000000e+00 0.0000000e+00 4.0000000e+00 
6.0000000e+00 0.0000000e+00 4.2500000e+00 
6.0000000e+00 0.0000000e+00 4.5000000e+00 
6.0000000e+00 0.0000000e+00 4.7500000e+00 
6.0000000e+00 0.0000000e+00 5.0000000e+00 
6.0000000e+00 0.0000000e+00 5.2500000e+00 
6.0000000e+00 0.0000000e+00 5.5000000e+00 
6.0000000e+00 0.0000000e+00 5.7500000e+00 
6.0000000e+00 0.0000000e+00 6.0000000e+00 
6.0000000e+00 0.0000000e+00 6.2500000e+00 
6.0000000e+00 0.0000000e+00 6.5000000e+00 
6.0000000e+00 0.0000000e+00 6.7500000e+00 
6.0000000e+00 0.0000000e+00 7.0000000e+00 
6.0000000e+00 0.0000000e+00 7.2500000e+00 
6.0000000e+00 0.0000000e+00 7.5000000e+00 
6.0000000e+00 0.0000000e+00 7.7500000e+00 
6.0000000e+00 0.0000000e+00 8.0000000e+00 
6.0000000e+00 0.0000000e+00 8.2500000e+00 
6.0000000e+00 0.0000000e+00 8.5000000e+00 
6.0000000e+00 0.0000000e+00 8.7500000e+00 
6.0000000e+00 0.0000000e+00 9.0000000e+00 
6.0000000e+00 0.0000000e+00 9.2500000e+00 
6.0000000e+00 0.0000000e+00 9.5000000e+00 
6.0000000e+00 0.0000000e+00 9.7500000e+00 
6.0000000e+00 0.0000000e+00 1.0000000e+01 
6.0000000e+00 0.0000000e+00 1.0250000e+01 
6.0000000e+00 0.0000000e+00 1.0500000e+01 
6.0000000e+00 0.0000000e+00 1.0750000e+01 
6.0000000e+00 0.0000000e+00 1.1000000e+01 
6.0000000e+00 0.0000000e+00 1.1250000e+01 
6.0000000e+00 0.0000000e+00 1.1500000e+01 
6.0000000e+00 0.0000000e+00 1.1750000e+01 
6.0000000e+00 0.0000000e+00 1.2000000e+01 
6.0000000e+00 0.0000000e+00 1.2250000e+01 
6.0000000e+00 0.0000000e+00 1.2500000e+01 
6.0000000e+00 0.0000000e+00 1.2750000e+01 
6.0000000e+00 0.0000000e+00 1.3000000e+01 
6.0000000e+00 0.0000000e+00 1.3250000e+01 
6.0000000e+00 0.0000000e+00 1.3500000e+01 
6.0000000e+00 0.0000000e+00 1.3750000e+01 
6.0000000e+00 0.0000000e+00 1.4000000e+01 
6.0000000e+00 0.0000000e+00 1.4250000e+01 
6.0000000e+00 0.0000000e+00 1.4500000e+01 
6.0000000e+00 0.0000000e+00 1.4750000e+01 
6.0000000e+00 0.0000000e+00 1.5000000e+01 
6.0000000e+00 0.0000000e+00 1.5250000e+01 
6.0000000e+00 0.0000000e+00 1.5500000e+01 
6.0000000e+00 0.0000000e+00 1.5750000e+01 
6.0000000e+00 0.0000000e+00 1.6000000e+01 
6.0000000e+00 0.0000000e+00 1.6250000e+01 
6.0000000e+00 0.0000000e+00 1.6500000e+01 
6.0000000e+00 0.0000000e+00 1.6750000e+01 
6.0000000e+00 0.0000000e+00 1.7000000e+01 
6.0000000e+00 0.0000000e+00 1.7250000e+01 
6.0000000e+00 0.0000000e+00 1.7500000e+01 
6.0000000e+00 0.0000000e+00 1.7750000e+01 
6.0000000e+00 0.0000000e+00 1.8000000e+01 

CELLS 216 648
2 0 1
2 1 2
2 2 3
2 3 4
2 4 5
2 5 6
2 6 7
2 7 8
2 8 9
2 9 10
2 10 11
2 11 12
2 12 13
2 13 14
2 14 15
2 15 16
2 16 17
2 17 18
2 18 19
2 19 20
2 20 21
2 21 22
2 22 23
2 23 24
2 24 25
2 25 26
2 26 27
2 27 28
2 28 29
2 29 30
2 30 31
2 31 32
2 32 33
2 33 34
2 34 35
2 35 36
2 36 37
2 37 38
2 38 39
2 39 40
2 40 41
2 41 42
2 42 43
2 43 44
2 44 45
2 45 46
2 46 47
2 47 48
2 48 49
2 49 50
2 50 51
2 51 52
2 52 53
2 53 54
2 54 55
2 55 56
2 56 57
2 57 58
2 58 59
2 59 60
2 60 61
2 61 62
2 62 63
2 63 64
2 64 65
2 65 66
2 66 67
2 67 68
2 68 69
2 69 70
2 70 71
2 71 72
2 139 140
2 140 141
2 141 142
2 142 143
2 143 144
2 144 145
2 145 146
2 146 147
2 147 148
2 148 149
2 149 150
2 150 151
2 151 152
2 152 153
2 153 154
2 154 155
2 155 156
2 156 157
2 157 158
2 158 159
2 159 160
2 160 161
2 161 162
2 162 163
2 163 164
2 164 165
2 165 166
2 166 167
2 167 168
2 168 169
2 169 170
2 170 171
2 171 172
2 172 173
2 173 174
2 174 175
2 175 176
2 176 177
2 177 178
2 178 179
2 179 180
2 180 181
2 181 182
2 182 183
2 183 184
2 184 185
2 185 186
2 186 187
2 187 188
2 188 189
2 189 190
2 190 191
2 191 192
2 192 193
2 193 194
2 194 195
2 195 196
2 196 197
2 197 198
2 198 199
2 199 200
2 200 201
2 201 202
2 202 203
2 203 204
2 204 205
2 205 206
2 206 207
2 207 208
2 208 209
2 209 210
2 210 211
2 12 73
2 73 79
2 79 85
2 85 91
2 91 97
2 97 103
2 103 109
2 109 115
2 115 121
2 121 127
2 127 133
2 133 151
2 24 74
2 74 80
2 80 86
2 86 92
2 92 98
2 98 104
2 104 110
2 110 116
2 116 122
2 122 128
2 128 134
2 134 163
2 36 75
2 75 81
2 81 87
2 87 93
2 93 99
2 99 105
2 105 111
2 111 117
2 117 123
2 123 129
2 129 135
2 135 175
2 48 76
2 76 82
2 82 88
2 88 94
2 94 100
2 100 106
2 106 112
2 112 118
2 118 124
2 124 130
2 130 136
2 136 187
2 60 77
2 77 83
2 83 89
2 89 95
2 95 101
2 101 107
2 107 113
2 113 119
2 119 125
2 125 131
2 131 137
2 137 199
2 72 78
2 78 84
2 84 90
2 90 96
2 96 102
2 102 108
2 108 114
2 114 120
2 120 126
2 126 132
2 132 138
2 138 211

CELL_TYPES 216
3
3
3
3
3
3
3
3
3
3
3
3
3
3
3
3
3
3
3
3
3
3
3
3
3
3
3
3
3
3
3
3
3
3
3
3
3
3
3
3
3
3
3
3
3
3
3
3
3
3
3
3
3
3
3
3
3
3
3
3
3
3
3
3
3
3
3
3
3
3
3
3
3
3
3
3
3
3
3
3
3
3
3
3
3
3
3
3
3
3
3
3
3
3
3
3
3
3
3
3
3
3
3
3
3
3
3
3
3
3
3
3
3
3
3
3
3
3
3
3
3
3
3
3
3
3
3
3
3
3
3
3
3
3
3
3
3
3
3
3
3
3
3
3
3
3
3
3
3
3
3
3
3
3
3
3
3
3
3
3
3
3
3
3
3
3
3
3
3
3
3
3
3
3
3
3
3
3
3
3
3
3
3
3
3
3
3
3
3
3
3
3
3
3
3
3
3
3
3
3
3
3
3
3
3
3
3
3
3
3
3
3
3
3
3
3
POINT_DATA 212
FIELD FieldData 3
ADJOINT_DISPLACEMENT 3 212  float
0.0000000e+00 0.0000000e+00 0.0000000e+00 
-1.6650436e-03 0.0000000e+00 1.5079607e-17 
-3.4902541e-03 0.0000000e+00 3.0159214e-17 
-5.6357975e-03 0.0000000e+00 4.5238819e-17 
-8.2618408e-03 0.0000000e+00 6.0318427e-17 
-1.1528551e-02 0.0000000e+00 7.5398029e-17 
-1.5596094e-02 0.0000000e+00 9.0477637e-17 
-2.0624638e-02 0.0000000e+00 1.0555725e-16 
-2.6774347e-02 0.0000000e+00 1.2063685e-16 
-3.4205388e-02 0.0000000e+00 1.3571646e-16 
-4.3077931e-02 0.0000000e+00 1.5079606e-16 
-5.3552140e-02 0.0000000e+00 1.6587567e-16 
-6.5788180e-02 0.0000000e+00 1.8095527e-16 
-8.0760650e-02 0.0000000e+00 3.9203042e-06 
-9.8692358e-02 0.0000000e+00 7.8406083e-06 
-1.1861579e-01 0.0000000e+00 1.1760912e-05 
-1.3956343e-01 0.0000000e+00 1.5681217e-05 
-1.6056773e-01 0.0000000e+00 1.9601521e-05 
-1.8066122e-01 0.0000000e+00 2.3521823e-05 
-1.9887635e-01 0.0000000e+00 2.7442127e-05 
-2.1424560e-01 0.0000000e+00 3.1362433e-05 
-2.2580148e-01 0.0000000e+00 3.5282737e-05 
-2.3257646e-01 0.0000000e+00 3.9203042e-05 
-2.3360300e-01 0.0000000e+00 4.3123346e-05 
-2.2791360e-01 0.0000000e+00 4.7043646e-05 
-2.1624961e-01 0.0000000e+00 6.6647990e-05 
-2.0048974e-01 0.0000000e+00 8.6252337e-05 
-1.8137245e-01 0.0000000e+00 1.0585668e-04 
-1.5963626e-01 0.0000000e+00 1.2546103e-04 
-1.3601966e-01 0.0000000e+00 1.4506537e-04 
-1.1126112e-01 0.0000000e+00 1.6466971e-04 
-8.6099170e-02 0.0000000e+00 1.8427405e-04 
-6.1272282e-02 0.0000000e+00 2.0387840e-04 
-3.7518952e-02 0.0000000e+00 2.2348274e-04 
-1.5577680e-02 0.0000000e+00 2.4308708e-04 
3.8130430e-03 0.0000000e+00 2.6269144e-04 
1.9914722e-02 0.0000000e+00 2.8229578e-04 
3.4459069e-02 0.0000000e+00 2.8638646e-04 
4.9513783e-02 0.0000000e+00 2.9047715e-04 
6.4844333e-02 0.0000000e+00 2.9456787e-04 
8.0216214e-02 0.0000000e+00 2.9865856e-04 
9.5394894e-02 0.0000000e+00 3.0274925e-04 
1.1014586e-01 0.0000000e+00 3.0683997e-04 
1.2423459e-01 0.0000000e+00 3.1093066e-04 
1.3742657e-01 0.0000000e+00 3.1502135e-04 
1.4948726e-01 0.0000000e+00 3.1911206e-04 
1.6018216e-01 0.0000000e+00 3.2320275e-04 
1.6927676e-01 0.0000000e+00 3.2729344e-04 
1.7653652e-01 0.0000000e+00 3.3138416e-04 
1.8240961e-01 0.0000000e+00 3.3223626e-04 
1.8753666e-01 0.0000000e+00 3.3308833e-04 
1.9197176e-01 0.0000000e+00 3.3394044e-04 
1.9576904e-01 0.0000000e+00 3.3479254e-04 
1.9898263e-01 0.0000000e+00 3.3564464e-04 
2.0166661e-01 0.0000000e+00 3.3649671e-04 
2.0387512e-01 0.0000000e+00 3.3734881e-04 
2.0566228e-01 0.0000000e+00 3.3820092e-04 
2.0708220e-01 0.0000000e+00 3.3905302e-04 
2.0818900e-01 0.0000000e+00 3.3990512e-04 
2.0903678e-01 0.0000000e+00 3.4075719e-04 
2.0967966e-01 0.0000000e+00 3.4160929e-04 
2.1026202e-01 0.0000000e+00 3.4177970e-04 
2.1088517e-01 0.0000000e+00 3.4195010e-04 
2.1153884e-01 0.0000000e+00 3.4212047e-04 
2.1221265e-01 0.0000000e+00 3.4229088e-04 
2.1289633e-01 0.0000000e+00 3.4246128e-04 
2.1357951e-01 0.0000000e+00 3.4263168e-04 
2.1425189e-01 0.0000000e+00 3.4280206e-04 
2.1490312e-01 0.0000000e+00 3.4297246e-04 
2.1552289e-01 0.0000000e+00 3.4314286e-04 
2.1610086e-01 0.0000000e+00 3.4331324e-04 
2.1662672e-01 0.0000000e+00 3.4348364e-04 
2.1709013e-01 0.0000000e+00 3.4365404e-04 
-6.5710209e-02 0.0000000e+00 2.2482384e-02 
-2.2803156e-01 0.0000000e+00 -2.3785904e-02 
1.9949567e-02 0.0000000e+00 -1.9193206e-02 
1.7655647e-01 0.0000000e+00 -9.7834952e-03 
2.0967521e-01 0.0000000e+00 -3.9780192e-04 
2.1709085e-01 0.0000000e+00 -3.7485242e-04 
-6.5632246e-02 0.0000000e+00 3.7852973e-02 
-2.2814950e-01 0.0000000e+00 -5.5385560e-02 
1.9984411e-02 0.0000000e+00 -2.3169160e-02 
1.7657642e-01 0.0000000e+00 -1.5571115e-02 
2.0967075e-01 0.0000000e+00 -4.8726756e-04 
2.1709155e-01 0.0000000e+00 -8.4169401e-04 
-6.5554276e-02 0.0000000e+00 4.7018986e-02 
-2.2826746e-01 0.0000000e+00 -9.1122359e-02 
2.0019256e-02 0.0000000e+00 -1.5235695e-02 
1.7659639e-01 0.0000000e+00 -1.7780945e-02 
2.0966630e-01 0.0000000e+00 -8.4545332e-05 
2.1709226e-01 0.0000000e+00 -1.0963031e-03 
-6.5476313e-02 0.0000000e+00 5.0887659e-02 
-2.2838542e-01 0.0000000e+00 -1.2736674e-01 
2.0054100e-02 0.0000000e+00 1.0170568e-03 
1.7661634e-01 0.0000000e+00 -1.7162455e-02 
2.0966184e-01 0.0000000e+00 6.5260712e-04 
2.1709298e-01 0.0000000e+00 -1.1781120e-03 
-6.5398343e-02 0.0000000e+00 5.0366219e-02 
-2.2850336e-01 0.0000000e+00 -1.6048913e-01 
2.0088945e-02 0.0000000e+00 2.1998964e-02 
1.7663629e-01 0.0000000e+00 -1.4465114e-02 
2.0965739e-01 0.0000000e+00 1.5664321e-03 
2.1709369e-01 0.0000000e+00 -1.1265529e-03 
-6.5320380e-02 0.0000000e+00 4.6361890e-02 
-2.2862132e-01 0.0000000e+00 -1.8685998e-01 
2.0123789e-02 0.0000000e+00 4.4119898e-02 
1.7665625e-01 0.0000000e+00 -1.0438393e-02 
2.0965293e-01 0.0000000e+00 2.4991718e-03 
2.1709441e-01 0.0000000e+00 -9.8105834e-04 
-6.5242410e-02 0.0000000e+00 3.9781898e-02 
-2.2873928e-01 0.0000000e+00 -2.0284972e-01 
2.0158634e-02 0.0000000e+00 6.3789725e-02 
1.7667621e-01 0.0000000e+00 -5.8317613e-03 
2.0964848e-01 0.0000000e+00 3.2930686e-03 
2.1709512e-01 0.0000000e+00 -7.8106049e-04 
-6.5164439e-02 0.0000000e+00 3.1533476e-02 
-2.2885722e-01 0.0000000e+00 -2.0482878e-01 
2.0193478e-02 0.0000000e+00 7.7418320e-02 
1.7669617e-01 0.0000000e+00 -1.3946890e-03 
2.0964402e-01 0.0000000e+00 3.7903651e-03 
2.1709584e-01 0.0000000e+00 -5.6599174e-04 
-6.5086477e-02 0.0000000e+00 2.2523846e-02 
-2.2897518e-01 0.0000000e+00 -1.8916760e-01 
2.0228323e-02 0.0000000e+00 8.1415541e-02 
1.7671612e-01 0.0000000e+00 2.1233549e-03 
2.0963956e-01 0.0000000e+00 3.8333030e-03 
2.1709655e-01 0.0000000e+00 -3.7528438e-04 
-6.5008506e-02 0.0000000e+00 1.3660239e-02 
-2.2909312e-01 0.0000000e+00 -1.5223664e-01 
2.0263165e-02 0.0000000e+00 7.2191268e-02 
1.7673607e-01 0.0000000e+00 3.9729001e-03 
2.0963511e-01 0.0000000e+00 3.2641252e-03 
2.1709727e-01 0.0000000e+00 -2.4837078e-04 
-6.4930543e-02 0.0000000e+00 5.8498811e-03 
-2.2921108e-01 0.0000000e+00 -9.0406306e-02 
2.0298010e-02 0.0000000e+00 4.6155367e-02 
1.7675602e-01 0.0000000e+00 3.4044769e-03 
2.0963065e-01 0.0000000e+00 1.9250736e-03 
2.1709798e-01 0.0000000e+00 -2.2468322e-04 
0.0000000e+00 0.0000000e+00 0.0000000e+00 
-9.2216861e-03 0.0000000e+00 -8.9090379e-18 
-1.8283205e-02 0.0000000e+00 -1.7818021e-17 
-2.7024390e-02 0.0000000e+00 -2.6728619e-17 
-3.5285078e-02 0.0000000e+00 -3.5634580e-17 
-4.2905096e-02 0.0000000e+00 -4.4542253e-17 
-4.9724281e-02 0.0000000e+00 -5.3452299e-17 
-5.5582467e-02 0.0000000e+00 -6.2358910e-17 
-6.0319491e-02 0.0000000e+00 -7.1262940e-17 
-6.3775174e-02 0.0000000e+00 -8.0175169e-17 
-6.5789364e-02 0.0000000e+00 -8.9067400e-17 
-6.6201888e-02 0.0000000e+00 -9.7960968e-17 
-6.4852573e-02 0.0000000e+00 -1.0686890e-16 
-6.2127672e-02 0.0000000e+00 -3.9203042e-06 
-5.9165217e-02 0.0000000e+00 -7.8406083e-06 
-5.6932725e-02 0.0000000e+00 -1.1760912e-05 
-5.6397710e-02 0.0000000e+00 -1.5681217e-05 
-5.8527693e-02 0.0000000e+00 -1.9601521e-05 
-6.4290196e-02 0.0000000e+00 -2.3521823e-05 
-7.4652731e-02 0.0000000e+00 -2.7442127e-05 
-9.0582818e-02 0.0000000e+00 -3.1362433e-05 
-1.1304797e-01 0.0000000e+00 -3.5282737e-05 
-1.4301571e-01 0.0000000e+00 -3.9203042e-05 
-1.8145356e-01 0.0000000e+00 -4.3123346e-05 
-2.2932903e-01 0.0000000e+00 -4.7043646e-05 
-2.9134512e-01 0.0000000e+00 -6.6647990e-05 
-3.7106746e-01 0.0000000e+00 -8.6252337e-05 
-4.6775761e-01 0.0000000e+00 -1.0585668e-04 
-5.8067703e-01 0.0000000e+00 -1.2546103e-04 
-4.5908722e-01 0.0000000e+00 -1.4506537e-04 
-3.5224971e-01 0.0000000e+00 -1.6466971e-04 
-2.5942600e-01 0.0000000e+00 -1.8427405e-04 
-1.7987759e-01 0.0000000e+00 -2.0387840e-04 
-1.1286600e-01 0.0000000e+00 -2.2348274e-04 
-5.7652727e-02 0.0000000e+00 -2.4308708e-04 
-1.3499271e-02 0.0000000e+00 -2.6269144e-04 
2.0332854e-02 0.0000000e+00 -2.8229578e-04 
4.7497135e-02 0.0000000e+00 -2.8638646e-04 
7.1311079e-02 0.0000000e+00 -2.9047715e-04 
9.2009194e-02 0.0000000e+00 -2.9456787e-04 
1.0982601e-01 0.0000000e+00 -2.9865856e-04 
1.2499604e-01 0.0000000e+00 -3.0274925e-04 
1.3775381e-01 0.0000000e+00 -3.0683997e-04 
1.4833383e-01 0.0000000e+00 -3.1093066e-04 
1.5697064e-01 0.0000000e+00 -3.1502135e-04 
1.6389872e-01 0.0000000e+00 -3.1911206e-04 
1.6935264e-01 0.0000000e+00 -3.2320275e-04 
1.7356689e-01 0.0000000e+00 -3.2729344e-04 
1.7677599e-01 0.0000000e+00 -3.3138416e-04 
1.7965597e-01 0.0000000e+00 -3.3223626e-04 
1.8269044e-01 0.0000000e+00 -3.3308833e-04 
1.8582527e-01 0.0000000e+00 -3.3394044e-04 
1.8900636e-01 0.0000000e+00 -3.3479254e-04 
1.9217959e-01 0.0000000e+00 -3.3564464e-04 
1.9529083e-01 0.0000000e+00 -3.3649671e-04 
1.9828598e-01 0.0000000e+00 -3.3734881e-04 
2.0111091e-01 0.0000000e+00 -3.3820092e-04 
2.0371152e-01 0.0000000e+00 -3.3905302e-04 
2.0603368e-01 0.0000000e+00 -3.3990512e-04 
2.0802328e-01 0.0000000e+00 -3.4075719e-04 
2.0962620e-01 0.0000000e+00 -3.4160929e-04 
2.1093474e-01 0.0000000e+00 -3.4177970e-04 
2.1208416e-01 0.0000000e+00 -3.4195010e-04 
2.1308479e-01 0.0000000e+00 -3.4212047e-04 
2.1394695e-01 0.0000000e+00 -3.4229088e-04 
2.1468097e-01 0.0000000e+00 -3.4246128e-04 
2.1529718e-01 0.0000000e+00 -3.4263168e-04 
2.1580590e-01 0.0000000e+00 -3.4280206e-04 
2.1621747e-01 0.0000000e+00 -3.4297246e-04 
2.1654220e-01 0.0000000e+00 -3.4314286e-04 
2.1679044e-01 0.0000000e+00 -3.4331324e-04 
2.1697249e-01 0.0000000e+00 -3.4348364e-04 
2.1709870e-01 0.0000000e+00 -3.4365404e-04 
ADJOINT_ROTATION 3 212  float
0.0000000e+00 -6.5533970e-03 0.0000000e+00 
0.0000000e+00 -6.8737301e-03 0.0000000e+00 
0.0000000e+00 -7.8347297e-03 0.0000000e+00 
0.0000000e+00 -9.4363960e-03 0.0000000e+00 
0.0000000e+00 -1.1678729e-02 0.0000000e+00 
0.0000000e+00 -1.4561729e-02 0.0000000e+00 
0.0000000e+00 -1.8085394e-02 0.0000000e+00 
0.0000000e+00 -2.2249727e-02 0.0000000e+00 
0.0000000e+00 -2.7054725e-02 0.0000000e+00 
0.0000000e+00 -3.2500390e-02 0.0000000e+00 
0.0000000e+00 -3.8586721e-02 0.0000000e+00 
0.0000000e+00 -4.5313720e-02 0.0000000e+00 
0.0000000e+00 -5.2681386e-02 0.0000000e+00 
0.0000000e+00 -6.6453375e-02 0.0000000e+00 
0.0000000e+00 -7.6355286e-02 0.0000000e+00 
0.0000000e+00 -8.2387134e-02 0.0000000e+00 
0.0000000e+00 -8.4548905e-02 0.0000000e+00 
0.0000000e+00 -8.2840607e-02 0.0000000e+00 
0.0000000e+00 -7.7262238e-02 0.0000000e+00 
0.0000000e+00 -6.7813799e-02 0.0000000e+00 
0.0000000e+00 -5.4495282e-02 0.0000000e+00 
0.0000000e+00 -3.7306700e-02 0.0000000e+00 
0.0000000e+00 -1.6248044e-02 0.0000000e+00 
0.0000000e+00 8.6806836e-03 0.0000000e+00 
0.0000000e+00 3.7479483e-02 0.0000000e+00 
0.0000000e+00 5.5340059e-02 0.0000000e+00 
0.0000000e+00 7.0246659e-02 0.0000000e+00 
0.0000000e+00 8.2199283e-02 0.0000000e+00 
0.0000000e+00 9.1197930e-02 0.0000000e+00 
0.0000000e+00 9.7242601e-02 0.0000000e+00 
0.0000000e+00 1.0033330e-01 0.0000000e+00 
0.0000000e+00 1.0047002e-01 0.0000000e+00 
0.0000000e+00 9.7652763e-02 0.0000000e+00 
0.0000000e+00 9.1881528e-02 0.0000000e+00 
0.0000000e+00 8.3156317e-02 0.0000000e+00 
0.0000000e+00 7.1477138e-02 0.0000000e+00 
0.0000000e+00 5.6843974e-02 0.0000000e+00 
0.0000000e+00 5.9354465e-02 0.0000000e+00 
0.0000000e+00 6.0926877e-02 0.0000000e+00 
0.0000000e+00 6.1561208e-02 0.0000000e+00 
0.0000000e+00 6.1257463e-02 0.0000000e+00 
0.0000000e+00 6.0015641e-02 0.0000000e+00 
0.0000000e+00 5.7835735e-02 0.0000000e+00 
0.0000000e+00 5.4717753e-02 0.0000000e+00 
0.0000000e+00 5.0661694e-02 0.0000000e+00 
0.0000000e+00 4.5667555e-02 0.0000000e+00 
0.0000000e+00 3.9735336e-02 0.0000000e+00 
0.0000000e+00 3.2865040e-02 0.0000000e+00 
0.0000000e+00 2.5056664e-02 0.0000000e+00 
0.0000000e+00 2.1964211e-02 0.0000000e+00 
0.0000000e+00 1.9088224e-02 0.0000000e+00 
0.0000000e+00 1.6428702e-02 0.0000000e+00 
0.0000000e+00 1.3985644e-02 0.0000000e+00 
0.0000000e+00 1.1759053e-02 0.0000000e+00 
0.0000000e+00 9.7489264e-03 0.0000000e+00 
0.0000000e+00 7.9552652e-03 0.0000000e+00 
0.0000000e+00 6.3780695e-03 0.0000000e+00 
0.0000000e+00 5.0173393e-03 0.0000000e+00 
0.0000000e+00 3.8730740e-03 0.0000000e+00 
0.0000000e+00 2.9452743e-03 0.0000000e+00 
0.0000000e+00 2.2339399e-03 0.0000000e+00 
0.0000000e+00 2.4178873e-03 0.0000000e+00 
0.0000000e+00 2.5605264e-03 0.0000000e+00 
0.0000000e+00 2.6618575e-03 0.0000000e+00 
0.0000000e+00 2.7218801e-03 0.0000000e+00 
0.0000000e+00 2.7405948e-03 0.0000000e+00 
0.0000000e+00 2.7180009e-03 0.0000000e+00 
0.0000000e+00 2.6540991e-03 0.0000000e+00 
0.0000000e+00 2.5488888e-03 0.0000000e+00 
0.0000000e+00 2.4023706e-03 0.0000000e+00 
0.0000000e+00 2.2145440e-03 0.0000000e+00 
0.0000000e+00 1.9854091e-03 0.0000000e+00 
0.0000000e+00 1.7149660e-03 0.0000000e+00 
0.0000000e+00 -3.7550561e-02 0.0000000e+00 
0.0000000e+00 5.6642458e-02 0.0000000e+00 
0.0000000e+00 2.2254745e-02 0.0000000e+00 
0.0000000e+00 1.5652675e-02 0.0000000e+00 
0.0000000e+00 7.7629101e-04 0.0000000e+00 
0.0000000e+00 1.1722039e-03 0.0000000e+00 
0.0000000e+00 -2.4234194e-02 0.0000000e+00 
0.0000000e+00 6.8546310e-02 0.0000000e+00 
0.0000000e+00 -5.1542218e-03 0.0000000e+00 
0.0000000e+00 7.7476264e-03 0.0000000e+00 
0.0000000e+00 -3.6584248e-04 0.0000000e+00 
0.0000000e+00 7.0830656e-04 0.0000000e+00 
0.0000000e+00 -1.2732280e-02 0.0000000e+00 
0.0000000e+00 7.3191032e-02 0.0000000e+00 
0.0000000e+00 -2.5382927e-02 0.0000000e+00 
0.0000000e+00 1.3415165e-03 0.0000000e+00 
0.0000000e+00 -1.1924605e-03 0.0000000e+00 
0.0000000e+00 3.2327382e-04 0.0000000e+00 
0.0000000e+00 -3.0448225e-03 0.0000000e+00 
0.0000000e+00 7.0576623e-02 0.0000000e+00 
0.0000000e+00 -3.8431369e-02 0.0000000e+00 
0.0000000e+00 -3.5656537e-03 0.0000000e+00 
0.0000000e+00 -1.7035633e-03 0.0000000e+00 
0.0000000e+00 1.7105718e-05 0.0000000e+00 
0.0000000e+00 4.8281811e-03 0.0000000e+00 
0.0000000e+00 6.0703095e-02 0.0000000e+00 
0.0000000e+00 -4.4299550e-02 0.0000000e+00 
0.0000000e+00 -6.9738845e-03 0.0000000e+00 
0.0000000e+00 -1.8991507e-03 0.0000000e+00 
0.0000000e+00 -2.1019773e-04 0.0000000e+00 
0.0000000e+00 1.0886730e-02 0.0000000e+00 
0.0000000e+00 4.3570440e-02 0.0000000e+00 
0.0000000e+00 -4.2987473e-02 0.0000000e+00 
0.0000000e+00 -8.8831754e-03 0.0000000e+00 
0.0000000e+00 -1.7792225e-03 0.0000000e+00 
0.0000000e+00 -3.5863655e-04 0.0000000e+00 
0.0000000e+00 1.5130823e-02 0.0000000e+00 
0.0000000e+00 1.9178657e-02 0.0000000e+00 
0.0000000e+00 -3.4495130e-02 0.0000000e+00 
0.0000000e+00 -9.2935273e-03 0.0000000e+00 
0.0000000e+00 -1.3437791e-03 0.0000000e+00 
0.0000000e+00 -4.2821068e-04 0.0000000e+00 
0.0000000e+00 1.7560462e-02 0.0000000e+00 
0.0000000e+00 -1.2472252e-02 0.0000000e+00 
0.0000000e+00 -1.8822527e-02 0.0000000e+00 
0.0000000e+00 -8.2049398e-03 0.0000000e+00 
0.0000000e+00 -5.9282023e-04 0.0000000e+00 
0.0000000e+00 -4.1892019e-04 0.0000000e+00 
0.0000000e+00 1.8175645e-02 0.0000000e+00 
0.0000000e+00 -5.1382288e-02 0.0000000e+00 
0.0000000e+00 4.0303390e-03 0.0000000e+00 
0.0000000e+00 -5.6174123e-03 0.0000000e+00 
0.0000000e+00 4.7365396e-04 0.0000000e+00 
0.0000000e+00 -3.3076506e-04 0.0000000e+00 
0.0000000e+00 1.6976373e-02 0.0000000e+00 
0.0000000e+00 -9.7551450e-02 0.0000000e+00 
0.0000000e+00 3.4063466e-02 0.0000000e+00 
0.0000000e+00 -1.5309454e-03 0.0000000e+00 
0.0000000e+00 1.8556436e-03 0.0000000e+00 
0.0000000e+00 -1.6374528e-04 0.0000000e+00 
0.0000000e+00 1.3962648e-02 0.0000000e+00 
0.0000000e+00 -1.5097974e-01 0.0000000e+00 
0.0000000e+00 7.1276851e-02 0.0000000e+00 
0.0000000e+00 4.0544611e-03 0.0000000e+00 
0.0000000e+00 3.5531486e-03 0.0000000e+00 
0.0000000e+00 8.2139151e-05 0.0000000e+00 
0.0000000e+00 -3.6993522e-02 0.0000000e+00 
0.0000000e+00 -3.6673188e-02 0.0000000e+00 
0.0000000e+00 -3.5712186e-02 0.0000000e+00 
0.0000000e+00 -3.4110520e-02 0.0000000e+00 
0.0000000e+00 -3.1868190e-02 0.0000000e+00 
0.0000000e+00 -2.8985189e-02 0.0000000e+00 
0.0000000e+00 -2.5461523e-02 0.0000000e+00 
0.0000000e+00 -2.1297192e-02 0.0000000e+00 
0.0000000e+00 -1.6492194e-02 0.0000000e+00 
0.0000000e+00 -1.1046528e-02 0.0000000e+00 
0.0000000e+00 -4.9601956e-03 0.0000000e+00 
0.0000000e+00 1.7668024e-03 0.0000000e+00 
0.0000000e+00 9.1344668e-03 0.0000000e+00 
0.0000000e+00 1.2019726e-02 0.0000000e+00 
0.0000000e+00 1.1034911e-02 0.0000000e+00 
0.0000000e+00 6.1800270e-03 0.0000000e+00 
0.0000000e+00 -2.5449295e-03 0.0000000e+00 
0.0000000e+00 -1.5139957e-02 0.0000000e+00 
0.0000000e+00 -3.1605057e-02 0.0000000e+00 
0.0000000e+00 -5.1940229e-02 0.0000000e+00 
0.0000000e+00 -7.6145470e-02 0.0000000e+00 
0.0000000e+00 -1.0422079e-01 0.0000000e+00 
0.0000000e+00 -1.3616617e-01 0.0000000e+00 
0.0000000e+00 -1.7198162e-01 0.0000000e+00 
0.0000000e+00 -2.1166715e-01 0.0000000e+00 
0.0000000e+00 -2.8396922e-01 0.0000000e+00 
0.0000000e+00 -3.5331729e-01 0.0000000e+00 
0.0000000e+00 -4.1971141e-01 0.0000000e+00 
0.0000000e+00 -4.8315156e-01 0.0000000e+00 
0.0000000e+00 4.5636228e-01 0.0000000e+00 
0.0000000e+00 3.9883012e-01 0.0000000e+00 
0.0000000e+00 3.4425190e-01 0.0000000e+00 
0.0000000e+00 2.9262766e-01 0.0000000e+00 
0.0000000e+00 2.4395742e-01 0.0000000e+00 
0.0000000e+00 1.9824113e-01 0.0000000e+00 
0.0000000e+00 1.5547884e-01 0.0000000e+00 
0.0000000e+00 1.1567050e-01 0.0000000e+00 
0.0000000e+00 1.0180010e-01 0.0000000e+00 
0.0000000e+00 8.8867769e-02 0.0000000e+00 
0.0000000e+00 7.6873519e-02 0.0000000e+00 
0.0000000e+00 6.5817349e-02 0.0000000e+00 
0.0000000e+00 5.5699252e-02 0.0000000e+00 
0.0000000e+00 4.6519239e-02 0.0000000e+00 
0.0000000e+00 3.8277302e-02 0.0000000e+00 
0.0000000e+00 3.0973446e-02 0.0000000e+00 
0.0000000e+00 2.4607668e-02 0.0000000e+00 
0.0000000e+00 1.9179968e-02 0.0000000e+00 
0.0000000e+00 1.4690349e-02 0.0000000e+00 
0.0000000e+00 1.1138807e-02 0.0000000e+00 
0.0000000e+00 1.1864980e-02 0.0000000e+00 
0.0000000e+00 1.2374687e-02 0.0000000e+00 
0.0000000e+00 1.2667929e-02 0.0000000e+00 
0.0000000e+00 1.2744706e-02 0.0000000e+00 
0.0000000e+00 1.2605018e-02 0.0000000e+00 
0.0000000e+00 1.2248863e-02 0.0000000e+00 
0.0000000e+00 1.1676244e-02 0.0000000e+00 
0.0000000e+00 1.0887160e-02 0.0000000e+00 
0.0000000e+00 9.8816101e-03 0.0000000e+00 
0.0000000e+00 8.6595956e-03 0.0000000e+00 
0.0000000e+00 7.2211148e-03 0.0000000e+00 
0.0000000e+00 5.5661690e-03 0.0000000e+00 
0.0000000e+00 4.9090334e-03 0.0000000e+00 
0.0000000e+00 4.2932066e-03 0.0000000e+00 
0.0000000e+00 3.7186877e-03 0.0000000e+00 
0.0000000e+00 3.1854771e-03 0.0000000e+00 
0.0000000e+00 2.6935746e-03 0.0000000e+00 
0.0000000e+00 2.2429805e-03 0.0000000e+00 
0.0000000e+00 1.8336945e-03 0.0000000e+00 