# vtk DataFile Version 4.0
vtk output
ASCII
DATASET UNSTRUCTURED_GRID
POINTS 212 float
0.0000000e+00 0.0000000e+00 0.0000000e+00 
0.0000000e+00 0.0000000e+00 2.5000000e-01 
0.0000000e+00 0.0000000e+00 5.0000000e-01 
0.0000000e+00 0.0000000e+00 7.5000000e-01 
0.0000000e+00 0.0000000e+00 1.0000000e+00 
0.0000000e+00 0.0000000e+00 1.2500000e+00 
0.0000000e+00 0.0000000e+00 1.5000000e+00 
0.0000000e+00 0.0000000e+00 1.7500000e+00 
0.0000000e+00 0.0000000e+00 2.0000000e+00 
0.0000000e+00 0.0000000e+00 2.2500000e+00 
0.0000000e+00 0.0000000e+00 2.5000000e+00 
0.0000000e+00 0.0000000e+00 2.7500000e+00 
0.0000000e+00 0.0000000e+00 3.0000000e+00 
0.0000000e+00 0.0000000e+00 3.2500000e+00 
0.0000000e+00 0.0000000e+00 3.5000000e+00 
0.0000000e+00 0.0000000e+00 3.7500000e+00 
0.0000000e+00 0.0000000e+00 4.0000000e+00 
0.0000000e+00 0.0000000e+00 4.2500000e+00 
0.0000000e+00 0.0000000e+00 4.5000000e+00 
0.0000000e+00 0.0000000e+00 4.7500000e+00 
0.0000000e+00 0.0000000e+00 5.0000000e+00 
0.0000000e+00 0.0000000e+00 5.2500000e+00 
0.0000000e+00 0.0000000e+00 5.5000000e+00 
0.0000000e+00 0.0000000e+00 5.7500000e+00 
0.0000000e+00 0.0000000e+00 6.0000000e+00 
0.0000000e+00 0.0000000e+00 6.2500000e+00 
0.0000000e+00 0.0000000e+00 6.5000000e+00 
0.0000000e+00 0.0000000e+00 6.7500000e+00 
0.0000000e+00 0.0000000e+00 7.0000000e+00 
0.0000000e+00 0.0000000e+00 7.2500000e+00 
0.0000000e+00 0.0000000e+00 7.5000000e+00 
0.0000000e+00 0.0000000e+00 7.7500000e+00 
0.0000000e+00 0.0000000e+00 8.0000000e+00 
0.0000000e+00 0.0000000e+00 8.2500000e+00 
0.0000000e+00 0.0000000e+00 8.5000000e+00 
0.0000000e+00 0.0000000e+00 8.7500000e+00 
0.0000000e+00 0.0000000e+00 9.0000000e+00 
0.0000000e+00 0.0000000e+00 9.2500000e+00 
0.0000000e+00 0.0000000e+00 9.5000000e+00 
0.0000000e+00 0.0000000e+00 9.7500000e+00 
0.0000000e+00 0.0000000e+00 1.0000000e+01 
0.0000000e+00 0.0000000e+00 1.0250000e+01 
0.0000000e+00 0.0000000e+00 1.0500000e+01 
0.0000000e+00 0.0000000e+00 1.0750000e+01 
0.0000000e+00 0.0000000e+00 1.1000000e+01 
0.0000000e+00 0.0000000e+00 1.1250000e+01 
0.0000000e+00 0.0000000e+00 1.1500000e+01 
0.0000000e+00 0.0000000e+00 1.1750000e+01 
0.0000000e+00 0.0000000e+00 1.2000000e+01 
0.0000000e+00 0.0000000e+00 1.2250000e+01 
0.0000000e+00 0.0000000e+00 1.2500000e+01 
0.0000000e+00 0.0000000e+00 1.2750000e+01 
0.0000000e+00 0.0000000e+00 1.3000000e+01 
0.0000000e+00 0.0000000e+00 1.3250000e+01 
0.0000000e+00 0.0000000e+00 1.3500000e+01 
0.0000000e+00 0.0000000e+00 1.3750000e+01 
0.0000000e+00 0.0000000e+00 1.4000000e+01 
0.0000000e+00 0.0000000e+00 1.4250000e+01 
0.0000000e+00 0.0000000e+00 1.4500000e+01 
0.0000000e+00 0.0000000e+00 1.4750000e+01 
0.0000000e+00 0.0000000e+00 1.5000000e+01 
0.0000000e+00 0.0000000e+00 1.5250000e+01 
0.0000000e+00 0.0000000e+00 1.5500000e+01 
0.0000000e+00 0.0000000e+00 1.5750000e+01 
0.0000000e+00 0.0000000e+00 1.6000000e+01 
0.0000000e+00 0.0000000e+00 1.6250000e+01 
0.0000000e+00 0.0000000e+00 1.6500000e+01 
0.0000000e+00 0.0000000e+00 1.6750000e+01 
0.0000000e+00 0.0000000e+00 1.7000000e+01 
0.0000000e+00 0.0000000e+00 1.7250000e+01 
0.0000000e+00 0.0000000e+00 1.7500000e+01 
0.0000000e+00 0.0000000e+00 1.7750000e+01 
0.0000000e+00 0.0000000e+00 1.8000000e+01 
5.0000000e-01 0.0000000e+00 3.0000000e+00 
5.0000000e-01 0.0000000e+00 6.0000000e+00 
5.0000000e-01 0.0000000e+00 9.0000000e+00 
5.0000000e-01 0.0000000e+00 1.2000000e+01 
5.0000000e-01 0.0000000e+00 1.5000000e+01 
5.0000000e-01 0.0000000e+00 1.8000000e+01 
1.0000000e+00 0.0000000e+00 3.0000000e+00 
1.0000000e+00 0.0000000e+00 6.0000000e+00 
1.0000000e+00 0.0000000e+00 9.0000000e+00 
1.0000000e+00 0.0000000e+00 1.2000000e+01 
1.0000000e+00 0.0000000e+00 1.5000000e+01 
1.0000000e+00 0.0000000e+00 1.8000000e+01 
1.5000000e+00 0.0000000e+00 3.0000000e+00 
1.5000000e+00 0.0000000e+00 6.0000000e+00 
1.5000000e+00 0.0000000e+00 9.0000000e+00 
1.5000000e+00 0.0000000e+00 1.2000000e+01 
1.5000000e+00 0.0000000e+00 1.5000000e+01 
1.5000000e+00 0.0000000e+00 1.8000000e+01 
2.0000000e+00 0.0000000e+00 3.0000000e+00 
2.0000000e+00 0.0000000e+00 6.0000000e+00 
2.0000000e+00 0.0000000e+00 9.0000000e+00 
2.0000000e+00 0.0000000e+00 1.2000000e+01 
2.0000000e+00 0.0000000e+00 1.5000000e+01 
2.0000000e+00 0.0000000e+00 1.8000000e+01 
2.5000000e+00 0.0000000e+00 3.0000000e+00 
2.5000000e+00 0.0000000e+00 6.0000000e+00 
2.5000000e+00 0.0000000e+00 9.0000000e+00 
2.5000000e+00 0.0000000e+00 1.2000000e+01 
2.5000000e+00 0.0000000e+00 1.5000000e+01 
2.5000000e+00 0.0000000e+00 1.8000000e+01 
3.0000000e+00 0.0000000e+00 3.0000000e+00 
3.0000000e+00 0.0000000e+00 6.0000000e+00 
3.0000000e+00 0.0000000e+00 9.0000000e+00 
3.0000000e+00 0.0000000e+00 1.2000000e+01 
3.0000000e+00 0.0000000e+00 1.5000000e+01 
3.0000000e+00 0.0000000e+00 1.8000000e+01 
3.5000000e+00 0.0000000e+00 3.0000000e+00 
3.5000000e+00 0.0000000e+00 6.0000000e+00 
3.5000000e+00 0.0000000e+00 9.0000000e+00 
3.5000000e+00 0.0000000e+00 1.2000000e+01 
3.5000000e+00 0.0000000e+00 1.5000000e+01 
3.5000000e+00 0.0000000e+00 1.8000000e+01 
4.0000000e+00 0.0000000e+00 3.0000000e+00 
4.0000000e+00 0.0000000e+00 6.0000000e+00 
4.0000000e+00 0.0000000e+00 9.0000000e+00 
4.0000000e+00 0.0000000e+00 1.2000000e+01 
4.0000000e+00 0.0000000e+00 1.5000000e+01 
4.0000000e+00 0.0000000e+00 1.8000000e+01 
4.5000000e+00 0.0000000e+00 3.0000000e+00 
4.5000000e+00 0.0000000e+00 6.0000000e+00 
4.5000000e+00 0.0000000e+00 9.0000000e+00 
4.5000000e+00 0.0000000e+00 1.2000000e+01 
4.5000000e+00 0.0000000e+00 1.5000000e+01 
4.5000000e+00 0.0000000e+00 1.8000000e+01 
5.0000000e+00 0.0000000e+00 3.0000000e+00 
5.0000000e+00 0.0000000e+00 6.0000000e+00 
5.0000000e+00 0.0000000e+00 9.0000000e+00 
5.0000000e+00 0.0000000e+00 1.2000000e+01 
5.0000000e+00 0.0000000e+00 1.5000000e+01 
5.0000000e+00 0.0000000e+00 1.8000000e+01 
5.5000000e+00 0.0000000e+00 3.0000000e+00 
5.5000000e+00 0.0000000e+00 6.0000000e+00 
5.5000000e+00 0.0000000e+00 9.0000000e+00 
5.5000000e+00 0.0000000e+00 1.2000000e+01 
5.5000000e+00 0.0000000e+00 1.5000000e+01 
5.5000000e+00 0.0000000e+00 1.8000000e+01 
6.0000000e+00 0.0000000e+00 0.0000000e+00 
6.0000000e+00 0.0000000e+00 2.5000000e-01 
6.0000000e+00 0.0000000e+00 5.0000000e-01 
6.0000000e+00 0.0000000e+00 7.5000000e-01 
6.0000000e+00 0.0000000e+00 1.0000000e+00 
6.0000000e+00 0.0000000e+00 1.2500000e+00 
6.0000000e+00 0.0000000e+00 1.5000000e+00 
6.0000000e+00 0.0000000e+00 1.7500000e+00 
6.0000000e+00 0.0000000e+00 2.0000000e+00 
6.0000000e+00 0.0000000e+00 2.2500000e+00 
6.0000000e+00 0.0000000e+00 2.5000000e+00 
6.0000000e+00 0.0000000e+00 2.7500000e+00 
6.0000000e+00 0.0000000e+00 3.0000000e+00 
6.0000000e+00 0.0000000e+00 3.2500000e+00 
6.0000000e+00 0.0000000e+00 3.5000000e+00 
6.0000000e+00 0.0000000e+00 3.7500000e+00 
6.0000000e+00 0.0000000e+00 4.0000000e+00 
6.0000000e+00 0.0000000e+00 4.2500000e+00 
6.0000000e+00 0.0000000e+00 4.5000000e+00 
6.0000000e+00 0.0000000e+00 4.7500000e+00 
6.0000000e+00 0.0000000e+00 5.0000000e+00 
6.0000000e+00 0.0000000e+00 5.2500000e+00 
6.0000000e+00 0.0000000e+00 5.5000000e+00 
6.0000000e+00 0.0000000e+00 5.7500000e+00 
6.0000000e+00 0.0000000e+00 6.0000000e+00 
6.0000000e+00 0.0000000e+00 6.2500000e+00 
6.0000000e+00 0.0000000e+00 6.5000000e+00 
6.0000000e+00 0.0000000e+00 6.7500000e+00 
6.0000000e+00 0.0000000e+00 7.0000000e+00 
6.0000000e+00 0.0000000e+00 7.2500000e+00 
6.0000000e+00 0.0000000e+00 7.5000000e+00 
6.0000000e+00 0.0000000e+00 7.7500000e+00 
6.0000000e+00 0.0000000e+00 8.0000000e+00 
6.0000000e+00 0.0000000e+00 8.2500000e+00 
6.0000000e+00 0.0000000e+00 8.5000000e+00 
6.0000000e+00 0.0000000e+00 8.7500000e+00 
6.0000000e+00 0.0000000e+00 9.0000000e+00 
6.0000000e+00 0.0000000e+00 9.2500000e+00 
6.0000000e+00 0.0000000e+00 9.5000000e+00 
6.0000000e+00 0.0000000e+00 9.7500000e+00 
6.0000000e+00 0.0000000e+00 1.0000000e+01 
6.0000000e+00 0.0000000e+00 1.0250000e+01 
6.0000000e+00 0.0000000e+00 1.0500000e+01 
6.0000000e+00 0.0000000e+00 1.0750000e+01 
6.0000000e+00 0.0000000e+00 1.1000000e+01 
6.0000000e+00 0.0000000e+00 1.1250000e+01 
6.0000000e+00 0.0000000e+00 1.1500000e+01 
6.0000000e+00 0.0000000e+00 1.1750000e+01 
6.0000000e+00 0.0000000e+00 1.2000000e+01 
6.0000000e+00 0.0000000e+00 1.2250000e+01 
6.0000000e+00 0.0000000e+00 1.2500000e+01 
6.0000000e+00 0.0000000e+00 1.2750000e+01 
6.0000000e+00 0.0000000e+00 1.3000000e+01 
6.0000000e+00 0.0000000e+00 1.3250000e+01 
6.0000000e+00 0.0000000e+00 1.3500000e+01 
6.0000000e+00 0.0000000e+00 1.3750000e+01 
6.0000000e+00 0.0000000e+00 1.4000000e+01 
6.0000000e+00 0.0000000e+00 1.4250000e+01 
6.0000000e+00 0.0000000e+00 1.4500000e+01 
6.0000000e+00 0.0000000e+00 1.4750000e+01 
6.0000000e+00 0.0000000e+00 1.5000000e+01 
6.0000000e+00 0.0000000e+00 1.5250000e+01 
6.0000000e+00 0.0000000e+00 1.5500000e+01 
6.0000000e+00 0.0000000e+00 1.5750000e+01 
6.0000000e+00 0.0000000e+00 1.6000000e+01 
6.0000000e+00 0.0000000e+00 1.6250000e+01 
6.0000000e+00 0.0000000e+00 1.6500000e+01 
6.0000000e+00 0.0000000e+00 1.6750000e+01 
6.0000000e+00 0.0000000e+00 1.7000000e+01 
6.0000000e+00 0.0000000e+00 1.7250000e+01 
6.0000000e+00 0.0000000e+00 1.7500000e+01 
6.0000000e+00 0.0000000e+00 1.7750000e+01 
6.0000000e+00 0.0000000e+00 1.8000000e+01 

CELLS 216 648
2 0 1
2 1 2
2 2 3
2 3 4
2 4 5
2 5 6
2 6 7
2 7 8
2 8 9
2 9 10
2 10 11
2 11 12
2 12 13
2 13 14
2 14 15
2 15 16
2 16 17
2 17 18
2 18 19
2 19 20
2 20 21
2 21 22
2 22 23
2 23 24
2 24 25
2 25 26
2 26 27
2 27 28
2 28 29
2 29 30
2 30 31
2 31 32
2 32 33
2 33 34
2 34 35
2 35 36
2 36 37
2 37 38
2 38 39
2 39 40
2 40 41
2 41 42
2 42 43
2 43 44
2 44 45
2 45 46
2 46 47
2 47 48
2 48 49
2 49 50
2 50 51
2 51 52
2 52 53
2 53 54
2 54 55
2 55 56
2 56 57
2 57 58
2 58 59
2 59 60
2 60 61
2 61 62
2 62 63
2 63 64
2 64 65
2 65 66
2 66 67
2 67 68
2 68 69
2 69 70
2 70 71
2 71 72
2 139 140
2 140 141
2 141 142
2 142 143
2 143 144
2 144 145
2 145 146
2 146 147
2 147 148
2 148 149
2 149 150
2 150 151
2 151 152
2 152 153
2 153 154
2 154 155
2 155 156
2 156 157
2 157 158
2 158 159
2 159 160
2 160 161
2 161 162
2 162 163
2 163 164
2 164 165
2 165 166
2 166 167
2 167 168
2 168 169
2 169 170
2 170 171
2 171 172
2 172 173
2 173 174
2 174 175
2 175 176
2 176 177
2 177 178
2 178 179
2 179 180
2 180 181
2 181 182
2 182 183
2 183 184
2 184 185
2 185 186
2 186 187
2 187 188
2 188 189
2 189 190
2 190 191
2 191 192
2 192 193
2 193 194
2 194 195
2 195 196
2 196 197
2 197 198
2 198 199
2 199 200
2 200 201
2 201 202
2 202 203
2 203 204
2 204 205
2 205 206
2 206 207
2 207 208
2 208 209
2 209 210
2 210 211
2 12 73
2 73 79
2 79 85
2 85 91
2 91 97
2 97 103
2 103 109
2 109 115
2 115 121
2 121 127
2 127 133
2 133 151
2 24 74
2 74 80
2 80 86
2 86 92
2 92 98
2 98 104
2 104 110
2 110 116
2 116 122
2 122 128
2 128 134
2 134 163
2 36 75
2 75 81
2 81 87
2 87 93
2 93 99
2 99 105
2 105 111
2 111 117
2 117 123
2 123 129
2 129 135
2 135 175
2 48 76
2 76 82
2 82 88
2 88 94
2 94 100
2 100 106
2 106 112
2 112 118
2 118 124
2 124 130
2 130 136
2 136 187
2 60 77
2 77 83
2 83 89
2 89 95
2 95 101
2 101 107
2 107 113
2 113 119
2 119 125
2 125 131
2 131 137
2 137 199
2 72 78
2 78 84
2 84 90
2 90 96
2 96 102
2 102 108
2 108 114
2 114 120
2 120 126
2 126 132
2 132 138
2 138 211

CELL_TYPES 216
3
3
3
3
3
3
3
3
3
3
3
3
3
3
3
3
3
3
3
3
3
3
3
3
3
3
3
3
3
3
3
3
3
3
3
3
3
3
3
3
3
3
3
3
3
3
3
3
3
3
3
3
3
3
3
3
3
3
3
3
3
3
3
3
3
3
3
3
3
3
3
3
3
3
3
3
3
3
3
3
3
3
3
3
3
3
3
3
3
3
3
3
3
3
3
3
3
3
3
3
3
3
3
3
3
3
3
3
3
3
3
3
3
3
3
3
3
3
3
3
3
3
3
3
3
3
3
3
3
3
3
3
3
3
3
3
3
3
3
3
3
3
3
3
3
3
3
3
3
3
3
3
3
3
3
3
3
3
3
3
3
3
3
3
3
3
3
3
3
3
3
3
3
3
3
3
3
3
3
3
3
3
3
3
3
3
3
3
3
3
3
3
3
3
3
3
3
3
3
3
3
3
3
3
3
3
3
3
3
3
3
3
3
3
3
3
POINT_DATA 212
FIELD FieldData 8
DISPLACEMENT 3 212  float
0.0000000e+00 0.0000000e+00 0.0000000e+00 
-6.6203720e-05 0.0000000e+00 -1.3329075e-05 
-1.2964143e-04 0.0000000e+00 -2.6567133e-05 
-1.8754709e-04 0.0000000e+00 -3.9714174e-05 
-2.3715469e-04 0.0000000e+00 -5.2770196e-05 
-2.7569820e-04 0.0000000e+00 -6.5735199e-05 
-3.0041160e-04 0.0000000e+00 -7.8609184e-05 
-3.0852889e-04 0.0000000e+00 -9.1392154e-05 
-2.9728404e-04 0.0000000e+00 -1.0408410e-04 
-2.6391103e-04 0.0000000e+00 -1.1668504e-04 
-2.0564384e-04 0.0000000e+00 -1.2919496e-04 
-1.1971642e-04 0.0000000e+00 -1.4161385e-04 
-3.3627919e-06 0.0000000e+00 -1.5394173e-04 
1.0144608e-04 0.0000000e+00 -1.6504171e-04 
1.5695630e-04 0.0000000e+00 -1.7605067e-04 
1.7225961e-04 0.0000000e+00 -1.8696861e-04 
1.5644766e-04 0.0000000e+00 -1.9779554e-04 
1.1861215e-04 0.0000000e+00 -2.0853145e-04 
6.7844798e-05 0.0000000e+00 -2.1917633e-04 
1.3237293e-05 0.0000000e+00 -2.2973020e-04 
-3.6118669e-05 0.0000000e+00 -2.4019305e-04 
-7.1131391e-05 0.0000000e+00 -2.5056489e-04 
-8.2709186e-05 0.0000000e+00 -2.6084570e-04 
-6.1760344e-05 0.0000000e+00 -2.7103550e-04 
8.0682508e-07 0.0000000e+00 -2.8113430e-04 
6.6119705e-05 0.0000000e+00 -2.9000518e-04 
9.4293864e-05 0.0000000e+00 -2.9878505e-04 
9.2903305e-05 0.0000000e+00 -3.0747388e-04 
6.9522015e-05 0.0000000e+00 -3.1607170e-04 
3.1724001e-05 0.0000000e+00 -3.2457852e-04 
-1.2916747e-05 0.0000000e+00 -3.3299430e-04 
-5.6826237e-05 0.0000000e+00 -3.4131910e-04 
-9.2430470e-05 0.0000000e+00 -3.4955284e-04 
-1.1215546e-04 0.0000000e+00 -3.5769559e-04 
-1.0842719e-04 0.0000000e+00 -3.6574731e-04 
-7.3671697e-05 0.0000000e+00 -3.7370800e-04 
-3.1495904e-07 0.0000000e+00 -3.8157770e-04 
7.1970011e-05 0.0000000e+00 -3.8821949e-04 
1.0390520e-04 0.0000000e+00 -3.9477024e-04 
1.0365706e-04 0.0000000e+00 -4.0122998e-04 
7.9392048e-05 0.0000000e+00 -4.0759871e-04 
3.9276620e-05 0.0000000e+00 -4.1387643e-04 
-8.5227630e-06 0.0000000e+00 -4.2006312e-04 
-5.5839642e-05 0.0000000e+00 -4.2615880e-04 
-9.4507559e-05 0.0000000e+00 -4.3216345e-04 
-1.1636006e-04 0.0000000e+00 -4.3807711e-04 
-1.1323069e-04 0.0000000e+00 -4.4389971e-04 
-7.6952980e-05 0.0000000e+00 -4.4963133e-04 
6.3952001e-07 0.0000000e+00 -4.5527192e-04 
8.0408281e-05 0.0000000e+00 -4.5968461e-04 
1.2241279e-04 0.0000000e+00 -4.6400627e-04 
1.3361653e-04 0.0000000e+00 -4.6823692e-04 
1.2098294e-04 0.0000000e+00 -4.7237656e-04 
9.1475522e-05 0.0000000e+00 -4.7642516e-04 
5.2057727e-05 0.0000000e+00 -4.8038276e-04 
9.6930307e-06 0.0000000e+00 -4.8424935e-04 
-2.8655095e-05 0.0000000e+00 -4.8802490e-04 
-5.6023178e-05 0.0000000e+00 -4.9170945e-04 
-6.5447755e-05 0.0000000e+00 -4.9530296e-04 
-4.9965347e-05 0.0000000e+00 -4.9880549e-04 
-2.6124878e-06 0.0000000e+00 -5.0221698e-04 
3.5815407e-05 0.0000000e+00 -5.0440058e-04 
2.7799113e-05 0.0000000e+00 -5.0649315e-04 
-1.4783600e-05 0.0000000e+00 -5.0849468e-04 
-8.0054968e-05 0.0000000e+00 -5.1040523e-04 
-1.5613722e-04 0.0000000e+00 -5.1222474e-04 
-2.3115260e-04 0.0000000e+00 -5.1395321e-04 
-2.9322336e-04 0.0000000e+00 -5.1559071e-04 
-3.3047170e-04 0.0000000e+00 -5.1713717e-04 
-3.3101984e-04 0.0000000e+00 -5.1859266e-04 
-2.8299008e-04 0.0000000e+00 -5.1995704e-04 
-1.7450460e-04 0.0000000e+00 -5.2123045e-04 
6.3143375e-06 0.0000000e+00 -5.2241288e-04 
-2.8023267e-06 0.0000000e+00 -5.6934904e-04 
6.7235425e-07 0.0000000e+00 -6.1205821e-04 
-2.6246587e-07 0.0000000e+00 -7.2858931e-04 
5.3293331e-07 0.0000000e+00 -8.1289856e-04 
-2.1770732e-06 0.0000000e+00 -7.9501182e-04 
5.2619480e-06 0.0000000e+00 -1.0999899e-03 
-2.2418612e-06 0.0000000e+00 -1.1658560e-03 
5.3788341e-07 0.0000000e+00 -1.1394424e-03 
-2.0997270e-07 0.0000000e+00 -1.2691362e-03 
4.2634665e-07 0.0000000e+00 -1.3621305e-03 
-1.7416585e-06 0.0000000e+00 -1.2911996e-03 
4.2095585e-06 0.0000000e+00 -1.8291811e-03 
-1.6813959e-06 0.0000000e+00 -1.7894857e-03 
4.0341254e-07 0.0000000e+00 -1.7093100e-03 
-1.5747952e-07 0.0000000e+00 -1.8492414e-03 
3.1976001e-07 0.0000000e+00 -1.9489907e-03 
-1.3062439e-06 0.0000000e+00 -1.8368032e-03 
3.1571687e-06 0.0000000e+00 -2.5560097e-03 
-1.1209306e-06 0.0000000e+00 -2.3204782e-03 
2.6894170e-07 0.0000000e+00 -2.2019011e-03 
-1.0498635e-07 0.0000000e+00 -2.3491450e-03 
2.1317332e-07 0.0000000e+00 -2.4537195e-03 
-8.7082924e-07 0.0000000e+00 -2.3120628e-03 
2.1047792e-06 0.0000000e+00 -3.1607158e-03 
-5.6046531e-07 0.0000000e+00 -2.6732909e-03 
1.3447085e-07 0.0000000e+00 -2.5316726e-03 
-5.2493174e-08 0.0000000e+00 -2.6833043e-03 
1.0658667e-07 0.0000000e+00 -2.7907738e-03 
-4.3541462e-07 0.0000000e+00 -2.6314356e-03 
1.0523896e-06 0.0000000e+00 -3.5577565e-03 
-4.0900029e-16 0.0000000e+00 -2.7965980e-03 
-1.3161060e-16 0.0000000e+00 -2.6472996e-03 
3.5853719e-16 0.0000000e+00 -2.8003936e-03 
9.5628177e-16 0.0000000e+00 -2.9088280e-03 
1.5389155e-15 0.0000000e+00 -2.7435962e-03 
1.9231580e-15 0.0000000e+00 -3.6958063e-03 
5.6046531e-07 0.0000000e+00 -2.6732909e-03 
-1.3447085e-07 0.0000000e+00 -2.5316726e-03 
5.2493174e-08 0.0000000e+00 -2.6833043e-03 
-1.0658666e-07 0.0000000e+00 -2.7907738e-03 
4.3541462e-07 0.0000000e+00 -2.6314356e-03 
-1.0523896e-06 0.0000000e+00 -3.5577565e-03 
1.1209306e-06 0.0000000e+00 -2.3204782e-03 
-2.6894170e-07 0.0000000e+00 -2.2019011e-03 
1.0498635e-07 0.0000000e+00 -2.3491450e-03 
-2.1317332e-07 0.0000000e+00 -2.4537195e-03 
8.7082924e-07 0.0000000e+00 -2.3120628e-03 
-2.1047792e-06 0.0000000e+00 -3.1607158e-03 
1.6813959e-06 0.0000000e+00 -1.7894857e-03 
-4.0341254e-07 0.0000000e+00 -1.7093100e-03 
1.5747952e-07 0.0000000e+00 -1.8492414e-03 
-3.1976001e-07 0.0000000e+00 -1.9489907e-03 
1.3062439e-06 0.0000000e+00 -1.8368032e-03 
-3.1571687e-06 0.0000000e+00 -2.5560097e-03 
2.2418612e-06 0.0000000e+00 -1.1658560e-03 
-5.3788341e-07 0.0000000e+00 -1.1394424e-03 
2.0997270e-07 0.0000000e+00 -1.2691362e-03 
-4.2634665e-07 0.0000000e+00 -1.3621305e-03 
1.7416585e-06 0.0000000e+00 -1.2911996e-03 
-4.2095585e-06 0.0000000e+00 -1.8291811e-03 
2.8023267e-06 0.0000000e+00 -5.6934904e-04 
-6.7235425e-07 0.0000000e+00 -6.1205821e-04 
2.6246587e-07 0.0000000e+00 -7.2858931e-04 
-5.3293331e-07 0.0000000e+00 -8.1289856e-04 
2.1770732e-06 0.0000000e+00 -7.9501182e-04 
-5.2619480e-06 0.0000000e+00 -1.0999899e-03 
0.0000000e+00 0.0000000e+00 0.0000000e+00 
6.6203720e-05 0.0000000e+00 -1.3329075e-05 
1.2964143e-04 0.0000000e+00 -2.6567133e-05 
1.8754709e-04 0.0000000e+00 -3.9714174e-05 
2.3715469e-04 0.0000000e+00 -5.2770196e-05 
2.7569820e-04 0.0000000e+00 -6.5735199e-05 
3.0041160e-04 0.0000000e+00 -7.8609184e-05 
3.0852889e-04 0.0000000e+00 -9.1392154e-05 
2.9728404e-04 0.0000000e+00 -1.0408410e-04 
2.6391103e-04 0.0000000e+00 -1.1668504e-04 
2.0564384e-04 0.0000000e+00 -1.2919496e-04 
1.1971642e-04 0.0000000e+00 -1.4161385e-04 
3.3627919e-06 0.0000000e+00 -1.5394173e-04 
-1.0144608e-04 0.0000000e+00 -1.6504171e-04 
-1.5695630e-04 0.0000000e+00 -1.7605067e-04 
-1.7225961e-04 0.0000000e+00 -1.8696861e-04 
-1.5644766e-04 0.0000000e+00 -1.9779554e-04 
-1.1861215e-04 0.0000000e+00 -2.0853145e-04 
-6.7844798e-05 0.0000000e+00 -2.1917633e-04 
-1.3237293e-05 0.0000000e+00 -2.2973020e-04 
3.6118669e-05 0.0000000e+00 -2.4019305e-04 
7.1131391e-05 0.0000000e+00 -2.5056489e-04 
8.2709186e-05 0.0000000e+00 -2.6084570e-04 
6.1760344e-05 0.0000000e+00 -2.7103550e-04 
-8.0682508e-07 0.0000000e+00 -2.8113430e-04 
-6.6119705e-05 0.0000000e+00 -2.9000518e-04 
-9.4293864e-05 0.0000000e+00 -2.9878505e-04 
-9.2903305e-05 0.0000000e+00 -3.0747388e-04 
-6.9522015e-05 0.0000000e+00 -3.1607170e-04 
-3.1724001e-05 0.0000000e+00 -3.2457852e-04 
1.2916747e-05 0.0000000e+00 -3.3299430e-04 
5.6826237e-05 0.0000000e+00 -3.4131910e-04 
9.2430470e-05 0.0000000e+00 -3.4955284e-04 
1.1215546e-04 0.0000000e+00 -3.5769559e-04 
1.0842719e-04 0.0000000e+00 -3.6574731e-04 
7.3671697e-05 0.0000000e+00 -3.7370800e-04 
3.1495904e-07 0.0000000e+00 -3.8157770e-04 
-7.1970011e-05 0.0000000e+00 -3.8821949e-04 
-1.0390520e-04 0.0000000e+00 -3.9477024e-04 
-1.0365706e-04 0.0000000e+00 -4.0122998e-04 
-7.9392048e-05 0.0000000e+00 -4.0759871e-04 
-3.9276620e-05 0.0000000e+00 -4.1387643e-04 
8.5227630e-06 0.0000000e+00 -4.2006312e-04 
5.5839642e-05 0.0000000e+00 -4.2615880e-04 
9.4507559e-05 0.0000000e+00 -4.3216345e-04 
1.1636006e-04 0.0000000e+00 -4.3807711e-04 
1.1323069e-04 0.0000000e+00 -4.4389971e-04 
7.6952980e-05 0.0000000e+00 -4.4963133e-04 
-6.3952001e-07 0.0000000e+00 -4.5527192e-04 
-8.0408281e-05 0.0000000e+00 -4.5968461e-04 
-1.2241279e-04 0.0000000e+00 -4.6400627e-04 
-1.3361653e-04 0.0000000e+00 -4.6823692e-04 
-1.2098294e-04 0.0000000e+00 -4.7237656e-04 
-9.1475522e-05 0.0000000e+00 -4.7642516e-04 
-5.2057727e-05 0.0000000e+00 -4.8038276e-04 
-9.6930307e-06 0.0000000e+00 -4.8424935e-04 
2.8655095e-05 0.0000000e+00 -4.8802490e-04 
5.6023178e-05 0.0000000e+00 -4.9170945e-04 
6.5447755e-05 0.0000000e+00 -4.9530296e-04 
4.9965347e-05 0.0000000e+00 -4.9880549e-04 
2.6124878e-06 0.0000000e+00 -5.0221698e-04 
-3.5815407e-05 0.0000000e+00 -5.0440058e-04 
-2.7799113e-05 0.0000000e+00 -5.0649315e-04 
1.4783600e-05 0.0000000e+00 -5.0849468e-04 
8.0054968e-05 0.0000000e+00 -5.1040523e-04 
1.5613722e-04 0.0000000e+00 -5.1222474e-04 
2.3115260e-04 0.0000000e+00 -5.1395321e-04 
2.9322336e-04 0.0000000e+00 -5.1559071e-04 
3.3047170e-04 0.0000000e+00 -5.1713717e-04 
3.3101984e-04 0.0000000e+00 -5.1859266e-04 
2.8299008e-04 0.0000000e+00 -5.1995704e-04 
1.7450460e-04 0.0000000e+00 -5.2123045e-04 
-6.3143375e-06 0.0000000e+00 -5.2241288e-04 
ROTATION 3 212  float
0.0000000e+00 -2.6665890e-04 0.0000000e+00 
0.0000000e+00 -2.6112687e-04 0.0000000e+00 
0.0000000e+00 -2.4453073e-04 0.0000000e+00 
0.0000000e+00 -2.1687054e-04 0.0000000e+00 
0.0000000e+00 -1.7814625e-04 0.0000000e+00 
0.0000000e+00 -1.2835787e-04 0.0000000e+00 
0.0000000e+00 -6.7505425e-05 0.0000000e+00 
0.0000000e+00 4.4111102e-06 0.0000000e+00 
0.0000000e+00 8.7391723e-05 0.0000000e+00 
0.0000000e+00 1.8143642e-04 0.0000000e+00 
0.0000000e+00 2.8654520e-04 0.0000000e+00 
0.0000000e+00 4.0271805e-04 0.0000000e+00 
0.0000000e+00 5.2995502e-04 0.0000000e+00 
0.0000000e+00 3.1457708e-04 0.0000000e+00 
0.0000000e+00 1.3556592e-04 0.0000000e+00 
0.0000000e+00 -7.0784517e-06 0.0000000e+00 
0.0000000e+00 -1.1335604e-04 0.0000000e+00 
0.0000000e+00 -1.8326683e-04 0.0000000e+00 
0.0000000e+00 -2.1681085e-04 0.0000000e+00 
0.0000000e+00 -2.1398807e-04 0.0000000e+00 
0.0000000e+00 -1.7479851e-04 0.0000000e+00 
0.0000000e+00 -9.9242163e-05 0.0000000e+00 
0.0000000e+00 1.2680971e-05 0.0000000e+00 
0.0000000e+00 1.6097089e-04 0.0000000e+00 
0.0000000e+00 3.4562760e-04 0.0000000e+00 
0.0000000e+00 1.8192474e-04 0.0000000e+00 
0.0000000e+00 4.8517872e-05 0.0000000e+00 
0.0000000e+00 -5.4593020e-05 0.0000000e+00 
0.0000000e+00 -1.2740793e-04 0.0000000e+00 
0.0000000e+00 -1.6992686e-04 0.0000000e+00 
0.0000000e+00 -1.8214982e-04 0.0000000e+00 
0.0000000e+00 -1.6407677e-04 0.0000000e+00 
0.0000000e+00 -1.1570777e-04 0.0000000e+00 
0.0000000e+00 -3.7042777e-05 0.0000000e+00 
0.0000000e+00 7.1918192e-05 0.0000000e+00 
0.0000000e+00 2.1117514e-04 0.0000000e+00 
0.0000000e+00 3.8072807e-04 0.0000000e+00 
0.0000000e+00 2.0299602e-04 0.0000000e+00 
0.0000000e+00 5.7929785e-05 0.0000000e+00 
0.0000000e+00 -5.4470616e-05 0.0000000e+00 
0.0000000e+00 -1.3420518e-04 0.0000000e+00 
0.0000000e+00 -1.8127392e-04 0.0000000e+00 
0.0000000e+00 -1.9567682e-04 0.0000000e+00 
0.0000000e+00 -1.7741391e-04 0.0000000e+00 
0.0000000e+00 -1.2648515e-04 0.0000000e+00 
0.0000000e+00 -4.2890559e-05 0.0000000e+00 
0.0000000e+00 7.3369862e-05 0.0000000e+00 
0.0000000e+00 2.2229610e-04 0.0000000e+00 
0.0000000e+00 4.0388820e-04 0.0000000e+00 
0.0000000e+00 2.3890423e-04 0.0000000e+00 
0.0000000e+00 1.0177417e-04 0.0000000e+00 
0.0000000e+00 -7.5020184e-06 0.0000000e+00 
0.0000000e+00 -8.8924324e-05 0.0000000e+00 
0.0000000e+00 -1.4249275e-04 0.0000000e+00 
0.0000000e+00 -1.6820729e-04 0.0000000e+00 
0.0000000e+00 -1.6606796e-04 0.0000000e+00 
0.0000000e+00 -1.3607474e-04 0.0000000e+00 
0.0000000e+00 -7.8227633e-05 0.0000000e+00 
0.0000000e+00 7.4733516e-06 0.0000000e+00 
0.0000000e+00 1.2102822e-04 0.0000000e+00 
0.0000000e+00 2.6243695e-04 0.0000000e+00 
0.0000000e+00 5.2904692e-05 0.0000000e+00 
0.0000000e+00 -1.0911652e-04 0.0000000e+00 
0.0000000e+00 -2.2362667e-04 0.0000000e+00 
0.0000000e+00 -2.9062576e-04 0.0000000e+00 
0.0000000e+00 -3.1011380e-04 0.0000000e+00 
0.0000000e+00 -2.8209077e-04 0.0000000e+00 
0.0000000e+00 -2.0655667e-04 0.0000000e+00 
0.0000000e+00 -8.3511513e-05 0.0000000e+00 
0.0000000e+00 8.7044704e-05 0.0000000e+00 
0.0000000e+00 3.0511199e-04 0.0000000e+00 
0.0000000e+00 5.7069032e-04 0.0000000e+00 
0.0000000e+00 8.8377972e-04 0.0000000e+00 
0.0000000e+00 1.0689428e-03 0.0000000e+00 
0.0000000e+00 9.1533660e-04 0.0000000e+00 
0.0000000e+00 9.4458699e-04 0.0000000e+00 
0.0000000e+00 9.6388714e-04 0.0000000e+00 
0.0000000e+00 8.4601110e-04 0.0000000e+00 
0.0000000e+00 1.3637968e-03 0.0000000e+00 
0.0000000e+00 1.2657595e-03 0.0000000e+00 
0.0000000e+00 1.1428746e-03 0.0000000e+00 
0.0000000e+00 1.1662749e-03 0.0000000e+00 
0.0000000e+00 1.1817149e-03 0.0000000e+00 
0.0000000e+00 1.0874141e-03 0.0000000e+00 
0.0000000e+00 1.5016426e-03 0.0000000e+00 
0.0000000e+00 1.1888394e-03 0.0000000e+00 
0.0000000e+00 1.0966756e-03 0.0000000e+00 
0.0000000e+00 1.1142259e-03 0.0000000e+00 
0.0000000e+00 1.1258060e-03 0.0000000e+00 
0.0000000e+00 1.0550803e-03 0.0000000e+00 
0.0000000e+00 1.3657517e-03 0.0000000e+00 
0.0000000e+00 9.0661662e-04 0.0000000e+00 
0.0000000e+00 8.4517413e-04 0.0000000e+00 
0.0000000e+00 8.5687428e-04 0.0000000e+00 
0.0000000e+00 8.6459436e-04 0.0000000e+00 
0.0000000e+00 8.1744394e-04 0.0000000e+00 
0.0000000e+00 1.0245582e-03 0.0000000e+00 
0.0000000e+00 4.8752542e-04 0.0000000e+00 
0.0000000e+00 4.5680418e-04 0.0000000e+00 
0.0000000e+00 4.6265425e-04 0.0000000e+00 
0.0000000e+00 4.6651426e-04 0.0000000e+00 
0.0000000e+00 4.4293908e-04 0.0000000e+00 
0.0000000e+00 5.4649619e-04 0.0000000e+00 
0.0000000e+00 2.6914139e-18 0.0000000e+00 
0.0000000e+00 -7.2668174e-17 0.0000000e+00 
0.0000000e+00 -7.6705299e-17 0.0000000e+00 
0.0000000e+00 -9.9582315e-17 0.0000000e+00 
0.0000000e+00 -5.9211110e-17 0.0000000e+00 
0.0000000e+00 -2.2496968e-17 0.0000000e+00 
0.0000000e+00 -4.8752542e-04 0.0000000e+00 
0.0000000e+00 -4.5680418e-04 0.0000000e+00 
0.0000000e+00 -4.6265425e-04 0.0000000e+00 
0.0000000e+00 -4.6651426e-04 0.0000000e+00 
0.0000000e+00 -4.4293908e-04 0.0000000e+00 
0.0000000e+00 -5.4649619e-04 0.0000000e+00 
0.0000000e+00 -9.0661662e-04 0.0000000e+00 
0.0000000e+00 -8.4517413e-04 0.0000000e+00 
0.0000000e+00 -8.5687428e-04 0.0000000e+00 
0.0000000e+00 -8.6459436e-04 0.0000000e+00 
0.0000000e+00 -8.1744394e-04 0.0000000e+00 
0.0000000e+00 -1.0245582e-03 0.0000000e+00 
0.0000000e+00 -1.1888394e-03 0.0000000e+00 
0.0000000e+00 -1.0966756e-03 0.0000000e+00 
0.0000000e+00 -1.1142259e-03 0.0000000e+00 
0.0000000e+00 -1.1258060e-03 0.0000000e+00 
0.0000000e+00 -1.0550803e-03 0.0000000e+00 
0.0000000e+00 -1.3657517e-03 0.0000000e+00 
0.0000000e+00 -1.2657595e-03 0.0000000e+00 
0.0000000e+00 -1.1428746e-03 0.0000000e+00 
0.0000000e+00 -1.1662749e-03 0.0000000e+00 
0.0000000e+00 -1.1817149e-03 0.0000000e+00 
0.0000000e+00 -1.0874141e-03 0.0000000e+00 
0.0000000e+00 -1.5016426e-03 0.0000000e+00 
0.0000000e+00 -1.0689428e-03 0.0000000e+00 
0.0000000e+00 -9.1533660e-04 0.0000000e+00 
0.0000000e+00 -9.4458699e-04 0.0000000e+00 
0.0000000e+00 -9.6388714e-04 0.0000000e+00 
0.0000000e+00 -8.4601110e-04 0.0000000e+00 
0.0000000e+00 -1.3637968e-03 0.0000000e+00 
0.0000000e+00 2.6665890e-04 0.0000000e+00 
0.0000000e+00 2.6112687e-04 0.0000000e+00 
0.0000000e+00 2.4453073e-04 0.0000000e+00 
0.0000000e+00 2.1687054e-04 0.0000000e+00 
0.0000000e+00 1.7814625e-04 0.0000000e+00 
0.0000000e+00 1.2835787e-04 0.0000000e+00 
0.0000000e+00 6.7505425e-05 0.0000000e+00 
0.0000000e+00 -4.4111102e-06 0.0000000e+00 
0.0000000e+00 -8.7391723e-05 0.0000000e+00 
0.0000000e+00 -1.8143642e-04 0.0000000e+00 
0.0000000e+00 -2.8654520e-04 0.0000000e+00 
0.0000000e+00 -4.0271805e-04 0.0000000e+00 
0.0000000e+00 -5.2995502e-04 0.0000000e+00 
0.0000000e+00 -3.1457708e-04 0.0000000e+00 
0.0000000e+00 -1.3556592e-04 0.0000000e+00 
0.0000000e+00 7.0784517e-06 0.0000000e+00 
0.0000000e+00 1.1335604e-04 0.0000000e+00 
0.0000000e+00 1.8326683e-04 0.0000000e+00 
0.0000000e+00 2.1681085e-04 0.0000000e+00 
0.0000000e+00 2.1398807e-04 0.0000000e+00 
0.0000000e+00 1.7479851e-04 0.0000000e+00 
0.0000000e+00 9.9242163e-05 0.0000000e+00 
0.0000000e+00 -1.2680971e-05 0.0000000e+00 
0.0000000e+00 -1.6097089e-04 0.0000000e+00 
0.0000000e+00 -3.4562760e-04 0.0000000e+00 
0.0000000e+00 -1.8192474e-04 0.0000000e+00 
0.0000000e+00 -4.8517872e-05 0.0000000e+00 
0.0000000e+00 5.4593020e-05 0.0000000e+00 
0.0000000e+00 1.2740793e-04 0.0000000e+00 
0.0000000e+00 1.6992686e-04 0.0000000e+00 
0.0000000e+00 1.8214982e-04 0.0000000e+00 
0.0000000e+00 1.6407677e-04 0.0000000e+00 
0.0000000e+00 1.1570777e-04 0.0000000e+00 
0.0000000e+00 3.7042777e-05 0.0000000e+00 
0.0000000e+00 -7.1918192e-05 0.0000000e+00 
0.0000000e+00 -2.1117514e-04 0.0000000e+00 
0.0000000e+00 -3.8072807e-04 0.0000000e+00 
0.0000000e+00 -2.0299602e-04 0.0000000e+00 
0.0000000e+00 -5.7929785e-05 0.0000000e+00 
0.0000000e+00 5.4470616e-05 0.0000000e+00 
0.0000000e+00 1.3420518e-04 0.0000000e+00 
0.0000000e+00 1.8127392e-04 0.0000000e+00 
0.0000000e+00 1.9567682e-04 0.0000000e+00 
0.0000000e+00 1.7741391e-04 0.0000000e+00 
0.0000000e+00 1.2648515e-04 0.0000000e+00 
0.0000000e+00 4.2890559e-05 0.0000000e+00 
0.0000000e+00 -7.3369862e-05 0.0000000e+00 
0.0000000e+00 -2.2229610e-04 0.0000000e+00 
0.0000000e+00 -4.0388820e-04 0.0000000e+00 
0.0000000e+00 -2.3890423e-04 0.0000000e+00 
0.0000000e+00 -1.0177417e-04 0.0000000e+00 
0.0000000e+00 7.5020184e-06 0.0000000e+00 
0.0000000e+00 8.8924324e-05 0.0000000e+00 
0.0000000e+00 1.4249275e-04 0.0000000e+00 
0.0000000e+00 1.6820729e-04 0.0000000e+00 
0.0000000e+00 1.6606796e-04 0.0000000e+00 
0.0000000e+00 1.3607474e-04 0.0000000e+00 
0.0000000e+00 7.8227633e-05 0.0000000e+00 
0.0000000e+00 -7.4733516e-06 0.0000000e+00 
0.0000000e+00 -1.2102822e-04 0.0000000e+00 
0.0000000e+00 -2.6243695e-04 0.0000000e+00 
0.0000000e+00 -5.2904692e-05 0.0000000e+00 
0.0000000e+00 1.0911652e-04 0.0000000e+00 
0.0000000e+00 2.2362667e-04 0.0000000e+00 
0.0000000e+00 2.9062576e-04 0.0000000e+00 