# vtk DataFile Version 4.0
vtk output
ASCII
DATASET UNSTRUCTURED_GRID
POINTS 212 float
0.0000000e+00 0.0000000e+00 0.0000000e+00 
0.0000000e+00 0.0000000e+00 2.5000000e-01 
0.0000000e+00 0.0000000e+00 5.0000000e-01 
0.0000000e+00 0.0000000e+00 7.5000000e-01 
0.0000000e+00 0.0000000e+00 1.0000000e+00 
0.0000000e+00 0.0000000e+00 1.2500000e+00 
0.0000000e+00 0.0000000e+00 1.5000000e+00 
0.0000000e+00 0.0000000e+00 1.7500000e+00 
0.0000000e+00 0.0000000e+00 2.0000000e+00 
0.0000000e+00 0.0000000e+00 2.2500000e+00 
0.0000000e+00 0.0000000e+00 2.5000000e+00 
0.0000000e+00 0.0000000e+00 2.7500000e+00 
0.0000000e+00 0.0000000e+00 3.0000000e+00 
0.0000000e+00 0.0000000e+00 3.2500000e+00 
0.0000000e+00 0.0000000e+00 3.5000000e+00 
0.0000000e+00 0.0000000e+00 3.7500000e+00 
0.0000000e+00 0.0000000e+00 4.0000000e+00 
0.0000000e+00 0.0000000e+00 4.2500000e+00 
0.0000000e+00 0.0000000e+00 4.5000000e+00 
0.0000000e+00 0.0000000e+00 4.7500000e+00 
0.0000000e+00 0.0000000e+00 5.0000000e+00 
0.0000000e+00 0.0000000e+00 5.2500000e+00 
0.0000000e+00 0.0000000e+00 5.5000000e+00 
0.0000000e+00 0.0000000e+00 5.7500000e+00 
0.0000000e+00 0.0000000e+00 6.0000000e+00 
0.0000000e+00 0.0000000e+00 6.2500000e+00 
0.0000000e+00 0.0000000e+00 6.5000000e+00 
0.0000000e+00 0.0000000e+00 6.7500000e+00 
0.0000000e+00 0.0000000e+00 7.0000000e+00 
0.0000000e+00 0.0000000e+00 7.2500000e+00 
0.0000000e+00 0.0000000e+00 7.5000000e+00 
0.0000000e+00 0.0000000e+00 7.7500000e+00 
0.0000000e+00 0.0000000e+00 8.0000000e+00 
0.0000000e+00 0.0000000e+00 8.2500000e+00 
0.0000000e+00 0.0000000e+00 8.5000000e+00 
0.0000000e+00 0.0000000e+00 8.7500000e+00 
0.0000000e+00 0.0000000e+00 9.0000000e+00 
0.0000000e+00 0.0000000e+00 9.2500000e+00 
0.0000000e+00 0.0000000e+00 9.5000000e+00 
0.0000000e+00 0.0000000e+00 9.7500000e+00 
0.0000000e+00 0.0000000e+00 1.0000000e+01 
0.0000000e+00 0.0000000e+00 1.0250000e+01 
0.0000000e+00 0.0000000e+00 1.0500000e+01 
0.0000000e+00 0.0000000e+00 1.0750000e+01 
0.0000000e+00 0.0000000e+00 1.1000000e+01 
0.0000000e+00 0.0000000e+00 1.1250000e+01 
0.0000000e+00 0.0000000e+00 1.1500000e+01 
0.0000000e+00 0.0000000e+00 1.1750000e+01 
0.0000000e+00 0.0000000e+00 1.2000000e+01 
0.0000000e+00 0.0000000e+00 1.2250000e+01 
0.0000000e+00 0.0000000e+00 1.2500000e+01 
0.0000000e+00 0.0000000e+00 1.2750000e+01 
0.0000000e+00 0.0000000e+00 1.3000000e+01 
0.0000000e+00 0.0000000e+00 1.3250000e+01 
0.0000000e+00 0.0000000e+00 1.3500000e+01 
0.0000000e+00 0.0000000e+00 1.3750000e+01 
0.0000000e+00 0.0000000e+00 1.4000000e+01 
0.0000000e+00 0.0000000e+00 1.4250000e+01 
0.0000000e+00 0.0000000e+00 1.4500000e+01 
0.0000000e+00 0.0000000e+00 1.4750000e+01 
0.0000000e+00 0.0000000e+00 1.5000000e+01 
0.0000000e+00 0.0000000e+00 1.5250000e+01 
0.0000000e+00 0.0000000e+00 1.5500000e+01 
0.0000000e+00 0.0000000e+00 1.5750000e+01 
0.0000000e+00 0.0000000e+00 1.6000000e+01 
0.0000000e+00 0.0000000e+00 1.6250000e+01 
0.0000000e+00 0.0000000e+00 1.6500000e+01 
0.0000000e+00 0.0000000e+00 1.6750000e+01 
0.0000000e+00 0.0000000e+00 1.7000000e+01 
0.0000000e+00 0.0000000e+00 1.7250000e+01 
0.0000000e+00 0.0000000e+00 1.7500000e+01 
0.0000000e+00 0.0000000e+00 1.7750000e+01 
0.0000000e+00 0.0000000e+00 1.8000000e+01 
5.0000000e-01 0.0000000e+00 3.0000000e+00 
5.0000000e-01 0.0000000e+00 6.0000000e+00 
5.0000000e-01 0.0000000e+00 9.0000000e+00 
5.0000000e-01 0.0000000e+00 1.2000000e+01 
5.0000000e-01 0.0000000e+00 1.5000000e+01 
5.0000000e-01 0.0000000e+00 1.8000000e+01 
1.0000000e+00 0.0000000e+00 3.0000000e+00 
1.0000000e+00 0.0000000e+00 6.0000000e+00 
1.0000000e+00 0.0000000e+00 9.0000000e+00 
1.0000000e+00 0.0000000e+00 1.2000000e+01 
1.0000000e+00 0.0000000e+00 1.5000000e+01 
1.0000000e+00 0.0000000e+00 1.8000000e+01 
1.5000000e+00 0.0000000e+00 3.0000000e+00 
1.5000000e+00 0.0000000e+00 6.0000000e+00 
1.5000000e+00 0.0000000e+00 9.0000000e+00 
1.5000000e+00 0.0000000e+00 1.2000000e+01 
1.5000000e+00 0.0000000e+00 1.5000000e+01 
1.5000000e+00 0.0000000e+00 1.8000000e+01 
2.0000000e+00 0.0000000e+00 3.0000000e+00 
2.0000000e+00 0.0000000e+00 6.0000000e+00 
2.0000000e+00 0.0000000e+00 9.0000000e+00 
2.0000000e+00 0.0000000e+00 1.2000000e+01 
2.0000000e+00 0.0000000e+00 1.5000000e+01 
2.0000000e+00 0.0000000e+00 1.8000000e+01 
2.5000000e+00 0.0000000e+00 3.0000000e+00 
2.5000000e+00 0.0000000e+00 6.0000000e+00 
2.5000000e+00 0.0000000e+00 9.0000000e+00 
2.5000000e+00 0.0000000e+00 1.2000000e+01 
2.5000000e+00 0.0000000e+00 1.5000000e+01 
2.5000000e+00 0.0000000e+00 1.8000000e+01 
3.0000000e+00 0.0000000e+00 3.0000000e+00 
3.0000000e+00 0.0000000e+00 6.0000000e+00 
3.0000000e+00 0.0000000e+00 9.0000000e+00 
3.0000000e+00 0.0000000e+00 1.2000000e+01 
3.0000000e+00 0.0000000e+00 1.5000000e+01 
3.0000000e+00 0.0000000e+00 1.8000000e+01 
3.5000000e+00 0.0000000e+00 3.0000000e+00 
3.5000000e+00 0.0000000e+00 6.0000000e+00 
3.5000000e+00 0.0000000e+00 9.0000000e+00 
3.5000000e+00 0.0000000e+00 1.2000000e+01 
3.5000000e+00 0.0000000e+00 1.5000000e+01 
3.5000000e+00 0.0000000e+00 1.8000000e+01 
4.0000000e+00 0.0000000e+00 3.0000000e+00 
4.0000000e+00 0.0000000e+00 6.0000000e+00 
4.0000000e+00 0.0000000e+00 9.0000000e+00 
4.0000000e+00 0.0000000e+00 1.2000000e+01 
4.0000000e+00 0.0000000e+00 1.5000000e+01 
4.0000000e+00 0.0000000e+00 1.8000000e+01 
4.5000000e+00 0.0000000e+00 3.0000000e+00 
4.5000000e+00 0.0000000e+00 6.0000000e+00 
4.5000000e+00 0.0000000e+00 9.0000000e+00 
4.5000000e+00 0.0000000e+00 1.2000000e+01 
4.5000000e+00 0.0000000e+00 1.5000000e+01 
4.5000000e+00 0.0000000e+00 1.8000000e+01 
5.0000000e+00 0.0000000e+00 3.0000000e+00 
5.0000000e+00 0.0000000e+00 6.0000000e+00 
5.0000000e+00 0.0000000e+00 9.0000000e+00 
5.0000000e+00 0.0000000e+00 1.2000000e+01 
5.0000000e+00 0.0000000e+00 1.5000000e+01 
5.0000000e+00 0.0000000e+00 1.8000000e+01 
5.5000000e+00 0.0000000e+00 3.0000000e+00 
5.5000000e+00 0.0000000e+00 6.0000000e+00 
5.5000000e+00 0.0000000e+00 9.0000000e+00 
5.5000000e+00 0.0000000e+00 1.2000000e+01 
5.5000000e+00 0.0000000e+00 1.5000000e+01 
5.5000000e+00 0.0000000e+00 1.8000000e+01 
6.0000000e+00 0.0000000e+00 0.0000000e+00 
6.0000000e+00 0.0000000e+00 2.5000000e-01 
6.0000000e+00 0.0000000e+00 5.0000000e-01 
6.0000000e+00 0.0000000e+00 7.5000000e-01 
6.0000000e+00 0.0000000e+00 1.0000000e+00 
6.0000000e+00 0.0000000e+00 1.2500000e+00 
6.0000000e+00 0.0000000e+00 1.5000000e+00 
6.0000000e+00 0.0000000e+00 1.7500000e+00 
6.0000000e+00 0.0000000e+00 2.0000000e+00 
6.0000000e+00 0.0000000e+00 2.2500000e+00 
6.0000000e+00 0.0000000e+00 2.5000000e+00 
6.0000000e+00 0.0000000e+00 2.7500000e+00 
6.0000000e+00 0.0000000e+00 3.0000000e+00 
6.0000000e+00 0.0000000e+00 3.2500000e+00 
6.0000000e+00 0.0000000e+00 3.5000000e+00 
6.0000000e+00 0.0000000e+00 3.7500000e+00 
6.0000000e+00 0.0000000e+00 4.0000000e+00 
6.0000000e+00 0.0000000e+00 4.2500000e+00 
6.0000000e+00 0.0000000e+00 4.5000000e+00 
6.0000000e+00 0.0000000e+00 4.7500000e+00 
6.0000000e+00 0.0000000e+00 5.0000000e+00 
6.0000000e+00 0.0000000e+00 5.2500000e+00 
6.0000000e+00 0.0000000e+00 5.5000000e+00 
6.0000000e+00 0.0000000e+00 5.7500000e+00 
6.0000000e+00 0.0000000e+00 6.0000000e+00 
6.0000000e+00 0.0000000e+00 6.2500000e+00 
6.0000000e+00 0.0000000e+00 6.5000000e+00 
6.0000000e+00 0.0000000e+00 6.7500000e+00 
6.0000000e+00 0.0000000e+00 7.0000000e+00 
6.0000000e+00 0.0000000e+00 7.2500000e+00 
6.0000000e+00 0.0000000e+00 7.5000000e+00 
6.0000000e+00 0.0000000e+00 7.7500000e+00 
6.0000000e+00 0.0000000e+00 8.0000000e+00 
6.0000000e+00 0.0000000e+00 8.2500000e+00 
6.0000000e+00 0.0000000e+00 8.5000000e+00 
6.0000000e+00 0.0000000e+00 8.7500000e+00 
6.0000000e+00 0.0000000e+00 9.0000000e+00 
6.0000000e+00 0.0000000e+00 9.2500000e+00 
6.0000000e+00 0.0000000e+00 9.5000000e+00 
6.0000000e+00 0.0000000e+00 9.7500000e+00 
6.0000000e+00 0.0000000e+00 1.0000000e+01 
6.0000000e+00 0.0000000e+00 1.0250000e+01 
6.0000000e+00 0.0000000e+00 1.0500000e+01 
6.0000000e+00 0.0000000e+00 1.0750000e+01 
6.0000000e+00 0.0000000e+00 1.1000000e+01 
6.0000000e+00 0.0000000e+00 1.1250000e+01 
6.0000000e+00 0.0000000e+00 1.1500000e+01 
6.0000000e+00 0.0000000e+00 1.1750000e+01 
6.0000000e+00 0.0000000e+00 1.2000000e+01 
6.0000000e+00 0.0000000e+00 1.2250000e+01 
6.0000000e+00 0.0000000e+00 1.2500000e+01 
6.0000000e+00 0.0000000e+00 1.2750000e+01 
6.0000000e+00 0.0000000e+00 1.3000000e+01 
6.0000000e+00 0.0000000e+00 1.3250000e+01 
6.0000000e+00 0.0000000e+00 1.3500000e+01 
6.0000000e+00 0.0000000e+00 1.3750000e+01 
6.0000000e+00 0.0000000e+00 1.4000000e+01 
6.0000000e+00 0.0000000e+00 1.4250000e+01 
6.0000000e+00 0.0000000e+00 1.4500000e+01 
6.0000000e+00 0.0000000e+00 1.4750000e+01 
6.0000000e+00 0.0000000e+00 1.5000000e+01 
6.0000000e+00 0.0000000e+00 1.5250000e+01 
6.0000000e+00 0.0000000e+00 1.5500000e+01 
6.0000000e+00 0.0000000e+00 1.5750000e+01 
6.0000000e+00 0.0000000e+00 1.6000000e+01 
6.0000000e+00 0.0000000e+00 1.6250000e+01 
6.0000000e+00 0.0000000e+00 1.6500000e+01 
6.0000000e+00 0.0000000e+00 1.6750000e+01 
6.0000000e+00 0.0000000e+00 1.7000000e+01 
6.0000000e+00 0.0000000e+00 1.7250000e+01 
6.0000000e+00 0.0000000e+00 1.7500000e+01 
6.0000000e+00 0.0000000e+00 1.7750000e+01 
6.0000000e+00 0.0000000e+00 1.8000000e+01 

CELLS 216 648
2 0 1
2 1 2
2 2 3
2 3 4
2 4 5
2 5 6
2 6 7
2 7 8
2 8 9
2 9 10
2 10 11
2 11 12
2 12 13
2 13 14
2 14 15
2 15 16
2 16 17
2 17 18
2 18 19
2 19 20
2 20 21
2 21 22
2 22 23
2 23 24
2 24 25
2 25 26
2 26 27
2 27 28
2 28 29
2 29 30
2 30 31
2 31 32
2 32 33
2 33 34
2 34 35
2 35 36
2 36 37
2 37 38
2 38 39
2 39 40
2 40 41
2 41 42
2 42 43
2 43 44
2 44 45
2 45 46
2 46 47
2 47 48
2 48 49
2 49 50
2 50 51
2 51 52
2 52 53
2 53 54
2 54 55
2 55 56
2 56 57
2 57 58
2 58 59
2 59 60
2 60 61
2 61 62
2 62 63
2 63 64
2 64 65
2 65 66
2 66 67
2 67 68
2 68 69
2 69 70
2 70 71
2 71 72
2 139 140
2 140 141
2 141 142
2 142 143
2 143 144
2 144 145
2 145 146
2 146 147
2 147 148
2 148 149
2 149 150
2 150 151
2 151 152
2 152 153
2 153 154
2 154 155
2 155 156
2 156 157
2 157 158
2 158 159
2 159 160
2 160 161
2 161 162
2 162 163
2 163 164
2 164 165
2 165 166
2 166 167
2 167 168
2 168 169
2 169 170
2 170 171
2 171 172
2 172 173
2 173 174
2 174 175
2 175 176
2 176 177
2 177 178
2 178 179
2 179 180
2 180 181
2 181 182
2 182 183
2 183 184
2 184 185
2 185 186
2 186 187
2 187 188
2 188 189
2 189 190
2 190 191
2 191 192
2 192 193
2 193 194
2 194 195
2 195 196
2 196 197
2 197 198
2 198 199
2 199 200
2 200 201
2 201 202
2 202 203
2 203 204
2 204 205
2 205 206
2 206 207
2 207 208
2 208 209
2 209 210
2 210 211
2 12 73
2 73 79
2 79 85
2 85 91
2 91 97
2 97 103
2 103 109
2 109 115
2 115 121
2 121 127
2 127 133
2 133 151
2 24 74
2 74 80
2 80 86
2 86 92
2 92 98
2 98 104
2 104 110
2 110 116
2 116 122
2 122 128
2 128 134
2 134 163
2 36 75
2 75 81
2 81 87
2 87 93
2 93 99
2 99 105
2 105 111
2 111 117
2 117 123
2 123 129
2 129 135
2 135 175
2 48 76
2 76 82
2 82 88
2 88 94
2 94 100
2 100 106
2 106 112
2 112 118
2 118 124
2 124 130
2 130 136
2 136 187
2 60 77
2 77 83
2 83 89
2 89 95
2 95 101
2 101 107
2 107 113
2 113 119
2 119 125
2 125 131
2 131 137
2 137 199
2 72 78
2 78 84
2 84 90
2 90 96
2 96 102
2 102 108
2 108 114
2 114 120
2 120 126
2 126 132
2 132 138
2 138 211

CELL_TYPES 216
3
3
3
3
3
3
3
3
3
3
3
3
3
3
3
3
3
3
3
3
3
3
3
3
3
3
3
3
3
3
3
3
3
3
3
3
3
3
3
3
3
3
3
3
3
3
3
3
3
3
3
3
3
3
3
3
3
3
3
3
3
3
3
3
3
3
3
3
3
3
3
3
3
3
3
3
3
3
3
3
3
3
3
3
3
3
3
3
3
3
3
3
3
3
3
3
3
3
3
3
3
3
3
3
3
3
3
3
3
3
3
3
3
3
3
3
3
3
3
3
3
3
3
3
3
3
3
3
3
3
3
3
3
3
3
3
3
3
3
3
3
3
3
3
3
3
3
3
3
3
3
3
3
3
3
3
3
3
3
3
3
3
3
3
3
3
3
3
3
3
3
3
3
3
3
3
3
3
3
3
3
3
3
3
3
3
3
3
3
3
3
3
3
3
3
3
3
3
3
3
3
3
3
3
3
3
3
3
3
3
3
3
3
3
3
3
POINT_DATA 212
FIELD FieldData 3
ADJOINT_DISPLACEMENT 3 212  float
0.0000000e+00 0.0000000e+00 0.0000000e+00 
-2.9044077e-04 0.0000000e+00 -1.9989888e-16 
-5.9914420e-04 0.0000000e+00 -3.9979775e-16 
-9.4437285e-04 0.0000000e+00 -5.9969663e-16 
-1.3443894e-03 0.0000000e+00 -7.9959550e-16 
-1.8174566e-03 0.0000000e+00 -9.9949432e-16 
-2.3818370e-03 0.0000000e+00 -1.1993933e-15 
-3.0557930e-03 0.0000000e+00 -1.3992921e-15 
-3.8575877e-03 0.0000000e+00 -1.5991910e-15 
-4.8054834e-03 0.0000000e+00 -1.7990899e-15 
-5.9177428e-03 0.0000000e+00 -1.9989886e-15 
-7.2126286e-03 0.0000000e+00 -2.1988876e-15 
-8.7084034e-03 0.0000000e+00 -2.3987865e-15 
-1.0528207e-02 0.0000000e+00 9.1038709e-07 
-1.2708382e-02 0.0000000e+00 1.8207742e-06 
-1.5136991e-02 0.0000000e+00 2.7311614e-06 
-1.7702097e-02 0.0000000e+00 3.6415483e-06 
-2.0291768e-02 0.0000000e+00 4.5519355e-06 
-2.2794066e-02 0.0000000e+00 5.4623229e-06 
-2.5097055e-02 0.0000000e+00 6.3727098e-06 
-2.7088799e-02 0.0000000e+00 7.2830967e-06 
-2.8657364e-02 0.0000000e+00 8.1934841e-06 
-2.9690811e-02 0.0000000e+00 9.1038710e-06 
-3.0077208e-02 0.0000000e+00 1.0014258e-05 
-2.9704617e-02 0.0000000e+00 1.0924646e-05 
-2.8768389e-02 0.0000000e+00 1.5477735e-05 
-2.7867105e-02 0.0000000e+00 2.0030826e-05 
-2.7493669e-02 0.0000000e+00 2.4583916e-05 
-2.8140990e-02 0.0000000e+00 2.9137007e-05 
-3.0301971e-02 0.0000000e+00 3.3690096e-05 
-3.4469523e-02 0.0000000e+00 3.8243186e-05 
-4.1136548e-02 0.0000000e+00 4.2796277e-05 
-5.0795954e-02 0.0000000e+00 4.7349367e-05 
-6.3940644e-02 0.0000000e+00 5.1902458e-05 
-8.1063531e-02 0.0000000e+00 5.6455548e-05 
-1.0265752e-01 0.0000000e+00 6.1008639e-05 
-1.2921551e-01 0.0000000e+00 6.5561726e-05 
-1.5577218e-01 0.0000000e+00 6.0998642e-05 
-1.7736232e-01 0.0000000e+00 5.6435558e-05 
-1.9447902e-01 0.0000000e+00 5.1872470e-05 
-2.0761539e-01 0.0000000e+00 4.7309386e-05 
-2.1726450e-01 0.0000000e+00 4.2746298e-05 
-2.2391948e-01 0.0000000e+00 3.8183214e-05 
-2.2807339e-01 0.0000000e+00 3.3620126e-05 
-2.3021935e-01 0.0000000e+00 2.9057042e-05 
-2.3085044e-01 0.0000000e+00 2.4493957e-05 
-2.3045976e-01 0.0000000e+00 1.9930871e-05 
-2.2954041e-01 0.0000000e+00 1.5367785e-05 
-2.2858547e-01 0.0000000e+00 1.0804700e-05 
-2.2819082e-01 0.0000000e+00 9.8543178e-06 
-2.2854851e-01 0.0000000e+00 8.9039358e-06 
-2.2954589e-01 0.0000000e+00 7.9535548e-06 
-2.3107038e-01 0.0000000e+00 7.0031729e-06 
-2.3300934e-01 0.0000000e+00 6.0527914e-06 
-2.3525015e-01 0.0000000e+00 5.1024094e-06 
-2.3768018e-01 0.0000000e+00 4.1520279e-06 
-2.4018683e-01 0.0000000e+00 3.2016462e-06 
-2.4265745e-01 0.0000000e+00 2.2512645e-06 
-2.4497946e-01 0.0000000e+00 1.3008828e-06 
-2.4704020e-01 0.0000000e+00 3.5050107e-07 
-2.4872707e-01 0.0000000e+00 -5.9988059e-07 
-2.5006065e-01 0.0000000e+00 -7.8990877e-07 
-2.5115076e-01 0.0000000e+00 -9.7993689e-07 
-2.5201866e-01 0.0000000e+00 -1.1699650e-06 
-2.5268564e-01 0.0000000e+00 -1.3599931e-06 
-2.5317290e-01 0.0000000e+00 -1.5500212e-06 
-2.5350174e-01 0.0000000e+00 -1.7400494e-06 
-2.5369340e-01 0.0000000e+00 -1.9300776e-06 
-2.5376913e-01 0.0000000e+00 -2.1201056e-06 
-2.5375021e-01 0.0000000e+00 -2.3101338e-06 
-2.5365785e-01 0.0000000e+00 -2.5001621e-06 
-2.5351337e-01 0.0000000e+00 -2.6901901e-06 
-2.5333798e-01 0.0000000e+00 -2.8802183e-06 
-8.6925505e-03 0.0000000e+00 2.7182428e-03 
-2.9778263e-02 0.0000000e+00 -2.3140125e-03 
-1.2921554e-01 0.0000000e+00 8.0107585e-02 
-2.2851172e-01 0.0000000e+00 -2.3416639e-03 
-2.4874337e-01 0.0000000e+00 2.4972889e-03 
-2.5333539e-01 0.0000000e+00 -3.8548984e-04 
-8.6766966e-03 0.0000000e+00 4.5434963e-03 
-2.9851910e-02 0.0000000e+00 -5.8121234e-03 
-1.2921555e-01 0.0000000e+00 2.0261784e-01 
-2.2843798e-01 0.0000000e+00 -5.8491565e-03 
-2.4875967e-01 0.0000000e+00 4.2079878e-03 
-2.5333279e-01 0.0000000e+00 -7.8168197e-04 
-8.6608436e-03 0.0000000e+00 5.5953898e-03 
-2.9925557e-02 0.0000000e+00 -1.0004740e-02 
-1.2921558e-01 0.0000000e+00 3.6639845e-01 
-2.2836421e-01 0.0000000e+00 -1.0036948e-02 
-2.4877597e-01 0.0000000e+00 5.2314112e-03 
-2.5333023e-01 0.0000000e+00 -1.1664861e-03 
-8.6449906e-03 0.0000000e+00 5.9935520e-03 
-2.9999202e-02 0.0000000e+00 -1.4413196e-02 
-1.2921561e-01 0.0000000e+00 5.7025146e-01 
-2.2829047e-01 0.0000000e+00 -1.4430312e-02 
-2.4879228e-01 0.0000000e+00 5.6674727e-03 
-2.5332764e-01 0.0000000e+00 -1.5149314e-03 
-8.6291377e-03 0.0000000e+00 5.8576120e-03 
-3.0072849e-02 0.0000000e+00 -1.8558823e-02 
-1.2921563e-01 0.0000000e+00 8.1297904e-01 
-2.2821671e-01 0.0000000e+00 -1.8554525e-02 
-2.4880858e-01 0.0000000e+00 5.6160861e-03 
-2.5332505e-01 0.0000000e+00 -1.8020478e-03 
-8.6132847e-03 0.0000000e+00 5.3071990e-03 
-3.0146495e-02 0.0000000e+00 -2.1962952e-02 
-1.2921566e-01 0.0000000e+00 5.9338319e-01 
-2.2814296e-01 0.0000000e+00 -2.1934859e-02 
-2.4882488e-01 0.0000000e+00 5.1771649e-03 
-2.5332245e-01 0.0000000e+00 -2.0028644e-03 
-8.5974308e-03 0.0000000e+00 4.4619408e-03 
-3.0220142e-02 0.0000000e+00 -2.4146918e-02 
-1.2921567e-01 0.0000000e+00 4.1026607e-01 
-2.2806920e-01 0.0000000e+00 -2.4096591e-02 
-2.4884117e-01 0.0000000e+00 4.4506239e-03 
-2.5331986e-01 0.0000000e+00 -2.0924108e-03 
-8.5815778e-03 0.0000000e+00 3.4414679e-03 
-3.0293789e-02 0.0000000e+00 -2.4632053e-02 
-1.2921570e-01 0.0000000e+00 2.6242977e-01 
-2.2799546e-01 0.0000000e+00 -2.4564994e-02 
-2.4885747e-01 0.0000000e+00 3.5363766e-03 
-2.5331727e-01 0.0000000e+00 -2.0457164e-03 
-8.5657248e-03 0.0000000e+00 2.3654082e-03 
-3.0367434e-02 0.0000000e+00 -2.2939688e-02 
-1.2921572e-01 0.0000000e+00 1.4867635e-01 
-2.2792169e-01 0.0000000e+00 -2.2865342e-02 
-2.4887377e-01 0.0000000e+00 2.5343366e-03 
-2.5331467e-01 0.0000000e+00 -1.8378106e-03 
-8.5498719e-03 0.0000000e+00 1.3533911e-03 
-3.0441081e-02 0.0000000e+00 -1.8591156e-02 
-1.2921575e-01 0.0000000e+00 6.7807935e-02 
-2.2784795e-01 0.0000000e+00 -1.8522911e-02 
-2.4889007e-01 0.0000000e+00 1.5444179e-03 
-2.5331211e-01 0.0000000e+00 -1.4437230e-03 
-8.5340189e-03 0.0000000e+00 5.2504538e-04 
-3.0514728e-02 0.0000000e+00 -1.1107791e-02 
-1.2921576e-01 0.0000000e+00 1.8626597e-02 
-2.2777419e-01 0.0000000e+00 -1.1062973e-02 
-2.4890637e-01 0.0000000e+00 6.6653435e-04 
-2.5330952e-01 0.0000000e+00 -8.3848287e-04 
0.0000000e+00 0.0000000e+00 0.0000000e+00 
-1.1451066e-03 0.0000000e+00 1.1692587e-16 
-2.2719507e-03 0.0000000e+00 2.3385171e-16 
-3.3622694e-03 0.0000000e+00 3.5077763e-16 
-4.3978002e-03 0.0000000e+00 4.6770565e-16 
-5.3602802e-03 0.0000000e+00 5.8463368e-16 
-6.2314477e-03 0.0000000e+00 7.0156314e-16 
-6.9930386e-03 0.0000000e+00 8.1849313e-16 
-7.6267915e-03 0.0000000e+00 9.3542391e-16 
-8.1144432e-03 0.0000000e+00 1.0523544e-15 
-8.4377313e-03 0.0000000e+00 1.1692900e-15 
-8.5783927e-03 0.0000000e+00 1.2862275e-15 
-8.5181659e-03 0.0000000e+00 1.4031717e-15 
-8.3133522e-03 0.0000000e+00 -9.1038709e-07 
-8.1070559e-03 0.0000000e+00 -1.8207742e-06 
-8.0112116e-03 0.0000000e+00 -2.7311614e-06 
-8.1377551e-03 0.0000000e+00 -3.6415483e-06 
-8.5986229e-03 0.0000000e+00 -4.5519355e-06 
-9.5057506e-03 0.0000000e+00 -5.4623229e-06 
-1.0971073e-02 0.0000000e+00 -6.3727098e-06 
-1.3106528e-02 0.0000000e+00 -7.2830967e-06 
-1.6024049e-02 0.0000000e+00 -8.1934841e-06 
-1.9835573e-02 0.0000000e+00 -9.1038710e-06 
-2.4653036e-02 0.0000000e+00 -1.0014258e-05 
-3.0588374e-02 0.0000000e+00 -1.0924646e-05 
-3.8164236e-02 0.0000000e+00 -1.5477735e-05 
-4.7500044e-02 0.0000000e+00 -2.0030826e-05 
-5.8102895e-02 0.0000000e+00 -2.4583916e-05 
-6.9479875e-02 0.0000000e+00 -2.9137007e-05 
-8.1138082e-02 0.0000000e+00 -3.3690096e-05 
-9.2584617e-02 0.0000000e+00 -3.8243186e-05 
-1.0332656e-01 0.0000000e+00 -4.2796277e-05 
-1.1287101e-01 0.0000000e+00 -4.7349367e-05 
-1.2072507e-01 0.0000000e+00 -5.1902458e-05 
-1.2639582e-01 0.0000000e+00 -5.6455548e-05 
-1.2939036e-01 0.0000000e+00 -6.1008639e-05 
-1.2921579e-01 0.0000000e+00 -6.5561726e-05 
-1.2904057e-01 0.0000000e+00 -6.0998642e-05 
-1.3203305e-01 0.0000000e+00 -5.6435558e-05 
-1.3770014e-01 0.0000000e+00 -5.1872470e-05 
-1.4554873e-01 0.0000000e+00 -4.7309386e-05 
-1.5508574e-01 0.0000000e+00 -4.2746298e-05 
-1.6581807e-01 0.0000000e+00 -3.8183214e-05 
-1.7725262e-01 0.0000000e+00 -3.3620126e-05 
-1.8889631e-01 0.0000000e+00 -2.9057042e-05 
-2.0025602e-01 0.0000000e+00 -2.4493957e-05 
-2.1083869e-01 0.0000000e+00 -1.9930871e-05 
-2.2015119e-01 0.0000000e+00 -1.5367785e-05 
-2.2770044e-01 0.0000000e+00 -1.0804700e-05 
-2.3360267e-01 0.0000000e+00 -9.8543178e-06 
-2.3837791e-01 0.0000000e+00 -8.9039358e-06 
-2.4213879e-01 0.0000000e+00 -7.9535548e-06 
-2.4499793e-01 0.0000000e+00 -7.0031729e-06 
-2.4706794e-01 0.0000000e+00 -6.0527914e-06 
-2.4846144e-01 0.0000000e+00 -5.1024094e-06 
-2.4929108e-01 0.0000000e+00 -4.1520279e-06 
-2.4966943e-01 0.0000000e+00 -3.2016462e-06 
-2.4970916e-01 0.0000000e+00 -2.2512645e-06 
-2.4952285e-01 0.0000000e+00 -1.3008828e-06 
-2.4922316e-01 0.0000000e+00 -3.5050107e-07 
-2.4892268e-01 0.0000000e+00 5.9988059e-07 
-2.4875072e-01 0.0000000e+00 7.8990877e-07 
-2.4874729e-01 0.0000000e+00 9.7993689e-07 
-2.4889117e-01 0.0000000e+00 1.1699650e-06 
-2.4916108e-01 0.0000000e+00 1.3599931e-06 
-2.4953578e-01 0.0000000e+00 1.5500212e-06 
-2.4999399e-01 0.0000000e+00 1.7400494e-06 
-2.5051448e-01 0.0000000e+00 1.9300776e-06 
-2.5107598e-01 0.0000000e+00 2.1201056e-06 
-2.5165722e-01 0.0000000e+00 2.3101338e-06 
-2.5223696e-01 0.0000000e+00 2.5001621e-06 
-2.5279397e-01 0.0000000e+00 2.6901901e-06 
-2.5330693e-01 0.0000000e+00 2.8802183e-06 
ADJOINT_ROTATION 3 212  float
0.0000000e+00 -1.1495880e-03 0.0000000e+00 
0.0000000e+00 -1.1861132e-03 0.0000000e+00 
0.0000000e+00 -1.2956890e-03 0.0000000e+00 
0.0000000e+00 -1.4783154e-03 0.0000000e+00 
0.0000000e+00 -1.7339924e-03 0.0000000e+00 
0.0000000e+00 -2.0627198e-03 0.0000000e+00 
0.0000000e+00 -2.4644979e-03 0.0000000e+00 
0.0000000e+00 -2.9393265e-03 0.0000000e+00 
0.0000000e+00 -3.4872054e-03 0.0000000e+00 
0.0000000e+00 -4.1081351e-03 0.0000000e+00 
0.0000000e+00 -4.8021153e-03 0.0000000e+00 
0.0000000e+00 -5.5691460e-03 0.0000000e+00 
0.0000000e+00 -6.4092274e-03 0.0000000e+00 
0.0000000e+00 -8.0745807e-03 0.0000000e+00 
0.0000000e+00 -9.2921900e-03 0.0000000e+00 
0.0000000e+00 -1.0062057e-02 0.0000000e+00 
0.0000000e+00 -1.0384180e-02 0.0000000e+00 
0.0000000e+00 -1.0258560e-02 0.0000000e+00 
0.0000000e+00 -9.6851969e-03 0.0000000e+00 
0.0000000e+00 -8.6640911e-03 0.0000000e+00 
0.0000000e+00 -7.1952413e-03 0.0000000e+00 
0.0000000e+00 -5.2786483e-03 0.0000000e+00 
0.0000000e+00 -2.9143125e-03 0.0000000e+00 
0.0000000e+00 -1.0223338e-04 0.0000000e+00 
0.0000000e+00 3.1575891e-03 0.0000000e+00 
0.0000000e+00 4.0036291e-03 0.0000000e+00 
0.0000000e+00 2.8780443e-03 0.0000000e+00 
0.0000000e+00 -2.1916596e-04 0.0000000e+00 
0.0000000e+00 -5.2880016e-03 0.0000000e+00 
0.0000000e+00 -1.2328462e-02 0.0000000e+00 
0.0000000e+00 -2.1340547e-02 0.0000000e+00 
0.0000000e+00 -3.2324258e-02 0.0000000e+00 
0.0000000e+00 -4.5279596e-02 0.0000000e+00 
0.0000000e+00 -6.0206559e-02 0.0000000e+00 
0.0000000e+00 -7.7105142e-02 0.0000000e+00 
0.0000000e+00 -9.5975354e-02 0.0000000e+00 
0.0000000e+00 -1.1681719e-01 0.0000000e+00 
0.0000000e+00 -9.5964886e-02 0.0000000e+00 
0.0000000e+00 -7.7084951e-02 0.0000000e+00 
0.0000000e+00 -6.0177404e-02 0.0000000e+00 
0.0000000e+00 -4.5242235e-02 0.0000000e+00 
0.0000000e+00 -3.2279447e-02 0.0000000e+00 
0.0000000e+00 -2.1289039e-02 0.0000000e+00 
0.0000000e+00 -1.2271010e-02 0.0000000e+00 
0.0000000e+00 -5.2253618e-03 0.0000000e+00 
0.0000000e+00 -1.5209394e-04 0.0000000e+00 
0.0000000e+00 2.9487940e-03 0.0000000e+00 
0.0000000e+00 4.0773018e-03 0.0000000e+00 
0.0000000e+00 3.2334293e-03 0.0000000e+00 
0.0000000e+00 -1.1418816e-06 0.0000000e+00 
0.0000000e+00 -2.7852303e-03 0.0000000e+00 
0.0000000e+00 -5.1188362e-03 0.0000000e+00 
0.0000000e+00 -7.0019597e-03 0.0000000e+00 
0.0000000e+00 -8.4346011e-03 0.0000000e+00 
0.0000000e+00 -9.4167590e-03 0.0000000e+00 
0.0000000e+00 -9.9484352e-03 0.0000000e+00 
0.0000000e+00 -1.0029628e-02 0.0000000e+00 
0.0000000e+00 -9.6603390e-03 0.0000000e+00 
0.0000000e+00 -8.8405674e-03 0.0000000e+00 
0.0000000e+00 -7.5703128e-03 0.0000000e+00 
0.0000000e+00 -5.8495761e-03 0.0000000e+00 
0.0000000e+00 -4.8332149e-03 0.0000000e+00 
0.0000000e+00 -3.9018807e-03 0.0000000e+00 
0.0000000e+00 -3.0555730e-03 0.0000000e+00 
0.0000000e+00 -2.2942922e-03 0.0000000e+00 
0.0000000e+00 -1.6180382e-03 0.0000000e+00 
0.0000000e+00 -1.0268110e-03 0.0000000e+00 
0.0000000e+00 -5.2061048e-04 0.0000000e+00 
0.0000000e+00 -9.9436860e-05 0.0000000e+00 
0.0000000e+00 2.3670997e-04 0.0000000e+00 
0.0000000e+00 4.8783002e-04 0.0000000e+00 
0.0000000e+00 6.5392326e-04 0.0000000e+00 
0.0000000e+00 7.3498971e-04 0.0000000e+00 
0.0000000e+00 -4.5036203e-03 0.0000000e+00 
0.0000000e+00 5.9826039e-03 0.0000000e+00 
0.0000000e+00 -2.0295158e-01 0.0000000e+00 
0.0000000e+00 6.0182032e-03 0.0000000e+00 
0.0000000e+00 -4.1752830e-03 0.0000000e+00 
0.0000000e+00 7.8712526e-04 0.0000000e+00 
0.0000000e+00 -2.8372707e-03 0.0000000e+00 
0.0000000e+00 7.8502838e-03 0.0000000e+00 
0.0000000e+00 -2.8669018e-01 0.0000000e+00 
0.0000000e+00 7.8535257e-03 0.0000000e+00 
0.0000000e+00 -2.7008178e-03 0.0000000e+00 
0.0000000e+00 7.8931969e-04 0.0000000e+00 
0.0000000e+00 -1.4101794e-03 0.0000000e+00 
0.0000000e+00 8.7606283e-03 0.0000000e+00 
0.0000000e+00 -3.6803293e-01 0.0000000e+00 
0.0000000e+00 8.7393979e-03 0.0000000e+00 
0.0000000e+00 -1.4261801e-03 0.0000000e+00 
0.0000000e+00 7.4157305e-04 0.0000000e+00 
0.0000000e+00 -2.2234590e-04 0.0000000e+00 
0.0000000e+00 8.7136375e-03 0.0000000e+00 
0.0000000e+00 -4.4697988e-01 0.0000000e+00 
0.0000000e+00 8.6758193e-03 0.0000000e+00 
0.0000000e+00 -3.5137017e-04 0.0000000e+00 
0.0000000e+00 6.4388529e-04 0.0000000e+00 
0.0000000e+00 7.2622969e-04 0.0000000e+00 
0.0000000e+00 7.7093123e-03 0.0000000e+00 
0.0000000e+00 -5.2353102e-01 0.0000000e+00 
0.0000000e+00 7.6627890e-03 0.0000000e+00 
0.0000000e+00 5.2361202e-04 0.0000000e+00 
0.0000000e+00 4.9625646e-04 0.0000000e+00 
0.0000000e+00 1.4355474e-03 0.0000000e+00 
0.0000000e+00 5.7476517e-03 0.0000000e+00 
0.0000000e+00 4.0231365e-01 0.0000000e+00 
0.0000000e+00 5.7003079e-03 0.0000000e+00 
0.0000000e+00 1.1987664e-03 0.0000000e+00 
0.0000000e+00 2.9868653e-04 0.0000000e+00 
0.0000000e+00 1.9056072e-03 0.0000000e+00 
0.0000000e+00 2.8286562e-03 0.0000000e+00 
0.0000000e+00 3.3055413e-01 0.0000000e+00 
0.0000000e+00 2.7883756e-03 0.0000000e+00 
0.0000000e+00 1.6740932e-03 0.0000000e+00 
0.0000000e+00 5.1175473e-05 0.0000000e+00 
0.0000000e+00 2.1364090e-03 0.0000000e+00 
0.0000000e+00 -1.0476742e-03 0.0000000e+00 
0.0000000e+00 2.6119041e-01 0.0000000e+00 
0.0000000e+00 -1.0730076e-03 0.0000000e+00 
0.0000000e+00 1.9495921e-03 0.0000000e+00 
0.0000000e+00 -2.4627667e-04 0.0000000e+00 
0.0000000e+00 2.1279531e-03 0.0000000e+00 
0.0000000e+00 -5.8813398e-03 0.0000000e+00 
0.0000000e+00 1.9422254e-01 0.0000000e+00 
0.0000000e+00 -5.8838418e-03 0.0000000e+00 
0.0000000e+00 2.0252634e-03 0.0000000e+00 
0.0000000e+00 -5.9366989e-04 0.0000000e+00 
0.0000000e+00 1.8802392e-03 0.0000000e+00 
0.0000000e+00 -1.1672340e-02 0.0000000e+00 
0.0000000e+00 1.2965046e-01 0.0000000e+00 
0.0000000e+00 -1.1644127e-02 0.0000000e+00 
0.0000000e+00 1.9011069e-03 0.0000000e+00 
0.0000000e+00 -9.9100429e-04 0.0000000e+00 
0.0000000e+00 1.3932674e-03 0.0000000e+00 
0.0000000e+00 -1.8420676e-02 0.0000000e+00 
0.0000000e+00 6.7474194e-02 0.0000000e+00 
0.0000000e+00 -1.8353863e-02 0.0000000e+00 
0.0000000e+00 1.5771226e-03 0.0000000e+00 
0.0000000e+00 -1.4382796e-03 0.0000000e+00 
0.0000000e+00 -4.5926017e-03 0.0000000e+00 
0.0000000e+00 -4.5560761e-03 0.0000000e+00 
0.0000000e+00 -4.4465004e-03 0.0000000e+00 
0.0000000e+00 -4.2638741e-03 0.0000000e+00 
0.0000000e+00 -4.0081972e-03 0.0000000e+00 
0.0000000e+00 -3.6794697e-03 0.0000000e+00 
0.0000000e+00 -3.2776918e-03 0.0000000e+00 
0.0000000e+00 -2.8028633e-03 0.0000000e+00 
0.0000000e+00 -2.2549841e-03 0.0000000e+00 
0.0000000e+00 -1.6340545e-03 0.0000000e+00 
0.0000000e+00 -9.4007427e-04 0.0000000e+00 
0.0000000e+00 -1.7304356e-04 0.0000000e+00 
0.0000000e+00 6.6703773e-04 0.0000000e+00 
0.0000000e+00 8.9684332e-04 0.0000000e+00 
0.0000000e+00 6.7890575e-04 0.0000000e+00 
0.0000000e+00 1.3224919e-05 0.0000000e+00 
0.0000000e+00 -1.1001991e-03 0.0000000e+00 
0.0000000e+00 -2.6613665e-03 0.0000000e+00 
0.0000000e+00 -4.6702768e-03 0.0000000e+00 
0.0000000e+00 -7.1269306e-03 0.0000000e+00 
0.0000000e+00 -1.0031328e-02 0.0000000e+00 
0.0000000e+00 -1.3383468e-02 0.0000000e+00 
0.0000000e+00 -1.7183350e-02 0.0000000e+00 
0.0000000e+00 -2.1430977e-02 0.0000000e+00 
0.0000000e+00 -2.6126347e-02 0.0000000e+00 
0.0000000e+00 -3.4151945e-02 0.0000000e+00 
0.0000000e+00 -4.0205918e-02 0.0000000e+00 
0.0000000e+00 -4.4288266e-02 0.0000000e+00 
0.0000000e+00 -4.6398986e-02 0.0000000e+00 
0.0000000e+00 -4.6538085e-02 0.0000000e+00 
0.0000000e+00 -4.4705559e-02 0.0000000e+00 
0.0000000e+00 -4.0901404e-02 0.0000000e+00 
0.0000000e+00 -3.5125624e-02 0.0000000e+00 
0.0000000e+00 -2.7378220e-02 0.0000000e+00 
0.0000000e+00 -1.7659191e-02 0.0000000e+00 
0.0000000e+00 -5.9685376e-03 0.0000000e+00 
0.0000000e+00 7.6937419e-03 0.0000000e+00 
0.0000000e+00 -5.9632487e-03 0.0000000e+00 
0.0000000e+00 -1.7647859e-02 0.0000000e+00 
0.0000000e+00 -2.7360089e-02 0.0000000e+00 
0.0000000e+00 -3.5099939e-02 0.0000000e+00 
0.0000000e+00 -4.0867407e-02 0.0000000e+00 
0.0000000e+00 -4.4662498e-02 0.0000000e+00 
0.0000000e+00 -4.6485208e-02 0.0000000e+00 
0.0000000e+00 -4.6335537e-02 0.0000000e+00 
0.0000000e+00 -4.4213485e-02 0.0000000e+00 
0.0000000e+00 -4.0119052e-02 0.0000000e+00 
0.0000000e+00 -3.4052242e-02 0.0000000e+00 
0.0000000e+00 -2.6013050e-02 0.0000000e+00 
0.0000000e+00 -2.1279866e-02 0.0000000e+00 
0.0000000e+00 -1.6997166e-02 0.0000000e+00 
0.0000000e+00 -1.3164946e-02 0.0000000e+00 
0.0000000e+00 -9.7832093e-03 0.0000000e+00 
0.0000000e+00 -6.8519558e-03 0.0000000e+00 
0.0000000e+00 -4.3711844e-03 0.0000000e+00 
0.0000000e+00 -2.3408956e-03 0.0000000e+00 
0.0000000e+00 -7.6108921e-04 0.0000000e+00 
0.0000000e+00 3.6823456e-04 0.0000000e+00 
0.0000000e+00 1.0470757e-03 0.0000000e+00 
0.0000000e+00 1.2754345e-03 0.0000000e+00 
0.0000000e+00 1.0533107e-03 0.0000000e+00 
0.0000000e+00 3.3659604e-04 0.0000000e+00 
0.0000000e+00 -2.9509177e-04 0.0000000e+00 