# vtk DataFile Version 4.0
vtk output
ASCII
DATASET UNSTRUCTURED_GRID
POINTS 212 float
0.0000000e+00 0.0000000e+00 0.0000000e+00 
0.0000000e+00 0.0000000e+00 2.5000000e-01 
0.0000000e+00 0.0000000e+00 5.0000000e-01 
0.0000000e+00 0.0000000e+00 7.5000000e-01 
0.0000000e+00 0.0000000e+00 1.0000000e+00 
0.0000000e+00 0.0000000e+00 1.2500000e+00 
0.0000000e+00 0.0000000e+00 1.5000000e+00 
0.0000000e+00 0.0000000e+00 1.7500000e+00 
0.0000000e+00 0.0000000e+00 2.0000000e+00 
0.0000000e+00 0.0000000e+00 2.2500000e+00 
0.0000000e+00 0.0000000e+00 2.5000000e+00 
0.0000000e+00 0.0000000e+00 2.7500000e+00 
0.0000000e+00 0.0000000e+00 3.0000000e+00 
0.0000000e+00 0.0000000e+00 3.2500000e+00 
0.0000000e+00 0.0000000e+00 3.5000000e+00 
0.0000000e+00 0.0000000e+00 3.7500000e+00 
0.0000000e+00 0.0000000e+00 4.0000000e+00 
0.0000000e+00 0.0000000e+00 4.2500000e+00 
0.0000000e+00 0.0000000e+00 4.5000000e+00 
0.0000000e+00 0.0000000e+00 4.7500000e+00 
0.0000000e+00 0.0000000e+00 5.0000000e+00 
0.0000000e+00 0.0000000e+00 5.2500000e+00 
0.0000000e+00 0.0000000e+00 5.5000000e+00 
0.0000000e+00 0.0000000e+00 5.7500000e+00 
0.0000000e+00 0.0000000e+00 6.0000000e+00 
0.0000000e+00 0.0000000e+00 6.2500000e+00 
0.0000000e+00 0.0000000e+00 6.5000000e+00 
0.0000000e+00 0.0000000e+00 6.7500000e+00 
0.0000000e+00 0.0000000e+00 7.0000000e+00 
0.0000000e+00 0.0000000e+00 7.2500000e+00 
0.0000000e+00 0.0000000e+00 7.5000000e+00 
0.0000000e+00 0.0000000e+00 7.7500000e+00 
0.0000000e+00 0.0000000e+00 8.0000000e+00 
0.0000000e+00 0.0000000e+00 8.2500000e+00 
0.0000000e+00 0.0000000e+00 8.5000000e+00 
0.0000000e+00 0.0000000e+00 8.7500000e+00 
0.0000000e+00 0.0000000e+00 9.0000000e+00 
0.0000000e+00 0.0000000e+00 9.2500000e+00 
0.0000000e+00 0.0000000e+00 9.5000000e+00 
0.0000000e+00 0.0000000e+00 9.7500000e+00 
0.0000000e+00 0.0000000e+00 1.0000000e+01 
0.0000000e+00 0.0000000e+00 1.0250000e+01 
0.0000000e+00 0.0000000e+00 1.0500000e+01 
0.0000000e+00 0.0000000e+00 1.0750000e+01 
0.0000000e+00 0.0000000e+00 1.1000000e+01 
0.0000000e+00 0.0000000e+00 1.1250000e+01 
0.0000000e+00 0.0000000e+00 1.1500000e+01 
0.0000000e+00 0.0000000e+00 1.1750000e+01 
0.0000000e+00 0.0000000e+00 1.2000000e+01 
0.0000000e+00 0.0000000e+00 1.2250000e+01 
0.0000000e+00 0.0000000e+00 1.2500000e+01 
0.0000000e+00 0.0000000e+00 1.2750000e+01 
0.0000000e+00 0.0000000e+00 1.3000000e+01 
0.0000000e+00 0.0000000e+00 1.3250000e+01 
0.0000000e+00 0.0000000e+00 1.3500000e+01 
0.0000000e+00 0.0000000e+00 1.3750000e+01 
0.0000000e+00 0.0000000e+00 1.4000000e+01 
0.0000000e+00 0.0000000e+00 1.4250000e+01 
0.0000000e+00 0.0000000e+00 1.4500000e+01 
0.0000000e+00 0.0000000e+00 1.4750000e+01 
0.0000000e+00 0.0000000e+00 1.5000000e+01 
0.0000000e+00 0.0000000e+00 1.5250000e+01 
0.0000000e+00 0.0000000e+00 1.5500000e+01 
0.0000000e+00 0.0000000e+00 1.5750000e+01 
0.0000000e+00 0.0000000e+00 1.6000000e+01 
0.0000000e+00 0.0000000e+00 1.6250000e+01 
0.0000000e+00 0.0000000e+00 1.6500000e+01 
0.0000000e+00 0.0000000e+00 1.6750000e+01 
0.0000000e+00 0.0000000e+00 1.7000000e+01 
0.0000000e+00 0.0000000e+00 1.7250000e+01 
0.0000000e+00 0.0000000e+00 1.7500000e+01 
0.0000000e+00 0.0000000e+00 1.7750000e+01 
0.0000000e+00 0.0000000e+00 1.8000000e+01 
5.0000000e-01 0.0000000e+00 3.0000000e+00 
5.0000000e-01 0.0000000e+00 6.0000000e+00 
5.0000000e-01 0.0000000e+00 9.0000000e+00 
5.0000000e-01 0.0000000e+00 1.2000000e+01 
5.0000000e-01 0.0000000e+00 1.5000000e+01 
5.0000000e-01 0.0000000e+00 1.8000000e+01 
1.0000000e+00 0.0000000e+00 3.0000000e+00 
1.0000000e+00 0.0000000e+00 6.0000000e+00 
1.0000000e+00 0.0000000e+00 9.0000000e+00 
1.0000000e+00 0.0000000e+00 1.2000000e+01 
1.0000000e+00 0.0000000e+00 1.5000000e+01 
1.0000000e+00 0.0000000e+00 1.8000000e+01 
1.5000000e+00 0.0000000e+00 3.0000000e+00 
1.5000000e+00 0.0000000e+00 6.0000000e+00 
1.5000000e+00 0.0000000e+00 9.0000000e+00 
1.5000000e+00 0.0000000e+00 1.2000000e+01 
1.5000000e+00 0.0000000e+00 1.5000000e+01 
1.5000000e+00 0.0000000e+00 1.8000000e+01 
2.0000000e+00 0.0000000e+00 3.0000000e+00 
2.0000000e+00 0.0000000e+00 6.0000000e+00 
2.0000000e+00 0.0000000e+00 9.0000000e+00 
2.0000000e+00 0.0000000e+00 1.2000000e+01 
2.0000000e+00 0.0000000e+00 1.5000000e+01 
2.0000000e+00 0.0000000e+00 1.8000000e+01 
2.5000000e+00 0.0000000e+00 3.0000000e+00 
2.5000000e+00 0.0000000e+00 6.0000000e+00 
2.5000000e+00 0.0000000e+00 9.0000000e+00 
2.5000000e+00 0.0000000e+00 1.2000000e+01 
2.5000000e+00 0.0000000e+00 1.5000000e+01 
2.5000000e+00 0.0000000e+00 1.8000000e+01 
3.0000000e+00 0.0000000e+00 3.0000000e+00 
3.0000000e+00 0.0000000e+00 6.0000000e+00 
3.0000000e+00 0.0000000e+00 9.0000000e+00 
3.0000000e+00 0.0000000e+00 1.2000000e+01 
3.0000000e+00 0.0000000e+00 1.5000000e+01 
3.0000000e+00 0.0000000e+00 1.8000000e+01 
3.5000000e+00 0.0000000e+00 3.0000000e+00 
3.5000000e+00 0.0000000e+00 6.0000000e+00 
3.5000000e+00 0.0000000e+00 9.0000000e+00 
3.5000000e+00 0.0000000e+00 1.2000000e+01 
3.5000000e+00 0.0000000e+00 1.5000000e+01 
3.5000000e+00 0.0000000e+00 1.8000000e+01 
4.0000000e+00 0.0000000e+00 3.0000000e+00 
4.0000000e+00 0.0000000e+00 6.0000000e+00 
4.0000000e+00 0.0000000e+00 9.0000000e+00 
4.0000000e+00 0.0000000e+00 1.2000000e+01 
4.0000000e+00 0.0000000e+00 1.5000000e+01 
4.0000000e+00 0.0000000e+00 1.8000000e+01 
4.5000000e+00 0.0000000e+00 3.0000000e+00 
4.5000000e+00 0.0000000e+00 6.0000000e+00 
4.5000000e+00 0.0000000e+00 9.0000000e+00 
4.5000000e+00 0.0000000e+00 1.2000000e+01 
4.5000000e+00 0.0000000e+00 1.5000000e+01 
4.5000000e+00 0.0000000e+00 1.8000000e+01 
5.0000000e+00 0.0000000e+00 3.0000000e+00 
5.0000000e+00 0.0000000e+00 6.0000000e+00 
5.0000000e+00 0.0000000e+00 9.0000000e+00 
5.0000000e+00 0.0000000e+00 1.2000000e+01 
5.0000000e+00 0.0000000e+00 1.5000000e+01 
5.0000000e+00 0.0000000e+00 1.8000000e+01 
5.5000000e+00 0.0000000e+00 3.0000000e+00 
5.5000000e+00 0.0000000e+00 6.0000000e+00 
5.5000000e+00 0.0000000e+00 9.0000000e+00 
5.5000000e+00 0.0000000e+00 1.2000000e+01 
5.5000000e+00 0.0000000e+00 1.5000000e+01 
5.5000000e+00 0.0000000e+00 1.8000000e+01 
6.0000000e+00 0.0000000e+00 0.0000000e+00 
6.0000000e+00 0.0000000e+00 2.5000000e-01 
6.0000000e+00 0.0000000e+00 5.0000000e-01 
6.0000000e+00 0.0000000e+00 7.5000000e-01 
6.0000000e+00 0.0000000e+00 1.0000000e+00 
6.0000000e+00 0.0000000e+00 1.2500000e+00 
6.0000000e+00 0.0000000e+00 1.5000000e+00 
6.0000000e+00 0.0000000e+00 1.7500000e+00 
6.0000000e+00 0.0000000e+00 2.0000000e+00 
6.0000000e+00 0.0000000e+00 2.2500000e+00 
6.0000000e+00 0.0000000e+00 2.5000000e+00 
6.0000000e+00 0.0000000e+00 2.7500000e+00 
6.0000000e+00 0.0000000e+00 3.0000000e+00 
6.0000000e+00 0.0000000e+00 3.2500000e+00 
6.0000000e+00 0.0000000e+00 3.5000000e+00 
6.0000000e+00 0.0000000e+00 3.7500000e+00 
6.0000000e+00 0.0000000e+00 4.0000000e+00 
6.0000000e+00 0.0000000e+00 4.2500000e+00 
6.0000000e+00 0.0000000e+00 4.5000000e+00 
6.0000000e+00 0.0000000e+00 4.7500000e+00 
6.0000000e+00 0.0000000e+00 5.0000000e+00 
6.0000000e+00 0.0000000e+00 5.2500000e+00 
6.0000000e+00 0.0000000e+00 5.5000000e+00 
6.0000000e+00 0.0000000e+00 5.7500000e+00 
6.0000000e+00 0.0000000e+00 6.0000000e+00 
6.0000000e+00 0.0000000e+00 6.2500000e+00 
6.0000000e+00 0.0000000e+00 6.5000000e+00 
6.0000000e+00 0.0000000e+00 6.7500000e+00 
6.0000000e+00 0.0000000e+00 7.0000000e+00 
6.0000000e+00 0.0000000e+00 7.2500000e+00 
6.0000000e+00 0.0000000e+00 7.5000000e+00 
6.0000000e+00 0.0000000e+00 7.7500000e+00 
6.0000000e+00 0.0000000e+00 8.0000000e+00 
6.0000000e+00 0.0000000e+00 8.2500000e+00 
6.0000000e+00 0.0000000e+00 8.5000000e+00 
6.0000000e+00 0.0000000e+00 8.7500000e+00 
6.0000000e+00 0.0000000e+00 9.0000000e+00 
6.0000000e+00 0.0000000e+00 9.2500000e+00 
6.0000000e+00 0.0000000e+00 9.5000000e+00 
6.0000000e+00 0.0000000e+00 9.7500000e+00 
6.0000000e+00 0.0000000e+00 1.0000000e+01 
6.0000000e+00 0.0000000e+00 1.0250000e+01 
6.0000000e+00 0.0000000e+00 1.0500000e+01 
6.0000000e+00 0.0000000e+00 1.0750000e+01 
6.0000000e+00 0.0000000e+00 1.1000000e+01 
6.0000000e+00 0.0000000e+00 1.1250000e+01 
6.0000000e+00 0.0000000e+00 1.1500000e+01 
6.0000000e+00 0.0000000e+00 1.1750000e+01 
6.0000000e+00 0.0000000e+00 1.2000000e+01 
6.0000000e+00 0.0000000e+00 1.2250000e+01 
6.0000000e+00 0.0000000e+00 1.2500000e+01 
6.0000000e+00 0.0000000e+00 1.2750000e+01 
6.0000000e+00 0.0000000e+00 1.3000000e+01 
6.0000000e+00 0.0000000e+00 1.3250000e+01 
6.0000000e+00 0.0000000e+00 1.3500000e+01 
6.0000000e+00 0.0000000e+00 1.3750000e+01 
6.0000000e+00 0.0000000e+00 1.4000000e+01 
6.0000000e+00 0.0000000e+00 1.4250000e+01 
6.0000000e+00 0.0000000e+00 1.4500000e+01 
6.0000000e+00 0.0000000e+00 1.4750000e+01 
6.0000000e+00 0.0000000e+00 1.5000000e+01 
6.0000000e+00 0.0000000e+00 1.5250000e+01 
6.0000000e+00 0.0000000e+00 1.5500000e+01 
6.0000000e+00 0.0000000e+00 1.5750000e+01 
6.0000000e+00 0.0000000e+00 1.6000000e+01 
6.0000000e+00 0.0000000e+00 1.6250000e+01 
6.0000000e+00 0.0000000e+00 1.6500000e+01 
6.0000000e+00 0.0000000e+00 1.6750000e+01 
6.0000000e+00 0.0000000e+00 1.7000000e+01 
6.0000000e+00 0.0000000e+00 1.7250000e+01 
6.0000000e+00 0.0000000e+00 1.7500000e+01 
6.0000000e+00 0.0000000e+00 1.7750000e+01 
6.0000000e+00 0.0000000e+00 1.8000000e+01 

CELLS 216 648
2 0 1
2 1 2
2 2 3
2 3 4
2 4 5
2 5 6
2 6 7
2 7 8
2 8 9
2 9 10
2 10 11
2 11 12
2 12 13
2 13 14
2 14 15
2 15 16
2 16 17
2 17 18
2 18 19
2 19 20
2 20 21
2 21 22
2 22 23
2 23 24
2 24 25
2 25 26
2 26 27
2 27 28
2 28 29
2 29 30
2 30 31
2 31 32
2 32 33
2 33 34
2 34 35
2 35 36
2 36 37
2 37 38
2 38 39
2 39 40
2 40 41
2 41 42
2 42 43
2 43 44
2 44 45
2 45 46
2 46 47
2 47 48
2 48 49
2 49 50
2 50 51
2 51 52
2 52 53
2 53 54
2 54 55
2 55 56
2 56 57
2 57 58
2 58 59
2 59 60
2 60 61
2 61 62
2 62 63
2 63 64
2 64 65
2 65 66
2 66 67
2 67 68
2 68 69
2 69 70
2 70 71
2 71 72
2 139 140
2 140 141
2 141 142
2 142 143
2 143 144
2 144 145
2 145 146
2 146 147
2 147 148
2 148 149
2 149 150
2 150 151
2 151 152
2 152 153
2 153 154
2 154 155
2 155 156
2 156 157
2 157 158
2 158 159
2 159 160
2 160 161
2 161 162
2 162 163
2 163 164
2 164 165
2 165 166
2 166 167
2 167 168
2 168 169
2 169 170
2 170 171
2 171 172
2 172 173
2 173 174
2 174 175
2 175 176
2 176 177
2 177 178
2 178 179
2 179 180
2 180 181
2 181 182
2 182 183
2 183 184
2 184 185
2 185 186
2 186 187
2 187 188
2 188 189
2 189 190
2 190 191
2 191 192
2 192 193
2 193 194
2 194 195
2 195 196
2 196 197
2 197 198
2 198 199
2 199 200
2 200 201
2 201 202
2 202 203
2 203 204
2 204 205
2 205 206
2 206 207
2 207 208
2 208 209
2 209 210
2 210 211
2 12 73
2 73 79
2 79 85
2 85 91
2 91 97
2 97 103
2 103 109
2 109 115
2 115 121
2 121 127
2 127 133
2 133 151
2 24 74
2 74 80
2 80 86
2 86 92
2 92 98
2 98 104
2 104 110
2 110 116
2 116 122
2 122 128
2 128 134
2 134 163
2 36 75
2 75 81
2 81 87
2 87 93
2 93 99
2 99 105
2 105 111
2 111 117
2 117 123
2 123 129
2 129 135
2 135 175
2 48 76
2 76 82
2 82 88
2 88 94
2 94 100
2 100 106
2 106 112
2 112 118
2 118 124
2 124 130
2 130 136
2 136 187
2 60 77
2 77 83
2 83 89
2 89 95
2 95 101
2 101 107
2 107 113
2 113 119
2 119 125
2 125 131
2 131 137
2 137 199
2 72 78
2 78 84
2 84 90
2 90 96
2 96 102
2 102 108
2 108 114
2 114 120
2 120 126
2 126 132
2 132 138
2 138 211

CELL_TYPES 216
3
3
3
3
3
3
3
3
3
3
3
3
3
3
3
3
3
3
3
3
3
3
3
3
3
3
3
3
3
3
3
3
3
3
3
3
3
3
3
3
3
3
3
3
3
3
3
3
3
3
3
3
3
3
3
3
3
3
3
3
3
3
3
3
3
3
3
3
3
3
3
3
3
3
3
3
3
3
3
3
3
3
3
3
3
3
3
3
3
3
3
3
3
3
3
3
3
3
3
3
3
3
3
3
3
3
3
3
3
3
3
3
3
3
3
3
3
3
3
3
3
3
3
3
3
3
3
3
3
3
3
3
3
3
3
3
3
3
3
3
3
3
3
3
3
3
3
3
3
3
3
3
3
3
3
3
3
3
3
3
3
3
3
3
3
3
3
3
3
3
3
3
3
3
3
3
3
3
3
3
3
3
3
3
3
3
3
3
3
3
3
3
3
3
3
3
3
3
3
3
3
3
3
3
3
3
3
3
3
3
3
3
3
3
3
3
POINT_DATA 212
FIELD FieldData 8
DISPLACEMENT 3 212  float
0.0000000e+00 0.0000000e+00 0.0000000e+00 
-2.5469670e-04 0.0000000e+00 -4.7493008e-06 
-4.9871096e-04 0.0000000e+00 -9.4658699e-06 
-7.2136044e-04 0.0000000e+00 -1.4149707e-05 
-9.1196271e-04 0.0000000e+00 -1.8800811e-05 
-1.0598353e-03 0.0000000e+00 -2.3419183e-05 
-1.1542959e-03 0.0000000e+00 -2.8004823e-05 
-1.1846621e-03 0.0000000e+00 -3.2557731e-05 
-1.1402514e-03 0.0000000e+00 -3.7077905e-05 
-1.0103815e-03 0.0000000e+00 -4.1565352e-05 
-7.8436994e-04 0.0000000e+00 -4.6020061e-05 
-4.5153429e-04 0.0000000e+00 -5.0442042e-05 
-1.1922044e-06 0.0000000e+00 -5.4831289e-05 
4.0408797e-04 0.0000000e+00 -5.8786311e-05 
6.1813078e-04 0.0000000e+00 -6.2708605e-05 
6.7620794e-04 0.0000000e+00 -6.6598164e-05 
6.1359123e-04 0.0000000e+00 -7.0454989e-05 
4.6555241e-04 0.0000000e+00 -7.4279080e-05 
2.6736330e-04 0.0000000e+00 -7.8070443e-05 
5.4295597e-05 0.0000000e+00 -8.1829072e-05 
-1.3837891e-04 0.0000000e+00 -8.5554973e-05 
-2.7538845e-04 0.0000000e+00 -8.9248140e-05 
-3.2146127e-04 0.0000000e+00 -9.2908573e-05 
-2.4132559e-04 0.0000000e+00 -9.6536271e-05 
2.9034595e-07 0.0000000e+00 -1.0013124e-04 
2.5287192e-04 0.0000000e+00 -1.0329199e-04 
3.6191227e-04 0.0000000e+00 -1.0642000e-04 
3.5669474e-04 0.0000000e+00 -1.0951528e-04 
2.6650270e-04 0.0000000e+00 -1.1257783e-04 
1.2061942e-04 0.0000000e+00 -1.1560765e-04 
-5.1671686e-05 0.0000000e+00 -1.1860473e-04 
-2.2108731e-04 0.0000000e+00 -1.2156909e-04 
-3.5834408e-04 0.0000000e+00 -1.2450070e-04 
-4.3415866e-04 0.0000000e+00 -1.2739959e-04 
-4.1924772e-04 0.0000000e+00 -1.3026575e-04 
-2.8432792e-04 0.0000000e+00 -1.3309917e-04 
-1.1588349e-07 0.0000000e+00 -1.3589986e-04 
2.7971950e-04 0.0000000e+00 -1.3826633e-04 
4.0310284e-04 0.0000000e+00 -1.4060007e-04 
4.0170754e-04 0.0000000e+00 -1.4290107e-04 
3.0720708e-04 0.0000000e+00 -1.4516934e-04 
1.5127490e-04 0.0000000e+00 -1.4740488e-04 
-3.4415520e-05 0.0000000e+00 -1.4960769e-04 
-2.1819075e-04 0.0000000e+00 -1.5177776e-04 
-3.6837731e-04 0.0000000e+00 -1.5391510e-04 
-4.5330176e-04 0.0000000e+00 -1.5601971e-04 
-4.4129067e-04 0.0000000e+00 -1.5809159e-04 
-3.0067054e-04 0.0000000e+00 -1.6013073e-04 
2.3208290e-07 0.0000000e+00 -1.6213715e-04 
3.0989989e-04 0.0000000e+00 -1.6370934e-04 
4.7362447e-04 0.0000000e+00 -1.6524880e-04 
5.1829248e-04 0.0000000e+00 -1.6675552e-04 
4.7079075e-04 0.0000000e+00 -1.6822951e-04 
3.5800590e-04 0.0000000e+00 -1.6967078e-04 
2.0682468e-04 0.0000000e+00 -1.7107930e-04 
4.4133820e-05 0.0000000e+00 -1.7245510e-04 
-1.0317998e-04 0.0000000e+00 -1.7379817e-04 
-2.0822999e-04 0.0000000e+00 -1.7510849e-04 
-2.4412949e-04 0.0000000e+00 -1.7638609e-04 
-1.8399177e-04 0.0000000e+00 -1.7763097e-04 
-9.3010749e-07 0.0000000e+00 -1.7884310e-04 
1.4699170e-04 0.0000000e+00 -1.7962101e-04 
1.1449893e-04 0.0000000e+00 -1.8036619e-04 
-5.2338142e-05 0.0000000e+00 -1.8107863e-04 
-3.0744920e-04 0.0000000e+00 -1.8175835e-04 
-6.0476398e-04 0.0000000e+00 -1.8240533e-04 
-8.9821214e-04 0.0000000e+00 -1.8301958e-04 
-1.1417235e-03 0.0000000e+00 -1.8360111e-04 
-1.2892276e-03 0.0000000e+00 -1.8414989e-04 
-1.2946542e-03 0.0000000e+00 -1.8466594e-04 
-1.1119330e-03 0.0000000e+00 -1.8514927e-04 
-6.9499388e-04 0.0000000e+00 -1.8559986e-04 
2.2336985e-06 0.0000000e+00 -1.8601771e-04 
-9.9350370e-07 0.0000000e+00 -1.6626868e-03 
2.4195495e-07 0.0000000e+00 -1.3806582e-03 
-9.6569579e-08 0.0000000e+00 -1.4796878e-03 
1.9340241e-07 0.0000000e+00 -1.5480594e-03 
-7.7508957e-07 0.0000000e+00 -1.3115531e-03 
1.8614154e-06 0.0000000e+00 -2.4173392e-03 
-7.9480299e-07 0.0000000e+00 -3.9719031e-03 
1.9356396e-07 0.0000000e+00 -3.4220601e-03 
-7.7255663e-08 0.0000000e+00 -3.5728486e-03 
1.5472193e-07 0.0000000e+00 -3.6756939e-03 
-6.2007166e-07 0.0000000e+00 -3.2320139e-03 
1.4891323e-06 0.0000000e+00 -5.2366639e-03 
-5.9610221e-07 0.0000000e+00 -6.3862610e-03 
1.4517298e-07 0.0000000e+00 -5.6281183e-03 
-5.7941747e-08 0.0000000e+00 -5.8191638e-03 
1.1604145e-07 0.0000000e+00 -5.9488215e-03 
-4.6505374e-07 0.0000000e+00 -5.3440067e-03 
1.1168493e-06 0.0000000e+00 -8.0477735e-03 
-3.9740149e-07 0.0000000e+00 -8.4420349e-03 
9.6781982e-08 0.0000000e+00 -7.5351065e-03 
-3.8627832e-08 0.0000000e+00 -7.7549070e-03 
7.7360966e-08 0.0000000e+00 -7.9037175e-03 
-3.1003583e-07 0.0000000e+00 -7.1838056e-03 
7.4456614e-07 0.0000000e+00 -1.0386941e-02 
-1.9870075e-07 0.0000000e+00 -9.8079927e-03 
4.8390991e-08 0.0000000e+00 -8.8117933e-03 
-1.9313916e-08 0.0000000e+00 -9.0488466e-03 
3.8680483e-08 0.0000000e+00 -9.2091477e-03 
-1.5501791e-07 0.0000000e+00 -8.4201777e-03 
3.7228307e-07 0.0000000e+00 -1.1922935e-02 
-1.8833115e-15 0.0000000e+00 -1.0285394e-02 
-1.5352854e-15 0.0000000e+00 -9.2594372e-03 
-6.0033582e-16 0.0000000e+00 -9.5022414e-03 
3.7336712e-16 0.0000000e+00 -9.6663730e-03 
1.3401981e-15 0.0000000e+00 -8.8543845e-03 
1.9780432e-15 0.0000000e+00 -1.2457015e-02 
1.9870075e-07 0.0000000e+00 -9.8079927e-03 
-4.8390994e-08 0.0000000e+00 -8.8117933e-03 
1.9313916e-08 0.0000000e+00 -9.0488466e-03 
-3.8680483e-08 0.0000000e+00 -9.2091477e-03 
1.5501791e-07 0.0000000e+00 -8.4201777e-03 
-3.7228307e-07 0.0000000e+00 -1.1922935e-02 
3.9740149e-07 0.0000000e+00 -8.4420349e-03 
-9.6781989e-08 0.0000000e+00 -7.5351065e-03 
3.8627832e-08 0.0000000e+00 -7.7549070e-03 
-7.7360966e-08 0.0000000e+00 -7.9037175e-03 
3.1003583e-07 0.0000000e+00 -7.1838056e-03 
-7.4456614e-07 0.0000000e+00 -1.0386941e-02 
5.9610221e-07 0.0000000e+00 -6.3862610e-03 
-1.4517298e-07 0.0000000e+00 -5.6281183e-03 
5.7941747e-08 0.0000000e+00 -5.8191638e-03 
-1.1604145e-07 0.0000000e+00 -5.9488215e-03 
4.6505374e-07 0.0000000e+00 -5.3440067e-03 
-1.1168493e-06 0.0000000e+00 -8.0477735e-03 
7.9480299e-07 0.0000000e+00 -3.9719031e-03 
-1.9356396e-07 0.0000000e+00 -3.4220601e-03 
7.7255663e-08 0.0000000e+00 -3.5728486e-03 
-1.5472193e-07 0.0000000e+00 -3.6756939e-03 
6.2007166e-07 0.0000000e+00 -3.2320139e-03 
-1.4891323e-06 0.0000000e+00 -5.2366639e-03 
9.9350370e-07 0.0000000e+00 -1.6626868e-03 
-2.4195495e-07 0.0000000e+00 -1.3806582e-03 
9.6569579e-08 0.0000000e+00 -1.4796878e-03 
-1.9340241e-07 0.0000000e+00 -1.5480594e-03 
7.7508957e-07 0.0000000e+00 -1.3115531e-03 
-1.8614154e-06 0.0000000e+00 -2.4173392e-03 
0.0000000e+00 0.0000000e+00 0.0000000e+00 
2.5469670e-04 0.0000000e+00 -4.7493008e-06 
4.9871096e-04 0.0000000e+00 -9.4658699e-06 
7.2136044e-04 0.0000000e+00 -1.4149707e-05 
9.1196271e-04 0.0000000e+00 -1.8800811e-05 
1.0598353e-03 0.0000000e+00 -2.3419183e-05 
1.1542959e-03 0.0000000e+00 -2.8004823e-05 
1.1846621e-03 0.0000000e+00 -3.2557731e-05 
1.1402514e-03 0.0000000e+00 -3.7077905e-05 
1.0103815e-03 0.0000000e+00 -4.1565352e-05 
7.8436994e-04 0.0000000e+00 -4.6020061e-05 
4.5153429e-04 0.0000000e+00 -5.0442042e-05 
1.1922044e-06 0.0000000e+00 -5.4831289e-05 
-4.0408797e-04 0.0000000e+00 -5.8786311e-05 
-6.1813078e-04 0.0000000e+00 -6.2708605e-05 
-6.7620794e-04 0.0000000e+00 -6.6598164e-05 
-6.1359123e-04 0.0000000e+00 -7.0454989e-05 
-4.6555241e-04 0.0000000e+00 -7.4279080e-05 
-2.6736330e-04 0.0000000e+00 -7.8070443e-05 
-5.4295597e-05 0.0000000e+00 -8.1829072e-05 
1.3837891e-04 0.0000000e+00 -8.5554973e-05 
2.7538845e-04 0.0000000e+00 -8.9248140e-05 
3.2146127e-04 0.0000000e+00 -9.2908573e-05 
2.4132559e-04 0.0000000e+00 -9.6536271e-05 
-2.9034595e-07 0.0000000e+00 -1.0013124e-04 
-2.5287192e-04 0.0000000e+00 -1.0329199e-04 
-3.6191227e-04 0.0000000e+00 -1.0642000e-04 
-3.5669474e-04 0.0000000e+00 -1.0951528e-04 
-2.6650270e-04 0.0000000e+00 -1.1257783e-04 
-1.2061942e-04 0.0000000e+00 -1.1560765e-04 
5.1671686e-05 0.0000000e+00 -1.1860473e-04 
2.2108731e-04 0.0000000e+00 -1.2156909e-04 
3.5834408e-04 0.0000000e+00 -1.2450070e-04 
4.3415866e-04 0.0000000e+00 -1.2739959e-04 
4.1924772e-04 0.0000000e+00 -1.3026575e-04 
2.8432792e-04 0.0000000e+00 -1.3309917e-04 
1.1588349e-07 0.0000000e+00 -1.3589986e-04 
-2.7971950e-04 0.0000000e+00 -1.3826633e-04 
-4.0310284e-04 0.0000000e+00 -1.4060007e-04 
-4.0170754e-04 0.0000000e+00 -1.4290107e-04 
-3.0720708e-04 0.0000000e+00 -1.4516934e-04 
-1.5127490e-04 0.0000000e+00 -1.4740488e-04 
3.4415520e-05 0.0000000e+00 -1.4960769e-04 
2.1819075e-04 0.0000000e+00 -1.5177776e-04 
3.6837731e-04 0.0000000e+00 -1.5391510e-04 
4.5330176e-04 0.0000000e+00 -1.5601971e-04 
4.4129067e-04 0.0000000e+00 -1.5809159e-04 
3.0067054e-04 0.0000000e+00 -1.6013073e-04 
-2.3208290e-07 0.0000000e+00 -1.6213715e-04 
-3.0989989e-04 0.0000000e+00 -1.6370934e-04 
-4.7362447e-04 0.0000000e+00 -1.6524880e-04 
-5.1829248e-04 0.0000000e+00 -1.6675552e-04 
-4.7079075e-04 0.0000000e+00 -1.6822951e-04 
-3.5800590e-04 0.0000000e+00 -1.6967078e-04 
-2.0682468e-04 0.0000000e+00 -1.7107930e-04 
-4.4133820e-05 0.0000000e+00 -1.7245510e-04 
1.0317998e-04 0.0000000e+00 -1.7379817e-04 
2.0822999e-04 0.0000000e+00 -1.7510849e-04 
2.4412949e-04 0.0000000e+00 -1.7638609e-04 
1.8399177e-04 0.0000000e+00 -1.7763097e-04 
9.3010749e-07 0.0000000e+00 -1.7884310e-04 
-1.4699170e-04 0.0000000e+00 -1.7962101e-04 
-1.1449893e-04 0.0000000e+00 -1.8036619e-04 
5.2338142e-05 0.0000000e+00 -1.8107863e-04 
3.0744920e-04 0.0000000e+00 -1.8175835e-04 
6.0476398e-04 0.0000000e+00 -1.8240533e-04 
8.9821214e-04 0.0000000e+00 -1.8301958e-04 
1.1417235e-03 0.0000000e+00 -1.8360111e-04 
1.2892276e-03 0.0000000e+00 -1.8414989e-04 
1.2946542e-03 0.0000000e+00 -1.8466594e-04 
1.1119330e-03 0.0000000e+00 -1.8514927e-04 
6.9499388e-04 0.0000000e+00 -1.8559986e-04 
-2.2336985e-06 0.0000000e+00 -1.8601771e-04 
ROTATION 3 212  float
0.0000000e+00 -1.0259084e-03 0.0000000e+00 
0.0000000e+00 -1.0045435e-03 0.0000000e+00 
0.0000000e+00 -9.4044913e-04 0.0000000e+00 
0.0000000e+00 -8.3362503e-04 0.0000000e+00 
0.0000000e+00 -6.8407139e-04 0.0000000e+00 
0.0000000e+00 -4.9178809e-04 0.0000000e+00 
0.0000000e+00 -2.5677515e-04 0.0000000e+00 
0.0000000e+00 2.0967411e-05 0.0000000e+00 
0.0000000e+00 3.4143959e-04 0.0000000e+00 
0.0000000e+00 7.0464140e-04 0.0000000e+00 
0.0000000e+00 1.1105728e-03 0.0000000e+00 
0.0000000e+00 1.5592339e-03 0.0000000e+00 
0.0000000e+00 2.0506245e-03 0.0000000e+00 
0.0000000e+00 1.2151314e-03 0.0000000e+00 
0.0000000e+00 5.2072539e-04 0.0000000e+00 
0.0000000e+00 -3.2593587e-05 0.0000000e+00 
0.0000000e+00 -4.4482551e-04 0.0000000e+00 
0.0000000e+00 -7.1597035e-04 0.0000000e+00 
0.0000000e+00 -8.4602815e-04 0.0000000e+00 
0.0000000e+00 -8.3499891e-04 0.0000000e+00 
0.0000000e+00 -6.8288262e-04 0.0000000e+00 
0.0000000e+00 -3.8967922e-04 0.0000000e+00 
0.0000000e+00 4.4611214e-05 0.0000000e+00 
0.0000000e+00 6.1998871e-04 0.0000000e+00 
0.0000000e+00 1.3364532e-03 0.0000000e+00 
0.0000000e+00 7.0372166e-04 0.0000000e+00 
0.0000000e+00 1.8812342e-04 0.0000000e+00 
0.0000000e+00 -2.1034143e-04 0.0000000e+00 
0.0000000e+00 -4.9167289e-04 0.0000000e+00 
0.0000000e+00 -6.5587100e-04 0.0000000e+00 
0.0000000e+00 -7.0293568e-04 0.0000000e+00 
0.0000000e+00 -6.3286698e-04 0.0000000e+00 
0.0000000e+00 -4.4566495e-04 0.0000000e+00 
0.0000000e+00 -1.4132954e-04 0.0000000e+00 
0.0000000e+00 2.8013927e-04 0.0000000e+00 
0.0000000e+00 8.1874145e-04 0.0000000e+00 
0.0000000e+00 1.4744770e-03 0.0000000e+00 
0.0000000e+00 7.8532181e-04 0.0000000e+00 
0.0000000e+00 2.2286041e-04 0.0000000e+00 
0.0000000e+00 -2.1290715e-04 0.0000000e+00 
0.0000000e+00 -5.2198092e-04 0.0000000e+00 
0.0000000e+00 -7.0436083e-04 0.0000000e+00 
0.0000000e+00 -7.6004694e-04 0.0000000e+00 
0.0000000e+00 -6.8903924e-04 0.0000000e+00 
0.0000000e+00 -4.9133768e-04 0.0000000e+00 
0.0000000e+00 -1.6694234e-04 0.0000000e+00 
0.0000000e+00 2.8414684e-04 0.0000000e+00 
0.0000000e+00 8.6192985e-04 0.0000000e+00 
0.0000000e+00 1.5664067e-03 0.0000000e+00 
0.0000000e+00 9.2886027e-04 0.0000000e+00 
0.0000000e+00 3.9886075e-04 0.0000000e+00 
0.0000000e+00 -2.3591909e-05 0.0000000e+00 
0.0000000e+00 -3.3849769e-04 0.0000000e+00 
0.0000000e+00 -5.4585660e-04 0.0000000e+00 
0.0000000e+00 -6.4566865e-04 0.0000000e+00 
0.0000000e+00 -6.3793379e-04 0.0000000e+00 
0.0000000e+00 -5.2265212e-04 0.0000000e+00 
0.0000000e+00 -2.9982350e-04 0.0000000e+00 
0.0000000e+00 3.0551950e-05 0.0000000e+00 
0.0000000e+00 4.6847429e-04 0.0000000e+00 
0.0000000e+00 1.0139435e-03 0.0000000e+00 
0.0000000e+00 2.0014454e-04 0.0000000e+00 
0.0000000e+00 -4.2937323e-04 0.0000000e+00 
0.0000000e+00 -8.7460980e-04 0.0000000e+00 
0.0000000e+00 -1.1355652e-03 0.0000000e+00 
0.0000000e+00 -1.2122394e-03 0.0000000e+00 
0.0000000e+00 -1.1046325e-03 0.0000000e+00 
0.0000000e+00 -8.1274431e-04 0.0000000e+00 
0.0000000e+00 -3.3657503e-04 0.0000000e+00 
0.0000000e+00 3.2387546e-04 0.0000000e+00 
0.0000000e+00 1.1686072e-03 0.0000000e+00 
0.0000000e+00 2.1976200e-03 0.0000000e+00 
0.0000000e+00 3.4109140e-03 0.0000000e+00 
0.0000000e+00 4.1378932e-03 0.0000000e+00 
0.0000000e+00 3.5427506e-03 0.0000000e+00 
0.0000000e+00 3.6577706e-03 0.0000000e+00 
0.0000000e+00 3.7343786e-03 0.0000000e+00 
0.0000000e+00 3.2739926e-03 0.0000000e+00 
0.0000000e+00 5.2714678e-03 0.0000000e+00 
0.0000000e+00 4.9002315e-03 0.0000000e+00 
0.0000000e+00 4.4241175e-03 0.0000000e+00 
0.0000000e+00 4.5161331e-03 0.0000000e+00 
0.0000000e+00 4.5774197e-03 0.0000000e+00 
0.0000000e+00 4.2091110e-03 0.0000000e+00 
0.0000000e+00 5.8070915e-03 0.0000000e+00 
0.0000000e+00 4.6026250e-03 0.0000000e+00 
0.0000000e+00 4.2455397e-03 0.0000000e+00 
0.0000000e+00 4.3145516e-03 0.0000000e+00 
0.0000000e+00 4.3605161e-03 0.0000000e+00 
0.0000000e+00 4.0842849e-03 0.0000000e+00 
0.0000000e+00 5.2827699e-03 0.0000000e+00 
0.0000000e+00 3.5100605e-03 0.0000000e+00 
0.0000000e+00 3.2720033e-03 0.0000000e+00 
0.0000000e+00 3.3180113e-03 0.0000000e+00 
0.0000000e+00 3.3486544e-03 0.0000000e+00 
0.0000000e+00 3.1645000e-03 0.0000000e+00 
0.0000000e+00 3.9634900e-03 0.0000000e+00 
0.0000000e+00 1.8875232e-03 0.0000000e+00 
0.0000000e+00 1.7684947e-03 0.0000000e+00 
0.0000000e+00 1.7914987e-03 0.0000000e+00 
0.0000000e+00 1.8068203e-03 0.0000000e+00 
0.0000000e+00 1.7147431e-03 0.0000000e+00 
0.0000000e+00 2.1142382e-03 0.0000000e+00 
0.0000000e+00 7.1660456e-17 0.0000000e+00 
0.0000000e+00 -4.1801933e-17 0.0000000e+00 
0.0000000e+00 -1.1346239e-16 0.0000000e+00 
0.0000000e+00 -7.1660456e-17 0.0000000e+00 
0.0000000e+00 -9.5547275e-17 0.0000000e+00 
0.0000000e+00 5.5384741e-17 0.0000000e+00 
0.0000000e+00 -1.8875232e-03 0.0000000e+00 
0.0000000e+00 -1.7684947e-03 0.0000000e+00 
0.0000000e+00 -1.7914987e-03 0.0000000e+00 
0.0000000e+00 -1.8068203e-03 0.0000000e+00 
0.0000000e+00 -1.7147431e-03 0.0000000e+00 
0.0000000e+00 -2.1142382e-03 0.0000000e+00 
0.0000000e+00 -3.5100605e-03 0.0000000e+00 
0.0000000e+00 -3.2720033e-03 0.0000000e+00 
0.0000000e+00 -3.3180113e-03 0.0000000e+00 
0.0000000e+00 -3.3486544e-03 0.0000000e+00 
0.0000000e+00 -3.1645000e-03 0.0000000e+00 
0.0000000e+00 -3.9634900e-03 0.0000000e+00 
0.0000000e+00 -4.6026250e-03 0.0000000e+00 
0.0000000e+00 -4.2455397e-03 0.0000000e+00 
0.0000000e+00 -4.3145516e-03 0.0000000e+00 
0.0000000e+00 -4.3605161e-03 0.0000000e+00 
0.0000000e+00 -4.0842849e-03 0.0000000e+00 
0.0000000e+00 -5.2827699e-03 0.0000000e+00 
0.0000000e+00 -4.9002315e-03 0.0000000e+00 
0.0000000e+00 -4.4241175e-03 0.0000000e+00 
0.0000000e+00 -4.5161331e-03 0.0000000e+00 
0.0000000e+00 -4.5774197e-03 0.0000000e+00 
0.0000000e+00 -4.2091110e-03 0.0000000e+00 
0.0000000e+00 -5.8070915e-03 0.0000000e+00 
0.0000000e+00 -4.1378932e-03 0.0000000e+00 
0.0000000e+00 -3.5427506e-03 0.0000000e+00 
0.0000000e+00 -3.6577706e-03 0.0000000e+00 
0.0000000e+00 -3.7343786e-03 0.0000000e+00 
0.0000000e+00 -3.2739926e-03 0.0000000e+00 
0.0000000e+00 -5.2714678e-03 0.0000000e+00 
0.0000000e+00 1.0259084e-03 0.0000000e+00 
0.0000000e+00 1.0045435e-03 0.0000000e+00 
0.0000000e+00 9.4044913e-04 0.0000000e+00 
0.0000000e+00 8.3362503e-04 0.0000000e+00 
0.0000000e+00 6.8407139e-04 0.0000000e+00 
0.0000000e+00 4.9178809e-04 0.0000000e+00 
0.0000000e+00 2.5677515e-04 0.0000000e+00 
0.0000000e+00 -2.0967411e-05 0.0000000e+00 
0.0000000e+00 -3.4143959e-04 0.0000000e+00 
0.0000000e+00 -7.0464140e-04 0.0000000e+00 
0.0000000e+00 -1.1105728e-03 0.0000000e+00 
0.0000000e+00 -1.5592339e-03 0.0000000e+00 
0.0000000e+00 -2.0506245e-03 0.0000000e+00 
0.0000000e+00 -1.2151314e-03 0.0000000e+00 
0.0000000e+00 -5.2072539e-04 0.0000000e+00 
0.0000000e+00 3.2593587e-05 0.0000000e+00 
0.0000000e+00 4.4482551e-04 0.0000000e+00 
0.0000000e+00 7.1597035e-04 0.0000000e+00 
0.0000000e+00 8.4602815e-04 0.0000000e+00 
0.0000000e+00 8.3499891e-04 0.0000000e+00 
0.0000000e+00 6.8288262e-04 0.0000000e+00 
0.0000000e+00 3.8967922e-04 0.0000000e+00 
0.0000000e+00 -4.4611214e-05 0.0000000e+00 
0.0000000e+00 -6.1998871e-04 0.0000000e+00 
0.0000000e+00 -1.3364532e-03 0.0000000e+00 
0.0000000e+00 -7.0372166e-04 0.0000000e+00 
0.0000000e+00 -1.8812342e-04 0.0000000e+00 
0.0000000e+00 2.1034143e-04 0.0000000e+00 
0.0000000e+00 4.9167289e-04 0.0000000e+00 
0.0000000e+00 6.5587100e-04 0.0000000e+00 
0.0000000e+00 7.0293568e-04 0.0000000e+00 
0.0000000e+00 6.3286698e-04 0.0000000e+00 
0.0000000e+00 4.4566495e-04 0.0000000e+00 
0.0000000e+00 1.4132954e-04 0.0000000e+00 
0.0000000e+00 -2.8013927e-04 0.0000000e+00 
0.0000000e+00 -8.1874145e-04 0.0000000e+00 
0.0000000e+00 -1.4744770e-03 0.0000000e+00 
0.0000000e+00 -7.8532181e-04 0.0000000e+00 
0.0000000e+00 -2.2286041e-04 0.0000000e+00 
0.0000000e+00 2.1290715e-04 0.0000000e+00 
0.0000000e+00 5.2198092e-04 0.0000000e+00 
0.0000000e+00 7.0436083e-04 0.0000000e+00 
0.0000000e+00 7.6004694e-04 0.0000000e+00 
0.0000000e+00 6.8903924e-04 0.0000000e+00 
0.0000000e+00 4.9133768e-04 0.0000000e+00 
0.0000000e+00 1.6694234e-04 0.0000000e+00 
0.0000000e+00 -2.8414684e-04 0.0000000e+00 
0.0000000e+00 -8.6192985e-04 0.0000000e+00 
0.0000000e+00 -1.5664067e-03 0.0000000e+00 
0.0000000e+00 -9.2886027e-04 0.0000000e+00 
0.0000000e+00 -3.9886075e-04 0.0000000e+00 
0.0000000e+00 2.3591909e-05 0.0000000e+00 
0.0000000e+00 3.3849769e-04 0.0000000e+00 
0.0000000e+00 5.4585660e-04 0.0000000e+00 
0.0000000e+00 6.4566865e-04 0.0000000e+00 
0.0000000e+00 6.3793379e-04 0.0000000e+00 
0.0000000e+00 5.2265212e-04 0.0000000e+00 
0.0000000e+00 2.9982350e-04 0.0000000e+00 
0.0000000e+00 -3.0551950e-05 0.0000000e+00 
0.0000000e+00 -4.6847429e-04 0.0000000e+00 
0.0000000e+00 -1.0139435e-03 0.0000000e+00 
0.0000000e+00 -2.0014454e-04 0.0000000e+00 
0.0000000e+00 4.2937323e-04 0.0000000e+00 
0.0000000e+00 8.7460980e-04 0.0000000e+00 
0.0000000e+00 1.1355652e-03 0.0000000e+00 