# vtk DataFile Version 4.0
vtk output
ASCII
DATASET UNSTRUCTURED_GRID
POINTS 30 float
0.0000000e+00 0.0000000e+00 0.0000000e+00 
0.0000000e+00 0.0000000e+00 8.0000001e-01 
0.0000000e+00 0.0000000e+00 1.6000000e+00 
0.0000000e+00 0.0000000e+00 2.4000001e+00 
0.0000000e+00 0.0000000e+00 3.2000000e+00 
0.0000000e+00 0.0000000e+00 4.0000000e+00 
0.0000000e+00 0.0000000e+00 4.8000002e+00 
0.0000000e+00 0.0000000e+00 5.5999999e+00 
0.0000000e+00 0.0000000e+00 6.4000001e+00 
0.0000000e+00 0.0000000e+00 7.1999998e+00 
0.0000000e+00 0.0000000e+00 8.0000000e+00 
1.0000000e+01 0.0000000e+00 0.0000000e+00 
1.0000000e+01 0.0000000e+00 8.0000001e-01 
1.0000000e+01 0.0000000e+00 1.6000000e+00 
1.0000000e+01 0.0000000e+00 2.4000001e+00 
1.0000000e+01 0.0000000e+00 3.2000000e+00 
1.0000000e+01 0.0000000e+00 4.0000000e+00 
1.0000000e+01 0.0000000e+00 4.8000002e+00 
1.0000000e+01 0.0000000e+00 5.5999999e+00 
1.0000000e+01 0.0000000e+00 6.4000001e+00 
1.0000000e+01 0.0000000e+00 7.1999998e+00 
1.0000000e+01 0.0000000e+00 8.0000000e+00 
2.0000000e+00 0.0000000e+00 4.0000000e+00 
4.0000000e+00 0.0000000e+00 4.0000000e+00 
6.0000000e+00 0.0000000e+00 4.0000000e+00 
8.0000000e+00 0.0000000e+00 4.0000000e+00 
2.0000000e+00 0.0000000e+00 8.0000000e+00 
4.0000000e+00 0.0000000e+00 8.0000000e+00 
6.0000000e+00 0.0000000e+00 8.0000000e+00 
8.0000000e+00 0.0000000e+00 8.0000000e+00 

CELLS 30 90
2 0 1
2 1 2
2 2 3
2 3 4
2 4 5
2 5 6
2 6 7
2 7 8
2 8 9
2 9 10
2 11 12
2 12 13
2 13 14
2 14 15
2 15 16
2 16 17
2 17 18
2 18 19
2 19 20
2 20 21
2 5 22
2 22 23
2 23 24
2 24 25
2 25 16
2 10 26
2 26 27
2 27 28
2 28 29
2 29 21

CELL_TYPES 30
3
3
3
3
3
3
3
3
3
3
3
3
3
3
3
3
3
3
3
3
3
3
3
3
3
3
3
3
3
3
POINT_DATA 30
FIELD FieldData 3
ADJOINT_DISPLACEMENT 3 30  float
0.0000000e+00 0.0000000e+00 0.0000000e+00 
-3.9448401e-01 0.0000000e+00 -4.4699609e-17 
-8.1064516e-01 0.0000000e+00 -8.9399219e-17 
-1.2701606e+00 0.0000000e+00 -1.3409883e-16 
-1.7947073e+00 0.0000000e+00 -1.7879844e-16 
-1.6059626e+00 0.0000000e+00 -2.2349803e-16 
-1.5077662e+00 0.0000000e+00 -2.0459698e-16 
-1.4768212e+00 0.0000000e+00 -2.0375517e-16 
-1.4940993e+00 0.0000000e+00 -1.9954505e-16 
-1.5405724e+00 0.0000000e+00 -1.9684303e-16 
-1.5972127e+00 0.0000000e+00 -1.9390074e-16 
0.0000000e+00 0.0000000e+00 0.0000000e+00 
-4.0551600e-01 0.0000000e+00 1.4998729e-16 
-7.8935486e-01 0.0000000e+00 3.0037893e-16 
-1.1298394e+00 0.0000000e+00 4.5641857e-16 
-1.4052926e+00 0.0000000e+00 6.1525667e-16 
-1.5940373e+00 0.0000000e+00 7.6266185e-16 
-1.6922337e+00 0.0000000e+00 7.9849637e-16 
-1.7231789e+00 0.0000000e+00 8.3433089e-16 
-1.7059008e+00 0.0000000e+00 8.7016547e-16 
-1.6594276e+00 0.0000000e+00 8.3754586e-16 
-1.6027873e+00 0.0000000e+00 8.0492630e-16 
-1.6035776e+00 0.0000000e+00 -2.7632940e-01 
-1.6011926e+00 0.0000000e+00 -4.1449410e-01 
-1.5988075e+00 0.0000000e+00 -4.1449410e-01 
-1.5964224e+00 0.0000000e+00 -2.7632940e-01 
-1.5983276e+00 0.0000000e+00 1.1076225e-01 
-1.5994425e+00 0.0000000e+00 1.6614339e-01 
-1.6005574e+00 0.0000000e+00 1.6614339e-01 
-1.6016724e+00 0.0000000e+00 1.1076225e-01 
ADJOINT_ROTATION 3 30  float
0.0000000e+00 -4.8858893e-01 0.0000000e+00 
0.0000000e+00 -5.0213712e-01 0.0000000e+00 
0.0000000e+00 -5.4278177e-01 0.0000000e+00 
0.0000000e+00 -6.1052281e-01 0.0000000e+00 
0.0000000e+00 -7.0536023e-01 0.0000000e+00 
0.0000000e+00 1.7270587e-01 0.0000000e+00 
0.0000000e+00 7.6749273e-02 0.0000000e+00 
0.0000000e+00 4.5777415e-03 0.0000000e+00 
0.0000000e+00 -4.3808714e-02 0.0000000e+00 
0.0000000e+00 -6.8410099e-02 0.0000000e+00 
0.0000000e+00 -6.9226407e-02 0.0000000e+00 
0.0000000e+00 -5.1141107e-01 0.0000000e+00 
0.0000000e+00 -4.9786285e-01 0.0000000e+00 
0.0000000e+00 -4.5721823e-01 0.0000000e+00 
0.0000000e+00 -3.8947719e-01 0.0000000e+00 
0.0000000e+00 -2.9463974e-01 0.0000000e+00 
0.0000000e+00 -1.7270587e-01 0.0000000e+00 
0.0000000e+00 -7.6749273e-02 0.0000000e+00 
0.0000000e+00 -4.5777415e-03 0.0000000e+00 
0.0000000e+00 4.3808714e-02 0.0000000e+00 
0.0000000e+00 6.8410099e-02 0.0000000e+00 
0.0000000e+00 6.9226407e-02 0.0000000e+00 
0.0000000e+00 1.0362352e-01 0.0000000e+00 
0.0000000e+00 3.4541175e-02 0.0000000e+00 
0.0000000e+00 -3.4541175e-02 0.0000000e+00 
0.0000000e+00 -1.0362352e-01 0.0000000e+00 
0.0000000e+00 -4.1535847e-02 0.0000000e+00 
0.0000000e+00 -1.3845282e-02 0.0000000e+00 
0.0000000e+00 1.3845282e-02 0.0000000e+00 
0.0000000e+00 4.1535847e-02 0.0000000e+00 
SHAPE_SENSITIVITY 3 30  float
0.0000000e+00 0.0000000e+00 0.0000000e+00 
0.0000000e+00 0.0000000e+00 0.0000000e+00 
0.0000000e+00 0.0000000e+00 0.0000000e+00 
0.0000000e+00 0.0000000e+00 0.0000000e+00 
0.0000000e+00 0.0000000e+00 0.0000000e+00 
0.0000000e+00 0.0000000e+00 0.0000000e+00 
0.0000000e+00 0.0000000e+00 0.0000000e+00 
0.0000000e+00 0.0000000e+00 0.0000000e+00 
0.0000000e+00 0.0000000e+00 0.0000000e+00 
0.0000000e+00 0.0000000e+00 0.0000000e+00 
0.0000000e+00 0.0000000e+00 0.0000000e+00 
0.0000000e+00 0.0000000e+00 0.0000000e+00 
0.0000000e+00 0.0000000e+00 0.0000000e+00 
0.0000000e+00 0.0000000e+00 0.0000000e+00 
0.0000000e+00 0.0000000e+00 0.0000000e+00 
0.0000000e+00 0.0000000e+00 0.0000000e+00 
0.0000000e+00 0.0000000e+00 0.0000000e+00 
0.0000000e+00 0.0000000e+00 0.0000000e+00 
0.0000000e+00 0.0000000e+00 0.0000000e+00 
0.0000000e+00 0.0000000e+00 0.0000000e+00 
0.0000000e+00 0.0000000e+00 0.0000000e+00 
0.0000000e+00 0.0000000e+00 0.0000000e+00 
0.0000000e+00 0.0000000e+00 0.0000000e+00 
0.0000000e+00 0.0000000e+00 0.0000000e+00 
0.0000000e+00 0.0000000e+00 0.0000000e+00 
0.0000000e+00 0.0000000e+00 0.0000000e+00 
0.0000000e+00 0.0000000e+00 0.0000000e+00 
0.0000000e+00 0.0000000e+00 0.0000000e+00 
0.0000000e+00 0.0000000e+00 0.0000000e+00 
0.0000000e+00 0.0000000e+00 0.0000000e+00 
CELL_DATA 30
FIELD FieldData 1
I22_SENSITIVITY 1 30  float
-5.4195738e+05
-2.8500680e+06
-5.9564740e+06
-7.8194050e+06
-6.5606815e+06
4.7945500e+06
-2.8140159e+05
-2.6803738e+06
-2.5604220e+06
-5.9504973e+04
-2.1774859e+05
-8.3606194e+05
4.9220931e+05
5.3568980e+06
1.4525867e+07
6.2665155e+06
6.5354300e+05
-1.2092548e+06
-3.5366850e+05
7.9429561e+03
-6.6756200e+06
-2.9817425e+06
7.1213475e+05
4.4060120e+06
5.2599545e+06
2.0872139e+06
-1.0554088e+06
-2.3454028e+06
-1.1769360e+06
-1.0677667e+05
