# vtk DataFile Version 4.0
vtk output
ASCII
DATASET UNSTRUCTURED_GRID
POINTS 30 float
0.0000000e+00 0.0000000e+00 0.0000000e+00 
0.0000000e+00 0.0000000e+00 8.0000001e-01 
0.0000000e+00 0.0000000e+00 1.6000000e+00 
0.0000000e+00 0.0000000e+00 2.4000001e+00 
0.0000000e+00 0.0000000e+00 3.2000000e+00 
0.0000000e+00 0.0000000e+00 4.0000000e+00 
0.0000000e+00 0.0000000e+00 4.8000002e+00 
0.0000000e+00 0.0000000e+00 5.5999999e+00 
0.0000000e+00 0.0000000e+00 6.4000001e+00 
0.0000000e+00 0.0000000e+00 7.1999998e+00 
0.0000000e+00 0.0000000e+00 8.0000000e+00 
1.0000000e+01 0.0000000e+00 0.0000000e+00 
1.0000000e+01 0.0000000e+00 8.0000001e-01 
1.0000000e+01 0.0000000e+00 1.6000000e+00 
1.0000000e+01 0.0000000e+00 2.4000001e+00 
1.0000000e+01 0.0000000e+00 3.2000000e+00 
1.0000000e+01 0.0000000e+00 4.0000000e+00 
1.0000000e+01 0.0000000e+00 4.8000002e+00 
1.0000000e+01 0.0000000e+00 5.5999999e+00 
1.0000000e+01 0.0000000e+00 6.4000001e+00 
1.0000000e+01 0.0000000e+00 7.1999998e+00 
1.0000000e+01 0.0000000e+00 8.0000000e+00 
2.0000000e+00 0.0000000e+00 4.0000000e+00 
4.0000000e+00 0.0000000e+00 4.0000000e+00 
6.0000000e+00 0.0000000e+00 4.0000000e+00 
8.0000000e+00 0.0000000e+00 4.0000000e+00 
2.0000000e+00 0.0000000e+00 8.0000000e+00 
4.0000000e+00 0.0000000e+00 8.0000000e+00 
6.0000000e+00 0.0000000e+00 8.0000000e+00 
8.0000000e+00 0.0000000e+00 8.0000000e+00 

CELLS 30 90
2 0 1
2 1 2
2 2 3
2 3 4
2 4 5
2 5 6
2 6 7
2 7 8
2 8 9
2 9 10
2 11 12
2 12 13
2 13 14
2 14 15
2 15 16
2 16 17
2 17 18
2 18 19
2 19 20
2 20 21
2 5 22
2 22 23
2 23 24
2 24 25
2 25 16
2 10 26
2 26 27
2 27 28
2 28 29
2 29 21

CELL_TYPES 30
3
3
3
3
3
3
3
3
3
3
3
3
3
3
3
3
3
3
3
3
3
3
3
3
3
3
3
3
3
3
POINT_DATA 30
FIELD FieldData 7
DISPLACEMENT 3 30  float
0.0000000e+00 0.0000000e+00 0.0000000e+00 
5.3475057e-03 0.0000000e+00 1.0640772e-05 
1.0506656e-02 0.0000000e+00 2.1281543e-05 
1.5275594e-02 0.0000000e+00 3.4241286e-05 
1.9398455e-02 0.0000000e+00 4.7201032e-05 
2.2593876e-02 0.0000000e+00 6.2250758e-05 
2.5237521e-02 0.0000000e+00 6.8052315e-05 
2.7783675e-02 0.0000000e+00 7.0838702e-05 
3.0083206e-02 0.0000000e+00 7.3625088e-05 
3.2003060e-02 0.0000000e+00 7.6411474e-05 
3.3410180e-02 0.0000000e+00 7.9197860e-05 
0.0000000e+00 0.0000000e+00 0.0000000e+00 
5.4063601e-03 0.0000000e+00 -1.5120634e-06 
1.0608034e-02 0.0000000e+00 -4.7163098e-06 
1.5397826e-02 0.0000000e+00 -5.9841641e-06 
1.9501187e-02 0.0000000e+00 -7.5804937e-06 
2.2625981e-02 0.0000000e+00 -7.6332590e-06 
2.5214570e-02 0.0000000e+00 -1.7770020e-06 
2.7730890e-02 0.0000000e+00 7.5689059e-07 
3.0019272e-02 0.0000000e+00 3.2907833e-06 
3.1954177e-02 0.0000000e+00 6.5080349e-06 
3.3477880e-02 0.0000000e+00 6.1283863e-06 
2.2608323e-02 0.0000000e+00 -3.0005195e-03 
2.2616340e-02 0.0000000e+00 -1.8206674e-03 
2.2624355e-02 0.0000000e+00 9.4240991e-04 
2.2625169e-02 0.0000000e+00 2.7654639e-03 
3.3423837e-02 0.0000000e+00 -9.7156636e-04 
3.3437494e-02 0.0000000e+00 1.9672756e-04 
3.3451151e-02 0.0000000e+00 1.7669514e-03 
3.3468336e-02 0.0000000e+00 2.0454100e-03 
ROTATION 3 30  float
0.0000000e+00 6.7236228e-03 0.0000000e+00 
0.0000000e+00 6.6059008e-03 0.0000000e+00 
0.0000000e+00 6.2527345e-03 0.0000000e+00 
0.0000000e+00 5.6134919e-03 0.0000000e+00 
0.0000000e+00 4.6375412e-03 0.0000000e+00 
0.0000000e+00 3.2799046e-03 0.0000000e+00 
0.0000000e+00 3.2813905e-03 0.0000000e+00 
0.0000000e+00 3.0562733e-03 0.0000000e+00 
0.0000000e+00 2.6648359e-03 0.0000000e+00 
0.0000000e+00 2.1070787e-03 0.0000000e+00 
0.0000000e+00 1.3830013e-03 0.0000000e+00 
0.0000000e+00 6.8013361e-03 0.0000000e+00 
0.0000000e+00 6.6711782e-03 0.0000000e+00 
0.0000000e+00 6.2940801e-03 0.0000000e+00 
0.0000000e+00 5.6205019e-03 0.0000000e+00 
0.0000000e+00 4.5732334e-03 0.0000000e+00 
0.0000000e+00 3.1921444e-03 0.0000000e+00 
0.0000000e+00 3.2298272e-03 0.0000000e+00 
0.0000000e+00 3.0319565e-03 0.0000000e+00 
0.0000000e+00 2.6599781e-03 0.0000000e+00 
0.0000000e+00 2.1654507e-03 0.0000000e+00 
0.0000000e+00 1.6480065e-03 0.0000000e+00 
0.0000000e+00 1.7921851e-04 0.0000000e+00 
0.0000000e+00 -1.1724014e-03 0.0000000e+00 
0.0000000e+00 -1.4040068e-03 0.0000000e+00 
0.0000000e+00 -9.0768197e-05 0.0000000e+00 
0.0000000e+00 -1.8080977e-04 0.0000000e+00 
0.0000000e+00 -8.3605677e-04 0.0000000e+00 
0.0000000e+00 -5.8273971e-04 0.0000000e+00 
0.0000000e+00 3.9399194e-04 0.0000000e+00 
REACTION 3 30  float
-1.1588274e+04 -0.0000000e+00 -2.7932023e+04 
4.6566129e-10 -0.0000000e+00 -0.0000000e+00 
1.4770194e-09 -0.0000000e+00 2.1827873e-11 
-1.8626451e-09 -0.0000000e+00 -2.1827873e-11 
7.0285751e-09 -0.0000000e+00 -7.2759576e-12 
-7.3996489e-09 -0.0000000e+00 5.8207661e-11 
-2.3319444e-09 -0.0000000e+00 -1.3687895e-09 
3.7252903e-09 -0.0000000e+00 1.4551915e-10 
8.1490725e-09 -0.0000000e+00 -0.0000000e+00 
1.7462298e-09 -0.0000000e+00 -0.0000000e+00 
-2.0445441e-09 -0.0000000e+00 4.9112714e-11 
-1.2812427e+04 -0.0000000e+00 3.9691665e+03 
2.0991138e-09 -0.0000000e+00 -3.8198777e-11 
-1.4551915e-11 -0.0000000e+00 2.4829205e-10 
1.1896191e-09 -0.0000000e+00 -2.7466740e-10 
-5.1204552e-09 -0.0000000e+00 -2.5238478e-10 
-7.4505806e-09 -0.0000000e+00 -3.4160621e-09 
-3.7543941e-09 -0.0000000e+00 -0.0000000e+00 
-0.0000000e+00 -0.0000000e+00 -0.0000000e+00 
3.4178811e-09 -0.0000000e+00 -1.9772415e-09 
5.1659299e-10 -0.0000000e+00 -0.0000000e+00 
1.2625605e-08 -0.0000000e+00 9.0426511e-10 
-1.5716068e-09 -0.0000000e+00 1.5934347e-09 
-3.7252903e-09 -0.0000000e+00 1.8189894e-10 
-1.3242243e-09 -0.0000000e+00 -9.0949470e-10 
7.4505806e-09 -0.0000000e+00 1.1095835e-10 
-7.4505806e-09 -0.0000000e+00 -7.4578566e-11 
-0.0000000e+00 -0.0000000e+00 -2.5465852e-11 
1.3387762e-09 -0.0000000e+00 9.9862518e-10 
-7.0613169e-09 -0.0000000e+00 1.4551915e-11 
REACTION_MOMENT 3 30  float
-0.0000000e+00 6.4028427e-10 -0.0000000e+00 
-0.0000000e+00 9.3132257e-10 -0.0000000e+00 
-0.0000000e+00 1.8626451e-09 -0.0000000e+00 
-0.0000000e+00 5.8207661e-11 -0.0000000e+00 
-0.0000000e+00 6.8685040e-09 -0.0000000e+00 
-0.0000000e+00 8.9348760e-09 -0.0000000e+00 
-0.0000000e+00 -2.4447218e-09 -0.0000000e+00 
-0.0000000e+00 -4.6566129e-10 -0.0000000e+00 
-0.0000000e+00 -1.9499566e-09 -0.0000000e+00 
-0.0000000e+00 -8.2945917e-10 -0.0000000e+00 
-0.0000000e+00 -1.7389539e-09 -0.0000000e+00 
-0.0000000e+00 -2.3283064e-10 -0.0000000e+00 
-0.0000000e+00 -5.8207661e-11 -0.0000000e+00 
-0.0000000e+00 -2.3283064e-10 -0.0000000e+00 
-0.0000000e+00 -6.9849193e-10 -0.0000000e+00 
-0.0000000e+00 -7.8580342e-10 -0.0000000e+00 
-0.0000000e+00 -2.9103830e-11 -0.0000000e+00 
-0.0000000e+00 8.7311491e-11 -0.0000000e+00 
-0.0000000e+00 1.5716068e-09 -0.0000000e+00 
-0.0000000e+00 -2.3865141e-09 -0.0000000e+00 
-0.0000000e+00 -4.5110937e-10 -0.0000000e+00 
-0.0000000e+00 3.9290171e-10 -0.0000000e+00 
-0.0000000e+00 1.1277734e-10 -0.0000000e+00 
-0.0000000e+00 1.8917490e-10 -0.0000000e+00 
-0.0000000e+00 -2.7284841e-11 -0.0000000e+00 
-0.0000000e+00 4.3655746e-11 -0.0000000e+00 
-0.0000000e+00 -2.5465852e-11 -0.0000000e+00 
-0.0000000e+00 -7.2759576e-12 -0.0000000e+00 
-0.0000000e+00 1.4551915e-11 -0.0000000e+00 
-0.0000000e+00 -0.0000000e+00 -0.0000000e+00 
VOLUME_ACCELERATION 3 30  float
0.0000000e+00 0.0000000e+00 0.0000000e+00 
0.0000000e+00 0.0000000e+00 0.0000000e+00 
0.0000000e+00 0.0000000e+00 0.0000000e+00 
0.0000000e+00 0.0000000e+00 0.0000000e+00 
0.0000000e+00 0.0000000e+00 0.0000000e+00 
0.0000000e+00 0.0000000e+00 0.0000000e+00 
0.0000000e+00 0.0000000e+00 0.0000000e+00 
0.0000000e+00 0.0000000e+00 0.0000000e+00 
0.0000000e+00 0.0000000e+00 0.0000000e+00 
0.0000000e+00 0.0000000e+00 0.0000000e+00 
0.0000000e+00 0.0000000e+00 0.0000000e+00 
0.0000000e+00 0.0000000e+00 0.0000000e+00 
0.0000000e+00 0.0000000e+00 0.0000000e+00 
0.0000000e+00 0.0000000e+00 0.0000000e+00 
0.0000000e+00 0.0000000e+00 0.0000000e+00 
0.0000000e+00 0.0000000e+00 0.0000000e+00 
0.0000000e+00 0.0000000e+00 0.0000000e+00 
0.0000000e+00 0.0000000e+00 0.0000000e+00 
0.0000000e+00 0.0000000e+00 0.0000000e+00 
0.0000000e+00 0.0000000e+00 0.0000000e+00 
0.0000000e+00 0.0000000e+00 0.0000000e+00 
0.0000000e+00 0.0000000e+00 0.0000000e+00 
0.0000000e+00 0.0000000e+00 0.0000000e+00 
0.0000000e+00 0.0000000e+00 0.0000000e+00 
0.0000000e+00 0.0000000e+00 0.0000000e+00 
0.0000000e+00 0.0000000e+00 0.0000000e+00 
0.0000000e+00 0.0000000e+00 0.0000000e+00 
0.0000000e+00 0.0000000e+00 0.0000000e+00 
0.0000000e+00 0.0000000e+00 0.0000000e+00 
0.0000000e+00 0.0000000e+00 0.0000000e+00 
POINT_LOAD 3 30  float
0.0000000e+00 0.0000000e+00 0.0000000e+00 
0.0000000e+00 0.0000000e+00 0.0000000e+00 
-4.9840693e+03 0.0000000e+00 -6.0873052e+03 
0.0000000e+00 0.0000000e+00 0.0000000e+00 
-4.4275381e+03 0.0000000e+00 -5.4862056e+03 
-8.2885303e+03 0.0000000e+00 5.5487759e+03 
5.9341440e+03 0.0000000e+00 7.9148130e+03 
0.0000000e+00 0.0000000e+00 0.0000000e+00 
0.0000000e+00 0.0000000e+00 0.0000000e+00 
0.0000000e+00 0.0000000e+00 0.0000000e+00 
-6.1545029e+03 0.0000000e+00 1.5932367e+02 
0.0000000e+00 0.0000000e+00 0.0000000e+00 
1.3166891e+03 0.0000000e+00 4.4419800e+03 
-6.1932842e+03 0.0000000e+00 -5.0830293e+03 
-1.4070715e+03 0.0000000e+00 8.6224866e+02 
5.3316948e+03 0.0000000e+00 -4.0518582e+03 
0.0000000e+00 0.0000000e+00 0.0000000e+00 
6.0485186e+03 0.0000000e+00 8.7212061e+03 
0.0000000e+00 0.0000000e+00 0.0000000e+00 
5.0753267e+03 0.0000000e+00 -1.7938173e+03 
4.7322241e+03 0.0000000e+00 9.4418623e+03 
8.7862559e+03 0.0000000e+00 -8.6820972e+02 
6.7509995e+03 0.0000000e+00 9.9075664e+03 
0.0000000e+00 0.0000000e+00 0.0000000e+00 
7.5637144e+03 0.0000000e+00 -6.6910688e+03 
0.0000000e+00 0.0000000e+00 0.0000000e+00 
0.0000000e+00 0.0000000e+00 0.0000000e+00 
0.0000000e+00 0.0000000e+00 0.0000000e+00 
-3.7000815e+03 0.0000000e+00 2.9161047e+03 
8.0162124e+03 0.0000000e+00 4.1104697e+03 
POINT_MOMENT 3 30  float
0.0000000e+00 0.0000000e+00 0.0000000e+00 
0.0000000e+00 0.0000000e+00 0.0000000e+00 
0.0000000e+00 0.0000000e+00 0.0000000e+00 
0.0000000e+00 0.0000000e+00 0.0000000e+00 
0.0000000e+00 0.0000000e+00 0.0000000e+00 
0.0000000e+00 0.0000000e+00 0.0000000e+00 
0.0000000e+00 0.0000000e+00 0.0000000e+00 
0.0000000e+00 0.0000000e+00 0.0000000e+00 
0.0000000e+00 0.0000000e+00 0.0000000e+00 
0.0000000e+00 0.0000000e+00 0.0000000e+00 
0.0000000e+00 0.0000000e+00 0.0000000e+00 
0.0000000e+00 0.0000000e+00 0.0000000e+00 
0.0000000e+00 0.0000000e+00 0.0000000e+00 
0.0000000e+00 0.0000000e+00 0.0000000e+00 
0.0000000e+00 0.0000000e+00 0.0000000e+00 
0.0000000e+00 0.0000000e+00 0.0000000e+00 
0.0000000e+00 0.0000000e+00 0.0000000e+00 
0.0000000e+00 0.0000000e+00 0.0000000e+00 
0.0000000e+00 0.0000000e+00 0.0000000e+00 
0.0000000e+00 0.0000000e+00 0.0000000e+00 
0.0000000e+00 0.0000000e+00 0.0000000e+00 
0.0000000e+00 0.0000000e+00 0.0000000e+00 
0.0000000e+00 0.0000000e+00 0.0000000e+00 
0.0000000e+00 0.0000000e+00 0.0000000e+00 
0.0000000e+00 0.0000000e+00 0.0000000e+00 
0.0000000e+00 0.0000000e+00 0.0000000e+00 
0.0000000e+00 0.0000000e+00 0.0000000e+00 
0.0000000e+00 0.0000000e+00 0.0000000e+00 
0.0000000e+00 0.0000000e+00 0.0000000e+00 
0.0000000e+00 0.0000000e+00 0.0000000e+00 
CELL_DATA 30
FIELD FieldData 9
YOUNG_MODULUS 1 30  float
2.1000000e+11
2.1000000e+11
2.1000000e+11
2.1000000e+11
2.1000000e+11
2.1000000e+11
2.1000000e+11
2.1000000e+11
2.1000000e+11
2.1000000e+11
2.1000000e+11
2.1000000e+11
2.1000000e+11
2.1000000e+11
2.1000000e+11
2.1000000e+11
2.1000000e+11
2.1000000e+11
2.1000000e+11
2.1000000e+11
2.1000000e+11
2.1000000e+11
2.1000000e+11
2.1000000e+11
2.1000000e+11
2.1000000e+11
2.1000000e+11
2.1000000e+11
2.1000000e+11
2.1000000e+11
DENSITY 1 30  float
7.8500000e+03
7.8500000e+03
7.8500000e+03
7.8500000e+03
7.8500000e+03
7.8500000e+03
7.8500000e+03
7.8500000e+03
7.8500000e+03
7.8500000e+03
7.8500000e+03
7.8500000e+03
7.8500000e+03
7.8500000e+03
7.8500000e+03
7.8500000e+03
7.8500000e+03
7.8500000e+03
7.8500000e+03
7.8500000e+03
7.8500000e+03
7.8500000e+03
7.8500000e+03
7.8500000e+03
7.8500000e+03
7.8500000e+03
7.8500000e+03
7.8500000e+03
7.8500000e+03
7.8500000e+03
CROSS_AREA 1 30  float
9.9999998e-03
9.9999998e-03
9.9999998e-03
9.9999998e-03
9.9999998e-03
9.9999998e-03
9.9999998e-03
9.9999998e-03
9.9999998e-03
9.9999998e-03
9.9999998e-03
9.9999998e-03
9.9999998e-03
9.9999998e-03
9.9999998e-03
9.9999998e-03
9.9999998e-03
9.9999998e-03
9.9999998e-03
9.9999998e-03
9.9999998e-03
9.9999998e-03
9.9999998e-03
9.9999998e-03
9.9999998e-03
9.9999998e-03
9.9999998e-03
9.9999998e-03
9.9999998e-03
9.9999998e-03
I22 1 30  float
1.5000001e-04
1.5000001e-04
1.5000001e-04
1.5000001e-04
1.5000001e-04
1.5000001e-04
1.5000001e-04
1.5000001e-04
1.5000001e-04
1.5000001e-04
1.5000001e-04
1.5000001e-04
1.5000001e-04
1.5000001e-04
1.5000001e-04
1.5000001e-04
1.5000001e-04
1.5000001e-04
1.5000001e-04
1.5000001e-04
1.5000001e-04
1.5000001e-04
1.5000001e-04
1.5000001e-04
1.5000001e-04
1.5000001e-04
1.5000001e-04
1.5000001e-04
1.5000001e-04
1.5000001e-04
I33 1 30  float
1.5000001e-04
1.5000001e-04
1.5000001e-04
1.5000001e-04
1.5000001e-04
1.5000001e-04
1.5000001e-04
1.5000001e-04
1.5000001e-04
1.5000001e-04
1.5000001e-04
1.5000001e-04
1.5000001e-04
1.5000001e-04
1.5000001e-04
1.5000001e-04
1.5000001e-04
1.5000001e-04
1.5000001e-04
1.5000001e-04
1.5000001e-04
1.5000001e-04
1.5000001e-04
1.5000001e-04
1.5000001e-04
1.5000001e-04
1.5000001e-04
1.5000001e-04
1.5000001e-04
1.5000001e-04
TORSIONAL_INERTIA 1 30  float
3.0000001e-04
3.0000001e-04
3.0000001e-04
3.0000001e-04
3.0000001e-04
3.0000001e-04
3.0000001e-04
3.0000001e-04
3.0000001e-04
3.0000001e-04
3.0000001e-04
3.0000001e-04
3.0000001e-04
3.0000001e-04
3.0000001e-04
3.0000001e-04
3.0000001e-04
3.0000001e-04
3.0000001e-04
3.0000001e-04
3.0000001e-04
3.0000001e-04
3.0000001e-04
3.0000001e-04
3.0000001e-04
3.0000001e-04
3.0000001e-04
3.0000001e-04
3.0000001e-04
3.0000001e-04
POISSON_RATIO 1 30  float
3.0000001e-01
3.0000001e-01
3.0000001e-01
3.0000001e-01
3.0000001e-01
3.0000001e-01
3.0000001e-01
3.0000001e-01
3.0000001e-01
3.0000001e-01
3.0000001e-01
3.0000001e-01
3.0000001e-01
3.0000001e-01
3.0000001e-01
3.0000001e-01
3.0000001e-01
3.0000001e-01
3.0000001e-01
3.0000001e-01
3.0000001e-01
3.0000001e-01
3.0000001e-01
3.0000001e-01
3.0000001e-01
3.0000001e-01
3.0000001e-01
3.0000001e-01
3.0000001e-01
3.0000001e-01
MOMENT 3 30  float
0.0000000e+00 -4.6353096e+03 0.0000000e+00 
0.0000000e+00 -1.3905930e+04 0.0000000e+00 
0.0000000e+00 -2.5170176e+04 0.0000000e+00 
0.0000000e+00 -3.8428051e+04 0.0000000e+00 
0.0000000e+00 -5.3456941e+04 0.0000000e+00 
0.0000000e+00 5.8510292e+01 0.0000000e+00 
0.0000000e+00 -8.8639961e+03 0.0000000e+00 
0.0000000e+00 -1.5412845e+04 0.0000000e+00 
0.0000000e+00 -2.1961693e+04 0.0000000e+00 
0.0000000e+00 -2.8510543e+04 0.0000000e+00 
0.0000000e+00 -5.1249707e+03 0.0000000e+00 
0.0000000e+00 -1.4848236e+04 0.0000000e+00 
0.0000000e+00 -2.6522141e+04 0.0000000e+00 
0.0000000e+00 -4.1236188e+04 0.0000000e+00 
0.0000000e+00 -5.4380383e+04 0.0000000e+00 
0.0000000e+00 1.4837552e+03 0.0000000e+00 
0.0000000e+00 -7.7911514e+03 0.0000000e+00 
0.0000000e+00 -1.4646650e+04 0.0000000e+00 
0.0000000e+00 -1.9472020e+04 0.0000000e+00 
0.0000000e+00 -2.0374367e+04 0.0000000e+00 
0.0000000e+00 -4.8835809e+04 0.0000000e+00 
0.0000000e+00 -2.1288014e+04 0.0000000e+00 
0.0000000e+00 -3.6477864e+03 0.0000000e+00 
0.0000000e+00 2.0683510e+04 0.0000000e+00 
0.0000000e+00 5.1705875e+04 0.0000000e+00 
0.0000000e+00 -2.4630025e+04 0.0000000e+00 
0.0000000e+00 -1.0320141e+04 0.0000000e+00 
0.0000000e+00 3.9897439e+03 0.0000000e+00 
0.0000000e+00 1.5383523e+04 0.0000000e+00 
0.0000000e+00 1.9750729e+04 0.0000000e+00 
FORCE 3 30  float
2.7932023e+04 0.0000000e+00 -1.1588274e+04 
2.7932023e+04 0.0000000e+00 -1.1588274e+04 
3.4019328e+04 0.0000000e+00 -1.6572344e+04 
3.4019328e+04 0.0000000e+00 -1.6572344e+04 
3.9505535e+04 0.0000000e+00 -2.0999881e+04 
1.5229079e+04 0.0000000e+00 -1.4120205e+04 
7.3142661e+03 0.0000000e+00 -8.1860610e+03 
7.3142661e+03 0.0000000e+00 -8.1860610e+03 
7.3142661e+03 0.0000000e+00 -8.1860610e+03 
7.3142661e+03 0.0000000e+00 -8.1860610e+03 
-3.9691665e+03 0.0000000e+00 -1.2812427e+04 
-8.4111465e+03 0.0000000e+00 -1.1495737e+04 
-3.3281174e+03 0.0000000e+00 -1.7689021e+04 
-4.1903662e+03 0.0000000e+00 -1.9096094e+04 
-1.3850801e+02 0.0000000e+00 -1.3764399e+04 
1.5372674e+04 0.0000000e+00 -1.4617893e+04 
6.6514683e+03 0.0000000e+00 -8.5693740e+03 
6.6514683e+03 0.0000000e+00 -8.5693740e+03 
8.4452852e+03 0.0000000e+00 -3.4940474e+03 
-9.9657727e+02 0.0000000e+00 1.2381768e+03 
1.5168207e+04 0.0000000e+00 1.8727680e+04 
8.4172080e+03 0.0000000e+00 8.8201133e+03 
8.4172080e+03 0.0000000e+00 8.8201133e+03 
8.5349323e+02 0.0000000e+00 1.5511183e+04 
8.5349323e+02 0.0000000e+00 1.5511183e+04 
1.4340563e+04 0.0000000e+00 7.1549424e+03 
1.4340563e+04 0.0000000e+00 7.1549424e+03 
1.4340563e+04 0.0000000e+00 7.1549424e+03 
1.8040645e+04 0.0000000e+00 4.2388374e+03 
1.0024433e+04 0.0000000e+00 1.2836752e+02 
