# vtk DataFile Version 4.0
vtk output
ASCII
DATASET UNSTRUCTURED_GRID
POINTS 212 float
0.0000000e+00 0.0000000e+00 0.0000000e+00 
0.0000000e+00 0.0000000e+00 2.5000000e-01 
0.0000000e+00 0.0000000e+00 5.0000000e-01 
0.0000000e+00 0.0000000e+00 7.5000000e-01 
0.0000000e+00 0.0000000e+00 1.0000000e+00 
0.0000000e+00 0.0000000e+00 1.2500000e+00 
0.0000000e+00 0.0000000e+00 1.5000000e+00 
0.0000000e+00 0.0000000e+00 1.7500000e+00 
0.0000000e+00 0.0000000e+00 2.0000000e+00 
0.0000000e+00 0.0000000e+00 2.2500000e+00 
0.0000000e+00 0.0000000e+00 2.5000000e+00 
0.0000000e+00 0.0000000e+00 2.7500000e+00 
0.0000000e+00 0.0000000e+00 3.0000000e+00 
0.0000000e+00 0.0000000e+00 3.2500000e+00 
0.0000000e+00 0.0000000e+00 3.5000000e+00 
0.0000000e+00 0.0000000e+00 3.7500000e+00 
0.0000000e+00 0.0000000e+00 4.0000000e+00 
0.0000000e+00 0.0000000e+00 4.2500000e+00 
0.0000000e+00 0.0000000e+00 4.5000000e+00 
0.0000000e+00 0.0000000e+00 4.7500000e+00 
0.0000000e+00 0.0000000e+00 5.0000000e+00 
0.0000000e+00 0.0000000e+00 5.2500000e+00 
0.0000000e+00 0.0000000e+00 5.5000000e+00 
0.0000000e+00 0.0000000e+00 5.7500000e+00 
0.0000000e+00 0.0000000e+00 6.0000000e+00 
0.0000000e+00 0.0000000e+00 6.2500000e+00 
0.0000000e+00 0.0000000e+00 6.5000000e+00 
0.0000000e+00 0.0000000e+00 6.7500000e+00 
0.0000000e+00 0.0000000e+00 7.0000000e+00 
0.0000000e+00 0.0000000e+00 7.2500000e+00 
0.0000000e+00 0.0000000e+00 7.5000000e+00 
0.0000000e+00 0.0000000e+00 7.7500000e+00 
0.0000000e+00 0.0000000e+00 8.0000000e+00 
0.0000000e+00 0.0000000e+00 8.2500000e+00 
0.0000000e+00 0.0000000e+00 8.5000000e+00 
0.0000000e+00 0.0000000e+00 8.7500000e+00 
0.0000000e+00 0.0000000e+00 9.0000000e+00 
0.0000000e+00 0.0000000e+00 9.2500000e+00 
0.0000000e+00 0.0000000e+00 9.5000000e+00 
0.0000000e+00 0.0000000e+00 9.7500000e+00 
0.0000000e+00 0.0000000e+00 1.0000000e+01 
0.0000000e+00 0.0000000e+00 1.0250000e+01 
0.0000000e+00 0.0000000e+00 1.0500000e+01 
0.0000000e+00 0.0000000e+00 1.0750000e+01 
0.0000000e+00 0.0000000e+00 1.1000000e+01 
0.0000000e+00 0.0000000e+00 1.1250000e+01 
0.0000000e+00 0.0000000e+00 1.1500000e+01 
0.0000000e+00 0.0000000e+00 1.1750000e+01 
0.0000000e+00 0.0000000e+00 1.2000000e+01 
0.0000000e+00 0.0000000e+00 1.2250000e+01 
0.0000000e+00 0.0000000e+00 1.2500000e+01 
0.0000000e+00 0.0000000e+00 1.2750000e+01 
0.0000000e+00 0.0000000e+00 1.3000000e+01 
0.0000000e+00 0.0000000e+00 1.3250000e+01 
0.0000000e+00 0.0000000e+00 1.3500000e+01 
0.0000000e+00 0.0000000e+00 1.3750000e+01 
0.0000000e+00 0.0000000e+00 1.4000000e+01 
0.0000000e+00 0.0000000e+00 1.4250000e+01 
0.0000000e+00 0.0000000e+00 1.4500000e+01 
0.0000000e+00 0.0000000e+00 1.4750000e+01 
0.0000000e+00 0.0000000e+00 1.5000000e+01 
0.0000000e+00 0.0000000e+00 1.5250000e+01 
0.0000000e+00 0.0000000e+00 1.5500000e+01 
0.0000000e+00 0.0000000e+00 1.5750000e+01 
0.0000000e+00 0.0000000e+00 1.6000000e+01 
0.0000000e+00 0.0000000e+00 1.6250000e+01 
0.0000000e+00 0.0000000e+00 1.6500000e+01 
0.0000000e+00 0.0000000e+00 1.6750000e+01 
0.0000000e+00 0.0000000e+00 1.7000000e+01 
0.0000000e+00 0.0000000e+00 1.7250000e+01 
0.0000000e+00 0.0000000e+00 1.7500000e+01 
0.0000000e+00 0.0000000e+00 1.7750000e+01 
0.0000000e+00 0.0000000e+00 1.8000000e+01 
5.0000000e-01 0.0000000e+00 3.0000000e+00 
5.0000000e-01 0.0000000e+00 6.0000000e+00 
5.0000000e-01 0.0000000e+00 9.0000000e+00 
5.0000000e-01 0.0000000e+00 1.2000000e+01 
5.0000000e-01 0.0000000e+00 1.5000000e+01 
5.0000000e-01 0.0000000e+00 1.8000000e+01 
1.0000000e+00 0.0000000e+00 3.0000000e+00 
1.0000000e+00 0.0000000e+00 6.0000000e+00 
1.0000000e+00 0.0000000e+00 9.0000000e+00 
1.0000000e+00 0.0000000e+00 1.2000000e+01 
1.0000000e+00 0.0000000e+00 1.5000000e+01 
1.0000000e+00 0.0000000e+00 1.8000000e+01 
1.5000000e+00 0.0000000e+00 3.0000000e+00 
1.5000000e+00 0.0000000e+00 6.0000000e+00 
1.5000000e+00 0.0000000e+00 9.0000000e+00 
1.5000000e+00 0.0000000e+00 1.2000000e+01 
1.5000000e+00 0.0000000e+00 1.5000000e+01 
1.5000000e+00 0.0000000e+00 1.8000000e+01 
2.0000000e+00 0.0000000e+00 3.0000000e+00 
2.0000000e+00 0.0000000e+00 6.0000000e+00 
2.0000000e+00 0.0000000e+00 9.0000000e+00 
2.0000000e+00 0.0000000e+00 1.2000000e+01 
2.0000000e+00 0.0000000e+00 1.5000000e+01 
2.0000000e+00 0.0000000e+00 1.8000000e+01 
2.5000000e+00 0.0000000e+00 3.0000000e+00 
2.5000000e+00 0.0000000e+00 6.0000000e+00 
2.5000000e+00 0.0000000e+00 9.0000000e+00 
2.5000000e+00 0.0000000e+00 1.2000000e+01 
2.5000000e+00 0.0000000e+00 1.5000000e+01 
2.5000000e+00 0.0000000e+00 1.8000000e+01 
3.0000000e+00 0.0000000e+00 3.0000000e+00 
3.0000000e+00 0.0000000e+00 6.0000000e+00 
3.0000000e+00 0.0000000e+00 9.0000000e+00 
3.0000000e+00 0.0000000e+00 1.2000000e+01 
3.0000000e+00 0.0000000e+00 1.5000000e+01 
3.0000000e+00 0.0000000e+00 1.8000000e+01 
3.5000000e+00 0.0000000e+00 3.0000000e+00 
3.5000000e+00 0.0000000e+00 6.0000000e+00 
3.5000000e+00 0.0000000e+00 9.0000000e+00 
3.5000000e+00 0.0000000e+00 1.2000000e+01 
3.5000000e+00 0.0000000e+00 1.5000000e+01 
3.5000000e+00 0.0000000e+00 1.8000000e+01 
4.0000000e+00 0.0000000e+00 3.0000000e+00 
4.0000000e+00 0.0000000e+00 6.0000000e+00 
4.0000000e+00 0.0000000e+00 9.0000000e+00 
4.0000000e+00 0.0000000e+00 1.2000000e+01 
4.0000000e+00 0.0000000e+00 1.5000000e+01 
4.0000000e+00 0.0000000e+00 1.8000000e+01 
4.5000000e+00 0.0000000e+00 3.0000000e+00 
4.5000000e+00 0.0000000e+00 6.0000000e+00 
4.5000000e+00 0.0000000e+00 9.0000000e+00 
4.5000000e+00 0.0000000e+00 1.2000000e+01 
4.5000000e+00 0.0000000e+00 1.5000000e+01 
4.5000000e+00 0.0000000e+00 1.8000000e+01 
5.0000000e+00 0.0000000e+00 3.0000000e+00 
5.0000000e+00 0.0000000e+00 6.0000000e+00 
5.0000000e+00 0.0000000e+00 9.0000000e+00 
5.0000000e+00 0.0000000e+00 1.2000000e+01 
5.0000000e+00 0.0000000e+00 1.5000000e+01 
5.0000000e+00 0.0000000e+00 1.8000000e+01 
5.5000000e+00 0.0000000e+00 3.0000000e+00 
5.5000000e+00 0.0000000e+00 6.0000000e+00 
5.5000000e+00 0.0000000e+00 9.0000000e+00 
5.5000000e+00 0.0000000e+00 1.2000000e+01 
5.5000000e+00 0.0000000e+00 1.5000000e+01 
5.5000000e+00 0.0000000e+00 1.8000000e+01 
6.0000000e+00 0.0000000e+00 0.0000000e+00 
6.0000000e+00 0.0000000e+00 2.5000000e-01 
6.0000000e+00 0.0000000e+00 5.0000000e-01 
6.0000000e+00 0.0000000e+00 7.5000000e-01 
6.0000000e+00 0.0000000e+00 1.0000000e+00 
6.0000000e+00 0.0000000e+00 1.2500000e+00 
6.0000000e+00 0.0000000e+00 1.5000000e+00 
6.0000000e+00 0.0000000e+00 1.7500000e+00 
6.0000000e+00 0.0000000e+00 2.0000000e+00 
6.0000000e+00 0.0000000e+00 2.2500000e+00 
6.0000000e+00 0.0000000e+00 2.5000000e+00 
6.0000000e+00 0.0000000e+00 2.7500000e+00 
6.0000000e+00 0.0000000e+00 3.0000000e+00 
6.0000000e+00 0.0000000e+00 3.2500000e+00 
6.0000000e+00 0.0000000e+00 3.5000000e+00 
6.0000000e+00 0.0000000e+00 3.7500000e+00 
6.0000000e+00 0.0000000e+00 4.0000000e+00 
6.0000000e+00 0.0000000e+00 4.2500000e+00 
6.0000000e+00 0.0000000e+00 4.5000000e+00 
6.0000000e+00 0.0000000e+00 4.7500000e+00 
6.0000000e+00 0.0000000e+00 5.0000000e+00 
6.0000000e+00 0.0000000e+00 5.2500000e+00 
6.0000000e+00 0.0000000e+00 5.5000000e+00 
6.0000000e+00 0.0000000e+00 5.7500000e+00 
6.0000000e+00 0.0000000e+00 6.0000000e+00 
6.0000000e+00 0.0000000e+00 6.2500000e+00 
6.0000000e+00 0.0000000e+00 6.5000000e+00 
6.0000000e+00 0.0000000e+00 6.7500000e+00 
6.0000000e+00 0.0000000e+00 7.0000000e+00 
6.0000000e+00 0.0000000e+00 7.2500000e+00 
6.0000000e+00 0.0000000e+00 7.5000000e+00 
6.0000000e+00 0.0000000e+00 7.7500000e+00 
6.0000000e+00 0.0000000e+00 8.0000000e+00 
6.0000000e+00 0.0000000e+00 8.2500000e+00 
6.0000000e+00 0.0000000e+00 8.5000000e+00 
6.0000000e+00 0.0000000e+00 8.7500000e+00 
6.0000000e+00 0.0000000e+00 9.0000000e+00 
6.0000000e+00 0.0000000e+00 9.2500000e+00 
6.0000000e+00 0.0000000e+00 9.5000000e+00 
6.0000000e+00 0.0000000e+00 9.7500000e+00 
6.0000000e+00 0.0000000e+00 1.0000000e+01 
6.0000000e+00 0.0000000e+00 1.0250000e+01 
6.0000000e+00 0.0000000e+00 1.0500000e+01 
6.0000000e+00 0.0000000e+00 1.0750000e+01 
6.0000000e+00 0.0000000e+00 1.1000000e+01 
6.0000000e+00 0.0000000e+00 1.1250000e+01 
6.0000000e+00 0.0000000e+00 1.1500000e+01 
6.0000000e+00 0.0000000e+00 1.1750000e+01 
6.0000000e+00 0.0000000e+00 1.2000000e+01 
6.0000000e+00 0.0000000e+00 1.2250000e+01 
6.0000000e+00 0.0000000e+00 1.2500000e+01 
6.0000000e+00 0.0000000e+00 1.2750000e+01 
6.0000000e+00 0.0000000e+00 1.3000000e+01 
6.0000000e+00 0.0000000e+00 1.3250000e+01 
6.0000000e+00 0.0000000e+00 1.3500000e+01 
6.0000000e+00 0.0000000e+00 1.3750000e+01 
6.0000000e+00 0.0000000e+00 1.4000000e+01 
6.0000000e+00 0.0000000e+00 1.4250000e+01 
6.0000000e+00 0.0000000e+00 1.4500000e+01 
6.0000000e+00 0.0000000e+00 1.4750000e+01 
6.0000000e+00 0.0000000e+00 1.5000000e+01 
6.0000000e+00 0.0000000e+00 1.5250000e+01 
6.0000000e+00 0.0000000e+00 1.5500000e+01 
6.0000000e+00 0.0000000e+00 1.5750000e+01 
6.0000000e+00 0.0000000e+00 1.6000000e+01 
6.0000000e+00 0.0000000e+00 1.6250000e+01 
6.0000000e+00 0.0000000e+00 1.6500000e+01 
6.0000000e+00 0.0000000e+00 1.6750000e+01 
6.0000000e+00 0.0000000e+00 1.7000000e+01 
6.0000000e+00 0.0000000e+00 1.7250000e+01 
6.0000000e+00 0.0000000e+00 1.7500000e+01 
6.0000000e+00 0.0000000e+00 1.7750000e+01 
6.0000000e+00 0.0000000e+00 1.8000000e+01 

CELLS 216 648
2 0 1
2 1 2
2 2 3
2 3 4
2 4 5
2 5 6
2 6 7
2 7 8
2 8 9
2 9 10
2 10 11
2 11 12
2 12 13
2 13 14
2 14 15
2 15 16
2 16 17
2 17 18
2 18 19
2 19 20
2 20 21
2 21 22
2 22 23
2 23 24
2 24 25
2 25 26
2 26 27
2 27 28
2 28 29
2 29 30
2 30 31
2 31 32
2 32 33
2 33 34
2 34 35
2 35 36
2 36 37
2 37 38
2 38 39
2 39 40
2 40 41
2 41 42
2 42 43
2 43 44
2 44 45
2 45 46
2 46 47
2 47 48
2 48 49
2 49 50
2 50 51
2 51 52
2 52 53
2 53 54
2 54 55
2 55 56
2 56 57
2 57 58
2 58 59
2 59 60
2 60 61
2 61 62
2 62 63
2 63 64
2 64 65
2 65 66
2 66 67
2 67 68
2 68 69
2 69 70
2 70 71
2 71 72
2 139 140
2 140 141
2 141 142
2 142 143
2 143 144
2 144 145
2 145 146
2 146 147
2 147 148
2 148 149
2 149 150
2 150 151
2 151 152
2 152 153
2 153 154
2 154 155
2 155 156
2 156 157
2 157 158
2 158 159
2 159 160
2 160 161
2 161 162
2 162 163
2 163 164
2 164 165
2 165 166
2 166 167
2 167 168
2 168 169
2 169 170
2 170 171
2 171 172
2 172 173
2 173 174
2 174 175
2 175 176
2 176 177
2 177 178
2 178 179
2 179 180
2 180 181
2 181 182
2 182 183
2 183 184
2 184 185
2 185 186
2 186 187
2 187 188
2 188 189
2 189 190
2 190 191
2 191 192
2 192 193
2 193 194
2 194 195
2 195 196
2 196 197
2 197 198
2 198 199
2 199 200
2 200 201
2 201 202
2 202 203
2 203 204
2 204 205
2 205 206
2 206 207
2 207 208
2 208 209
2 209 210
2 210 211
2 12 73
2 73 79
2 79 85
2 85 91
2 91 97
2 97 103
2 103 109
2 109 115
2 115 121
2 121 127
2 127 133
2 133 151
2 24 74
2 74 80
2 80 86
2 86 92
2 92 98
2 98 104
2 104 110
2 110 116
2 116 122
2 122 128
2 128 134
2 134 163
2 36 75
2 75 81
2 81 87
2 87 93
2 93 99
2 99 105
2 105 111
2 111 117
2 117 123
2 123 129
2 129 135
2 135 175
2 48 76
2 76 82
2 82 88
2 88 94
2 94 100
2 100 106
2 106 112
2 112 118
2 118 124
2 124 130
2 130 136
2 136 187
2 60 77
2 77 83
2 83 89
2 89 95
2 95 101
2 101 107
2 107 113
2 113 119
2 119 125
2 125 131
2 131 137
2 137 199
2 72 78
2 78 84
2 84 90
2 90 96
2 96 102
2 102 108
2 108 114
2 114 120
2 120 126
2 126 132
2 132 138
2 138 211

CELL_TYPES 216
3
3
3
3
3
3
3
3
3
3
3
3
3
3
3
3
3
3
3
3
3
3
3
3
3
3
3
3
3
3
3
3
3
3
3
3
3
3
3
3
3
3
3
3
3
3
3
3
3
3
3
3
3
3
3
3
3
3
3
3
3
3
3
3
3
3
3
3
3
3
3
3
3
3
3
3
3
3
3
3
3
3
3
3
3
3
3
3
3
3
3
3
3
3
3
3
3
3
3
3
3
3
3
3
3
3
3
3
3
3
3
3
3
3
3
3
3
3
3
3
3
3
3
3
3
3
3
3
3
3
3
3
3
3
3
3
3
3
3
3
3
3
3
3
3
3
3
3
3
3
3
3
3
3
3
3
3
3
3
3
3
3
3
3
3
3
3
3
3
3
3
3
3
3
3
3
3
3
3
3
3
3
3
3
3
3
3
3
3
3
3
3
3
3
3
3
3
3
3
3
3
3
3
3
3
3
3
3
3
3
3
3
3
3
3
3
POINT_DATA 212
FIELD FieldData 8
DISPLACEMENT 3 212  float
0.0000000e+00 0.0000000e+00 0.0000000e+00 
-1.6167143e-03 0.0000000e+00 -2.7278758e-05 
-3.1656181e-03 0.0000000e+00 -5.4367887e-05 
-4.5789010e-03 0.0000000e+00 -8.1267382e-05 
-5.7887528e-03 0.0000000e+00 -1.0797725e-04 
-6.7273630e-03 0.0000000e+00 -1.3449747e-04 
-7.3269210e-03 0.0000000e+00 -1.6082809e-04 
-7.5196163e-03 0.0000000e+00 -1.8696905e-04 
-7.2376388e-03 0.0000000e+00 -2.1292039e-04 
-6.4131781e-03 0.0000000e+00 -2.3868210e-04 
-4.9784235e-03 0.0000000e+00 -2.6425417e-04 
-2.8655648e-03 0.0000000e+00 -2.8963661e-04 
-6.7912224e-06 0.0000000e+00 -3.1482943e-04 
2.5659041e-03 0.0000000e+00 -3.3754593e-04 
3.9245952e-03 0.0000000e+00 -3.6007279e-04 
4.2931931e-03 0.0000000e+00 -3.8241001e-04 
3.8956085e-03 0.0000000e+00 -4.0455762e-04 
2.9557522e-03 0.0000000e+00 -4.2651559e-04 
1.6975349e-03 0.0000000e+00 -4.4828394e-04 
3.4486741e-04 0.0000000e+00 -4.6986266e-04 
-8.7833952e-04 0.0000000e+00 -4.9125170e-04 
-1.7481751e-03 0.0000000e+00 -5.1245117e-04 
-2.0407285e-03 0.0000000e+00 -5.3346099e-04 
-1.5320890e-03 0.0000000e+00 -5.5428117e-04 
1.6541688e-06 0.0000000e+00 -5.7491171e-04 
1.6050298e-03 0.0000000e+00 -5.9306592e-04 
2.2972184e-03 0.0000000e+00 -6.1103055e-04 
2.2641090e-03 0.0000000e+00 -6.2880554e-04 
1.6915898e-03 0.0000000e+00 -6.4639084e-04 
7.6555001e-04 0.0000000e+00 -6.6378654e-04 
-3.2812197e-04 0.0000000e+00 -6.8099261e-04 
-1.4035373e-03 0.0000000e+00 -6.9800910e-04 
-2.2748073e-03 0.0000000e+00 -7.1483589e-04 
-2.7560433e-03 0.0000000e+00 -7.3147309e-04 
-2.6613567e-03 0.0000000e+00 -7.4792065e-04 
-1.8048586e-03 0.0000000e+00 -7.6417858e-04 
-6.6036449e-07 0.0000000e+00 -7.8024686e-04 
1.7757397e-03 0.0000000e+00 -7.9383882e-04 
2.5589629e-03 0.0000000e+00 -8.0724113e-04 
2.5500765e-03 0.0000000e+00 -8.2045386e-04 
1.9501480e-03 0.0000000e+00 -8.3347695e-04 
9.6024532e-04 0.0000000e+00 -8.4631040e-04 
-2.1856409e-04 0.0000000e+00 -8.5895421e-04 
-1.3852126e-03 0.0000000e+00 -8.7140838e-04 
-2.3386329e-03 0.0000000e+00 -8.8367291e-04 
-2.8777570e-03 0.0000000e+00 -8.9574786e-04 
-2.8015175e-03 0.0000000e+00 -9.0763316e-04 
-1.9088470e-03 0.0000000e+00 -9.1932877e-04 
1.3223440e-06 0.0000000e+00 -9.3083479e-04 
1.9671558e-03 0.0000000e+00 -9.3986455e-04 
3.0065558e-03 0.0000000e+00 -9.4870460e-04 
3.2901948e-03 0.0000000e+00 -9.5735508e-04 
2.9887457e-03 0.0000000e+00 -9.6581585e-04 
2.2728811e-03 0.0000000e+00 -9.7408704e-04 
1.3132736e-03 0.0000000e+00 -9.8216860e-04 
2.8059597e-04 0.0000000e+00 -9.9006051e-04 
-6.5447896e-04 0.0000000e+00 -9.9776278e-04 
-1.3212786e-03 0.0000000e+00 -1.0052755e-03 
-1.5491302e-03 0.0000000e+00 -1.0125985e-03 
-1.1673610e-03 0.0000000e+00 -1.0197319e-03 
-5.2984542e-06 0.0000000e+00 -1.0266757e-03 
9.3365693e-04 0.0000000e+00 -1.0311431e-03 
7.2729657e-04 0.0000000e+00 -1.0354209e-03 
-3.3191859e-04 0.0000000e+00 -1.0395091e-03 
-1.9515277e-03 0.0000000e+00 -1.0434076e-03 
-3.8390700e-03 0.0000000e+00 -1.0471166e-03 
-5.7020844e-03 0.0000000e+00 -1.0506358e-03 
-7.2481097e-03 0.0000000e+00 -1.0539655e-03 
-8.1846863e-03 0.0000000e+00 -1.0571055e-03 
-8.2193511e-03 0.0000000e+00 -1.0600559e-03 
-7.0596458e-03 0.0000000e+00 -1.0628167e-03 
-4.4131074e-03 0.0000000e+00 -1.0653879e-03 
1.2723654e-05 0.0000000e+00 -1.0677694e-03 
-5.6593517e-06 0.0000000e+00 -1.0521015e-02 
1.3784741e-06 0.0000000e+00 -8.7031936e-03 
-5.5030375e-07 0.0000000e+00 -9.3101738e-03 
1.1019534e-06 0.0000000e+00 -9.7283004e-03 
-4.4153785e-06 0.0000000e+00 -8.2165990e-03 
1.0603045e-05 0.0000000e+00 -1.5231445e-02 
-4.5274815e-06 0.0000000e+00 -2.5178829e-02 
1.1027793e-06 0.0000000e+00 -2.1660903e-02 
-4.4024301e-07 0.0000000e+00 -2.2596505e-02 
8.8156270e-07 0.0000000e+00 -2.3233525e-02 
-3.5323028e-06 0.0000000e+00 -2.0406563e-02 
8.4824360e-06 0.0000000e+00 -3.3127204e-02 
-3.3956112e-06 0.0000000e+00 -4.0503893e-02 
8.2708442e-07 0.0000000e+00 -3.5663664e-02 
-3.3018225e-07 0.0000000e+00 -3.6854856e-02 
6.6117207e-07 0.0000000e+00 -3.7662130e-02 
-2.6492271e-06 0.0000000e+00 -3.3812188e-02 
6.3618268e-06 0.0000000e+00 -5.0970670e-02 
-2.2637407e-06 0.0000000e+00 -5.3552799e-02 
5.5138963e-07 0.0000000e+00 -4.7768071e-02 
-2.2012149e-07 0.0000000e+00 -4.9141828e-02 
4.4078138e-07 0.0000000e+00 -5.0070710e-02 
-1.7661514e-06 0.0000000e+00 -4.5490064e-02 
4.2412180e-06 0.0000000e+00 -6.5818436e-02 
-1.1318704e-06 0.0000000e+00 -6.2223118e-02 
2.7569482e-07 0.0000000e+00 -5.5871688e-02 
-1.1006074e-07 0.0000000e+00 -5.7354983e-02 
2.2039070e-07 0.0000000e+00 -5.8356833e-02 
-8.8307570e-07 0.0000000e+00 -5.3337764e-02 
2.1206090e-06 0.0000000e+00 -7.5568072e-02 
-5.3439042e-15 0.0000000e+00 -6.5253384e-02 
4.8460009e-15 0.0000000e+00 -5.8713056e-02 
1.6460952e-14 0.0000000e+00 -6.0232867e-02 
2.8992267e-14 0.0000000e+00 -6.1259035e-02 
4.0776776e-14 0.0000000e+00 -5.6093827e-02 
4.6100320e-14 0.0000000e+00 -7.8958109e-02 
1.1318704e-06 0.0000000e+00 -6.2223118e-02 
-2.7569479e-07 0.0000000e+00 -5.5871688e-02 
1.1006077e-07 0.0000000e+00 -5.7354983e-02 
-2.2039065e-07 0.0000000e+00 -5.8356833e-02 
8.8307576e-07 0.0000000e+00 -5.3337764e-02 
-2.1206090e-06 0.0000000e+00 -7.5568072e-02 
2.2637407e-06 0.0000000e+00 -5.3552799e-02 
-5.5138963e-07 0.0000000e+00 -4.7768071e-02 
2.2012152e-07 0.0000000e+00 -4.9141828e-02 
-4.4078132e-07 0.0000000e+00 -5.0070710e-02 
1.7661515e-06 0.0000000e+00 -4.5490064e-02 
-4.2412180e-06 0.0000000e+00 -6.5818436e-02 
3.3956112e-06 0.0000000e+00 -4.0503893e-02 
-8.2708442e-07 0.0000000e+00 -3.5663664e-02 
3.3018227e-07 0.0000000e+00 -3.6854856e-02 
-6.6117201e-07 0.0000000e+00 -3.7662130e-02 
2.6492271e-06 0.0000000e+00 -3.3812188e-02 
-6.3618268e-06 0.0000000e+00 -5.0970670e-02 
4.5274815e-06 0.0000000e+00 -2.5178829e-02 
-1.1027793e-06 0.0000000e+00 -2.1660903e-02 
4.4024304e-07 0.0000000e+00 -2.2596505e-02 
-8.8156264e-07 0.0000000e+00 -2.3233525e-02 
3.5323030e-06 0.0000000e+00 -2.0406563e-02 
-8.4824360e-06 0.0000000e+00 -3.3127204e-02 
5.6593517e-06 0.0000000e+00 -1.0521015e-02 
-1.3784741e-06 0.0000000e+00 -8.7031936e-03 
5.5030381e-07 0.0000000e+00 -9.3101738e-03 
-1.1019533e-06 0.0000000e+00 -9.7283004e-03 
4.4153785e-06 0.0000000e+00 -8.2165990e-03 
-1.0603045e-05 0.0000000e+00 -1.5231445e-02 
0.0000000e+00 0.0000000e+00 0.0000000e+00 
1.6167143e-03 0.0000000e+00 -2.7278758e-05 
3.1656181e-03 0.0000000e+00 -5.4367887e-05 
4.5789010e-03 0.0000000e+00 -8.1267382e-05 
5.7887528e-03 0.0000000e+00 -1.0797725e-04 
6.7273630e-03 0.0000000e+00 -1.3449747e-04 
7.3269210e-03 0.0000000e+00 -1.6082809e-04 
7.5196163e-03 0.0000000e+00 -1.8696905e-04 
7.2376388e-03 0.0000000e+00 -2.1292039e-04 
6.4131781e-03 0.0000000e+00 -2.3868210e-04 
4.9784235e-03 0.0000000e+00 -2.6425417e-04 
2.8655648e-03 0.0000000e+00 -2.8963661e-04 
6.7912224e-06 0.0000000e+00 -3.1482943e-04 
-2.5659041e-03 0.0000000e+00 -3.3754593e-04 
-3.9245952e-03 0.0000000e+00 -3.6007279e-04 
-4.2931931e-03 0.0000000e+00 -3.8241001e-04 
-3.8956085e-03 0.0000000e+00 -4.0455762e-04 
-2.9557522e-03 0.0000000e+00 -4.2651559e-04 
-1.6975349e-03 0.0000000e+00 -4.4828394e-04 
-3.4486741e-04 0.0000000e+00 -4.6986266e-04 
8.7833952e-04 0.0000000e+00 -4.9125170e-04 
1.7481751e-03 0.0000000e+00 -5.1245117e-04 
2.0407285e-03 0.0000000e+00 -5.3346099e-04 
1.5320890e-03 0.0000000e+00 -5.5428117e-04 
-1.6541688e-06 0.0000000e+00 -5.7491171e-04 
-1.6050298e-03 0.0000000e+00 -5.9306592e-04 
-2.2972184e-03 0.0000000e+00 -6.1103055e-04 
-2.2641090e-03 0.0000000e+00 -6.2880554e-04 
-1.6915898e-03 0.0000000e+00 -6.4639084e-04 
-7.6555001e-04 0.0000000e+00 -6.6378654e-04 
3.2812197e-04 0.0000000e+00 -6.8099261e-04 
1.4035373e-03 0.0000000e+00 -6.9800910e-04 
2.2748073e-03 0.0000000e+00 -7.1483589e-04 
2.7560433e-03 0.0000000e+00 -7.3147309e-04 
2.6613567e-03 0.0000000e+00 -7.4792065e-04 
1.8048586e-03 0.0000000e+00 -7.6417858e-04 
6.6036455e-07 0.0000000e+00 -7.8024686e-04 
-1.7757397e-03 0.0000000e+00 -7.9383882e-04 
-2.5589629e-03 0.0000000e+00 -8.0724113e-04 
-2.5500765e-03 0.0000000e+00 -8.2045386e-04 
-1.9501480e-03 0.0000000e+00 -8.3347695e-04 
-9.6024532e-04 0.0000000e+00 -8.4631040e-04 
2.1856409e-04 0.0000000e+00 -8.5895421e-04 
1.3852126e-03 0.0000000e+00 -8.7140838e-04 
2.3386329e-03 0.0000000e+00 -8.8367291e-04 
2.8777570e-03 0.0000000e+00 -8.9574786e-04 
2.8015175e-03 0.0000000e+00 -9.0763316e-04 
1.9088470e-03 0.0000000e+00 -9.1932877e-04 
-1.3223440e-06 0.0000000e+00 -9.3083479e-04 
-1.9671558e-03 0.0000000e+00 -9.3986455e-04 
-3.0065558e-03 0.0000000e+00 -9.4870460e-04 
-3.2901948e-03 0.0000000e+00 -9.5735508e-04 
-2.9887457e-03 0.0000000e+00 -9.6581585e-04 
-2.2728811e-03 0.0000000e+00 -9.7408704e-04 
-1.3132736e-03 0.0000000e+00 -9.8216860e-04 
-2.8059597e-04 0.0000000e+00 -9.9006051e-04 
6.5447896e-04 0.0000000e+00 -9.9776278e-04 
1.3212786e-03 0.0000000e+00 -1.0052755e-03 
1.5491302e-03 0.0000000e+00 -1.0125985e-03 
1.1673610e-03 0.0000000e+00 -1.0197319e-03 
5.2984542e-06 0.0000000e+00 -1.0266757e-03 
-9.3365693e-04 0.0000000e+00 -1.0311431e-03 
-7.2729657e-04 0.0000000e+00 -1.0354209e-03 
3.3191859e-04 0.0000000e+00 -1.0395091e-03 
1.9515277e-03 0.0000000e+00 -1.0434076e-03 
3.8390700e-03 0.0000000e+00 -1.0471166e-03 
5.7020844e-03 0.0000000e+00 -1.0506358e-03 
7.2481097e-03 0.0000000e+00 -1.0539655e-03 
8.1846863e-03 0.0000000e+00 -1.0571055e-03 
8.2193511e-03 0.0000000e+00 -1.0600559e-03 
7.0596458e-03 0.0000000e+00 -1.0628167e-03 
4.4131074e-03 0.0000000e+00 -1.0653879e-03 
-1.2723654e-05 0.0000000e+00 -1.0677694e-03 
ROTATION 3 212  float
0.0000000e+00 -6.5120640e-03 0.0000000e+00 
0.0000000e+00 -6.3764434e-03 0.0000000e+00 
0.0000000e+00 -5.9695807e-03 0.0000000e+00 
0.0000000e+00 -5.2914764e-03 0.0000000e+00 
0.0000000e+00 -4.3421309e-03 0.0000000e+00 
0.0000000e+00 -3.1215430e-03 0.0000000e+00 
0.0000000e+00 -1.6297138e-03 0.0000000e+00 
0.0000000e+00 1.3335710e-04 0.0000000e+00 
0.0000000e+00 2.1676698e-03 0.0000000e+00 
0.0000000e+00 4.4732238e-03 0.0000000e+00 
0.0000000e+00 7.0500202e-03 0.0000000e+00 
0.0000000e+00 9.8980572e-03 0.0000000e+00 
0.0000000e+00 1.3017337e-02 0.0000000e+00 
0.0000000e+00 7.7134990e-03 0.0000000e+00 
0.0000000e+00 3.3053043e-03 0.0000000e+00 
0.0000000e+00 -2.0724723e-04 0.0000000e+00 
0.0000000e+00 -2.8241558e-03 0.0000000e+00 
0.0000000e+00 -4.5454213e-03 0.0000000e+00 
0.0000000e+00 -5.3710435e-03 0.0000000e+00 
0.0000000e+00 -5.3010229e-03 0.0000000e+00 
0.0000000e+00 -4.3353587e-03 0.0000000e+00 
0.0000000e+00 -2.4740519e-03 0.0000000e+00 
0.0000000e+00 2.8289828e-04 0.0000000e+00 
0.0000000e+00 3.9354917e-03 0.0000000e+00 
0.0000000e+00 8.4837275e-03 0.0000000e+00 
0.0000000e+00 4.4672028e-03 0.0000000e+00 
0.0000000e+00 1.1942325e-03 0.0000000e+00 
0.0000000e+00 -1.3351829e-03 0.0000000e+00 
0.0000000e+00 -3.1210436e-03 0.0000000e+00 
0.0000000e+00 -4.1633495e-03 0.0000000e+00 
0.0000000e+00 -4.4621006e-03 0.0000000e+00 
0.0000000e+00 -4.0172967e-03 0.0000000e+00 
0.0000000e+00 -2.8289380e-03 0.0000000e+00 
0.0000000e+00 -8.9702453e-04 0.0000000e+00 
0.0000000e+00 1.7784438e-03 0.0000000e+00 
0.0000000e+00 5.1974668e-03 0.0000000e+00 
0.0000000e+00 9.3600452e-03 0.0000000e+00 
0.0000000e+00 4.9852012e-03 0.0000000e+00 
0.0000000e+00 1.4146281e-03 0.0000000e+00 
0.0000000e+00 -1.3516747e-03 0.0000000e+00 
0.0000000e+00 -3.3137072e-03 0.0000000e+00 
0.0000000e+00 -4.4714692e-03 0.0000000e+00 
0.0000000e+00 -4.8249611e-03 0.0000000e+00 
0.0000000e+00 -4.3741828e-03 0.0000000e+00 
0.0000000e+00 -3.1191336e-03 0.0000000e+00 
0.0000000e+00 -1.0598146e-03 0.0000000e+00 
0.0000000e+00 1.8037750e-03 0.0000000e+00 
0.0000000e+00 5.4716347e-03 0.0000000e+00 
0.0000000e+00 9.9437647e-03 0.0000000e+00 
0.0000000e+00 5.8966852e-03 0.0000000e+00 
0.0000000e+00 2.5322961e-03 0.0000000e+00 
0.0000000e+00 -1.4940210e-04 0.0000000e+00 
0.0000000e+00 -2.1484096e-03 0.0000000e+00 
0.0000000e+00 -3.4647260e-03 0.0000000e+00 
0.0000000e+00 -4.0983520e-03 0.0000000e+00 
0.0000000e+00 -4.0492867e-03 0.0000000e+00 
0.0000000e+00 -3.3175310e-03 0.0000000e+00 
0.0000000e+00 -1.9030842e-03 0.0000000e+00 
0.0000000e+00 1.9405330e-04 0.0000000e+00 
0.0000000e+00 2.9738816e-03 0.0000000e+00 
0.0000000e+00 6.4364006e-03 0.0000000e+00 
0.0000000e+00 1.2702162e-03 0.0000000e+00 
0.0000000e+00 -2.7261251e-03 0.0000000e+00 
0.0000000e+00 -5.5526225e-03 0.0000000e+00 
0.0000000e+00 -7.2092763e-03 0.0000000e+00 
0.0000000e+00 -7.6960870e-03 0.0000000e+00 
0.0000000e+00 -7.0130541e-03 0.0000000e+00 
0.0000000e+00 -5.1601771e-03 0.0000000e+00 
0.0000000e+00 -2.1374570e-03 0.0000000e+00 
0.0000000e+00 2.0551067e-03 0.0000000e+00 
0.0000000e+00 7.4175140e-03 0.0000000e+00 
0.0000000e+00 1.3949765e-02 0.0000000e+00 
0.0000000e+00 2.1651858e-02 0.0000000e+00 
0.0000000e+00 2.6265623e-02 0.0000000e+00 
0.0000000e+00 2.2487614e-02 0.0000000e+00 
0.0000000e+00 2.3217879e-02 0.0000000e+00 
0.0000000e+00 2.3704313e-02 0.0000000e+00 
0.0000000e+00 2.0781510e-02 0.0000000e+00 
0.0000000e+00 3.3461057e-02 0.0000000e+00 
0.0000000e+00 3.1104175e-02 0.0000000e+00 
0.0000000e+00 2.8081769e-02 0.0000000e+00 
0.0000000e+00 2.8665980e-02 0.0000000e+00 
0.0000000e+00 2.9055128e-02 0.0000000e+00 
0.0000000e+00 2.6716884e-02 0.0000000e+00 
0.0000000e+00 3.6860526e-02 0.0000000e+00 
0.0000000e+00 2.9214945e-02 0.0000000e+00 
0.0000000e+00 2.6948139e-02 0.0000000e+00 
0.0000000e+00 2.7386298e-02 0.0000000e+00 
0.0000000e+00 2.7678158e-02 0.0000000e+00 
0.0000000e+00 2.5924476e-02 0.0000000e+00 
0.0000000e+00 3.3532206e-02 0.0000000e+00 
0.0000000e+00 2.2279873e-02 0.0000000e+00 
0.0000000e+00 2.0768670e-02 0.0000000e+00 
0.0000000e+00 2.1060776e-02 0.0000000e+00 
0.0000000e+00 2.1255350e-02 0.0000000e+00 
0.0000000e+00 2.0086227e-02 0.0000000e+00 
0.0000000e+00 2.5158048e-02 0.0000000e+00 
0.0000000e+00 1.1980910e-02 0.0000000e+00 
0.0000000e+00 1.1225308e-02 0.0000000e+00 
0.0000000e+00 1.1371361e-02 0.0000000e+00 
0.0000000e+00 1.1468648e-02 0.0000000e+00 
0.0000000e+00 1.0884088e-02 0.0000000e+00 
0.0000000e+00 1.3419997e-02 0.0000000e+00 
0.0000000e+00 -8.7719267e-16 0.0000000e+00 
0.0000000e+00 -9.5693748e-16 0.0000000e+00 
0.0000000e+00 -1.5550233e-15 0.0000000e+00 
0.0000000e+00 -9.9680987e-16 0.0000000e+00 
0.0000000e+00 -1.2759165e-15 0.0000000e+00 
0.0000000e+00 -1.4791686e-16 0.0000000e+00 
0.0000000e+00 -1.1980910e-02 0.0000000e+00 
0.0000000e+00 -1.1225308e-02 0.0000000e+00 
0.0000000e+00 -1.1371361e-02 0.0000000e+00 
0.0000000e+00 -1.1468648e-02 0.0000000e+00 
0.0000000e+00 -1.0884088e-02 0.0000000e+00 
0.0000000e+00 -1.3419997e-02 0.0000000e+00 
0.0000000e+00 -2.2279873e-02 0.0000000e+00 
0.0000000e+00 -2.0768670e-02 0.0000000e+00 
0.0000000e+00 -2.1060776e-02 0.0000000e+00 
0.0000000e+00 -2.1255350e-02 0.0000000e+00 
0.0000000e+00 -2.0086227e-02 0.0000000e+00 
0.0000000e+00 -2.5158048e-02 0.0000000e+00 
0.0000000e+00 -2.9214945e-02 0.0000000e+00 
0.0000000e+00 -2.6948139e-02 0.0000000e+00 
0.0000000e+00 -2.7386298e-02 0.0000000e+00 
0.0000000e+00 -2.7678158e-02 0.0000000e+00 
0.0000000e+00 -2.5924476e-02 0.0000000e+00 
0.0000000e+00 -3.3532206e-02 0.0000000e+00 
0.0000000e+00 -3.1104175e-02 0.0000000e+00 
0.0000000e+00 -2.8081769e-02 0.0000000e+00 
0.0000000e+00 -2.8665980e-02 0.0000000e+00 
0.0000000e+00 -2.9055128e-02 0.0000000e+00 
0.0000000e+00 -2.6716884e-02 0.0000000e+00 
0.0000000e+00 -3.6860526e-02 0.0000000e+00 
0.0000000e+00 -2.6265623e-02 0.0000000e+00 
0.0000000e+00 -2.2487614e-02 0.0000000e+00 
0.0000000e+00 -2.3217879e-02 0.0000000e+00 
0.0000000e+00 -2.3704313e-02 0.0000000e+00 
0.0000000e+00 -2.0781510e-02 0.0000000e+00 
0.0000000e+00 -3.3461057e-02 0.0000000e+00 
0.0000000e+00 6.5120640e-03 0.0000000e+00 
0.0000000e+00 6.3764434e-03 0.0000000e+00 
0.0000000e+00 5.9695807e-03 0.0000000e+00 
0.0000000e+00 5.2914764e-03 0.0000000e+00 
0.0000000e+00 4.3421309e-03 0.0000000e+00 
0.0000000e+00 3.1215430e-03 0.0000000e+00 
0.0000000e+00 1.6297138e-03 0.0000000e+00 
0.0000000e+00 -1.3335710e-04 0.0000000e+00 
0.0000000e+00 -2.1676698e-03 0.0000000e+00 
0.0000000e+00 -4.4732238e-03 0.0000000e+00 
0.0000000e+00 -7.0500202e-03 0.0000000e+00 
0.0000000e+00 -9.8980572e-03 0.0000000e+00 
0.0000000e+00 -1.3017337e-02 0.0000000e+00 
0.0000000e+00 -7.7134990e-03 0.0000000e+00 
0.0000000e+00 -3.3053043e-03 0.0000000e+00 
0.0000000e+00 2.0724723e-04 0.0000000e+00 
0.0000000e+00 2.8241558e-03 0.0000000e+00 
0.0000000e+00 4.5454213e-03 0.0000000e+00 
0.0000000e+00 5.3710435e-03 0.0000000e+00 
0.0000000e+00 5.3010229e-03 0.0000000e+00 
0.0000000e+00 4.3353587e-03 0.0000000e+00 
0.0000000e+00 2.4740519e-03 0.0000000e+00 
0.0000000e+00 -2.8289828e-04 0.0000000e+00 
0.0000000e+00 -3.9354917e-03 0.0000000e+00 
0.0000000e+00 -8.4837275e-03 0.0000000e+00 
0.0000000e+00 -4.4672028e-03 0.0000000e+00 
0.0000000e+00 -1.1942325e-03 0.0000000e+00 
0.0000000e+00 1.3351829e-03 0.0000000e+00 
0.0000000e+00 3.1210436e-03 0.0000000e+00 
0.0000000e+00 4.1633495e-03 0.0000000e+00 
0.0000000e+00 4.4621006e-03 0.0000000e+00 
0.0000000e+00 4.0172967e-03 0.0000000e+00 
0.0000000e+00 2.8289380e-03 0.0000000e+00 
0.0000000e+00 8.9702453e-04 0.0000000e+00 
0.0000000e+00 -1.7784438e-03 0.0000000e+00 
0.0000000e+00 -5.1974668e-03 0.0000000e+00 
0.0000000e+00 -9.3600452e-03 0.0000000e+00 
0.0000000e+00 -4.9852012e-03 0.0000000e+00 
0.0000000e+00 -1.4146281e-03 0.0000000e+00 
0.0000000e+00 1.3516747e-03 0.0000000e+00 
0.0000000e+00 3.3137072e-03 0.0000000e+00 
0.0000000e+00 4.4714692e-03 0.0000000e+00 
0.0000000e+00 4.8249611e-03 0.0000000e+00 
0.0000000e+00 4.3741828e-03 0.0000000e+00 
0.0000000e+00 3.1191336e-03 0.0000000e+00 
0.0000000e+00 1.0598146e-03 0.0000000e+00 
0.0000000e+00 -1.8037750e-03 0.0000000e+00 
0.0000000e+00 -5.4716347e-03 0.0000000e+00 
0.0000000e+00 -9.9437647e-03 0.0000000e+00 
0.0000000e+00 -5.8966852e-03 0.0000000e+00 
0.0000000e+00 -2.5322961e-03 0.0000000e+00 
0.0000000e+00 1.4940210e-04 0.0000000e+00 
0.0000000e+00 2.1484096e-03 0.0000000e+00 
0.0000000e+00 3.4647260e-03 0.0000000e+00 
0.0000000e+00 4.0983520e-03 0.0000000e+00 
0.0000000e+00 4.0492867e-03 0.0000000e+00 
0.0000000e+00 3.3175310e-03 0.0000000e+00 
0.0000000e+00 1.9030842e-03 0.0000000e+00 
0.0000000e+00 -1.9405330e-04 0.0000000e+00 
0.0000000e+00 -2.9738816e-03 0.0000000e+00 
0.0000000e+00 -6.4364006e-03 0.0000000e+00 
0.0000000e+00 -1.2702162e-03 0.0000000e+00 
0.0000000e+00 2.7261251e-03 0.0000000e+00 
0.0000000e+00 5.5526225e-03 0.0000000e+00 
0.0000000e+00 7.2092763e-03 0.0000000e+00 