# vtk DataFile Version 4.0
vtk output
ASCII
DATASET UNSTRUCTURED_GRID
POINTS 212 float
0.0000000e+00 0.0000000e+00 0.0000000e+00 
0.0000000e+00 0.0000000e+00 2.5000000e-01 
0.0000000e+00 0.0000000e+00 5.0000000e-01 
0.0000000e+00 0.0000000e+00 7.5000000e-01 
0.0000000e+00 0.0000000e+00 1.0000000e+00 
0.0000000e+00 0.0000000e+00 1.2500000e+00 
0.0000000e+00 0.0000000e+00 1.5000000e+00 
0.0000000e+00 0.0000000e+00 1.7500000e+00 
0.0000000e+00 0.0000000e+00 2.0000000e+00 
0.0000000e+00 0.0000000e+00 2.2500000e+00 
0.0000000e+00 0.0000000e+00 2.5000000e+00 
0.0000000e+00 0.0000000e+00 2.7500000e+00 
0.0000000e+00 0.0000000e+00 3.0000000e+00 
0.0000000e+00 0.0000000e+00 3.2500000e+00 
0.0000000e+00 0.0000000e+00 3.5000000e+00 
0.0000000e+00 0.0000000e+00 3.7500000e+00 
0.0000000e+00 0.0000000e+00 4.0000000e+00 
0.0000000e+00 0.0000000e+00 4.2500000e+00 
0.0000000e+00 0.0000000e+00 4.5000000e+00 
0.0000000e+00 0.0000000e+00 4.7500000e+00 
0.0000000e+00 0.0000000e+00 5.0000000e+00 
0.0000000e+00 0.0000000e+00 5.2500000e+00 
0.0000000e+00 0.0000000e+00 5.5000000e+00 
0.0000000e+00 0.0000000e+00 5.7500000e+00 
0.0000000e+00 0.0000000e+00 6.0000000e+00 
0.0000000e+00 0.0000000e+00 6.2500000e+00 
0.0000000e+00 0.0000000e+00 6.5000000e+00 
0.0000000e+00 0.0000000e+00 6.7500000e+00 
0.0000000e+00 0.0000000e+00 7.0000000e+00 
0.0000000e+00 0.0000000e+00 7.2500000e+00 
0.0000000e+00 0.0000000e+00 7.5000000e+00 
0.0000000e+00 0.0000000e+00 7.7500000e+00 
0.0000000e+00 0.0000000e+00 8.0000000e+00 
0.0000000e+00 0.0000000e+00 8.2500000e+00 
0.0000000e+00 0.0000000e+00 8.5000000e+00 
0.0000000e+00 0.0000000e+00 8.7500000e+00 
0.0000000e+00 0.0000000e+00 9.0000000e+00 
0.0000000e+00 0.0000000e+00 9.2500000e+00 
0.0000000e+00 0.0000000e+00 9.5000000e+00 
0.0000000e+00 0.0000000e+00 9.7500000e+00 
0.0000000e+00 0.0000000e+00 1.0000000e+01 
0.0000000e+00 0.0000000e+00 1.0250000e+01 
0.0000000e+00 0.0000000e+00 1.0500000e+01 
0.0000000e+00 0.0000000e+00 1.0750000e+01 
0.0000000e+00 0.0000000e+00 1.1000000e+01 
0.0000000e+00 0.0000000e+00 1.1250000e+01 
0.0000000e+00 0.0000000e+00 1.1500000e+01 
0.0000000e+00 0.0000000e+00 1.1750000e+01 
0.0000000e+00 0.0000000e+00 1.2000000e+01 
0.0000000e+00 0.0000000e+00 1.2250000e+01 
0.0000000e+00 0.0000000e+00 1.2500000e+01 
0.0000000e+00 0.0000000e+00 1.2750000e+01 
0.0000000e+00 0.0000000e+00 1.3000000e+01 
0.0000000e+00 0.0000000e+00 1.3250000e+01 
0.0000000e+00 0.0000000e+00 1.3500000e+01 
0.0000000e+00 0.0000000e+00 1.3750000e+01 
0.0000000e+00 0.0000000e+00 1.4000000e+01 
0.0000000e+00 0.0000000e+00 1.4250000e+01 
0.0000000e+00 0.0000000e+00 1.4500000e+01 
0.0000000e+00 0.0000000e+00 1.4750000e+01 
0.0000000e+00 0.0000000e+00 1.5000000e+01 
0.0000000e+00 0.0000000e+00 1.5250000e+01 
0.0000000e+00 0.0000000e+00 1.5500000e+01 
0.0000000e+00 0.0000000e+00 1.5750000e+01 
0.0000000e+00 0.0000000e+00 1.6000000e+01 
0.0000000e+00 0.0000000e+00 1.6250000e+01 
0.0000000e+00 0.0000000e+00 1.6500000e+01 
0.0000000e+00 0.0000000e+00 1.6750000e+01 
0.0000000e+00 0.0000000e+00 1.7000000e+01 
0.0000000e+00 0.0000000e+00 1.7250000e+01 
0.0000000e+00 0.0000000e+00 1.7500000e+01 
0.0000000e+00 0.0000000e+00 1.7750000e+01 
0.0000000e+00 0.0000000e+00 1.8000000e+01 
6.0000000e+00 0.0000000e+00 0.0000000e+00 
6.0000000e+00 0.0000000e+00 2.5000000e-01 
6.0000000e+00 0.0000000e+00 5.0000000e-01 
6.0000000e+00 0.0000000e+00 7.5000000e-01 
6.0000000e+00 0.0000000e+00 1.0000000e+00 
6.0000000e+00 0.0000000e+00 1.2500000e+00 
6.0000000e+00 0.0000000e+00 1.5000000e+00 
6.0000000e+00 0.0000000e+00 1.7500000e+00 
6.0000000e+00 0.0000000e+00 2.0000000e+00 
6.0000000e+00 0.0000000e+00 2.2500000e+00 
6.0000000e+00 0.0000000e+00 2.5000000e+00 
6.0000000e+00 0.0000000e+00 2.7500000e+00 
6.0000000e+00 0.0000000e+00 3.0000000e+00 
6.0000000e+00 0.0000000e+00 3.2500000e+00 
6.0000000e+00 0.0000000e+00 3.5000000e+00 
6.0000000e+00 0.0000000e+00 3.7500000e+00 
6.0000000e+00 0.0000000e+00 4.0000000e+00 
6.0000000e+00 0.0000000e+00 4.2500000e+00 
6.0000000e+00 0.0000000e+00 4.5000000e+00 
6.0000000e+00 0.0000000e+00 4.7500000e+00 
6.0000000e+00 0.0000000e+00 5.0000000e+00 
6.0000000e+00 0.0000000e+00 5.2500000e+00 
6.0000000e+00 0.0000000e+00 5.5000000e+00 
6.0000000e+00 0.0000000e+00 5.7500000e+00 
6.0000000e+00 0.0000000e+00 6.0000000e+00 
6.0000000e+00 0.0000000e+00 6.2500000e+00 
6.0000000e+00 0.0000000e+00 6.5000000e+00 
6.0000000e+00 0.0000000e+00 6.7500000e+00 
6.0000000e+00 0.0000000e+00 7.0000000e+00 
6.0000000e+00 0.0000000e+00 7.2500000e+00 
6.0000000e+00 0.0000000e+00 7.5000000e+00 
6.0000000e+00 0.0000000e+00 7.7500000e+00 
6.0000000e+00 0.0000000e+00 8.0000000e+00 
6.0000000e+00 0.0000000e+00 8.2500000e+00 
6.0000000e+00 0.0000000e+00 8.5000000e+00 
6.0000000e+00 0.0000000e+00 8.7500000e+00 
6.0000000e+00 0.0000000e+00 9.0000000e+00 
6.0000000e+00 0.0000000e+00 9.2500000e+00 
6.0000000e+00 0.0000000e+00 9.5000000e+00 
6.0000000e+00 0.0000000e+00 9.7500000e+00 
6.0000000e+00 0.0000000e+00 1.0000000e+01 
6.0000000e+00 0.0000000e+00 1.0250000e+01 
6.0000000e+00 0.0000000e+00 1.0500000e+01 
6.0000000e+00 0.0000000e+00 1.0750000e+01 
6.0000000e+00 0.0000000e+00 1.1000000e+01 
6.0000000e+00 0.0000000e+00 1.1250000e+01 
6.0000000e+00 0.0000000e+00 1.1500000e+01 
6.0000000e+00 0.0000000e+00 1.1750000e+01 
6.0000000e+00 0.0000000e+00 1.2000000e+01 
6.0000000e+00 0.0000000e+00 1.2250000e+01 
6.0000000e+00 0.0000000e+00 1.2500000e+01 
6.0000000e+00 0.0000000e+00 1.2750000e+01 
6.0000000e+00 0.0000000e+00 1.3000000e+01 
6.0000000e+00 0.0000000e+00 1.3250000e+01 
6.0000000e+00 0.0000000e+00 1.3500000e+01 
6.0000000e+00 0.0000000e+00 1.3750000e+01 
6.0000000e+00 0.0000000e+00 1.4000000e+01 
6.0000000e+00 0.0000000e+00 1.4250000e+01 
6.0000000e+00 0.0000000e+00 1.4500000e+01 
6.0000000e+00 0.0000000e+00 1.4750000e+01 
6.0000000e+00 0.0000000e+00 1.5000000e+01 
6.0000000e+00 0.0000000e+00 1.5250000e+01 
6.0000000e+00 0.0000000e+00 1.5500000e+01 
6.0000000e+00 0.0000000e+00 1.5750000e+01 
6.0000000e+00 0.0000000e+00 1.6000000e+01 
6.0000000e+00 0.0000000e+00 1.6250000e+01 
6.0000000e+00 0.0000000e+00 1.6500000e+01 
6.0000000e+00 0.0000000e+00 1.6750000e+01 
6.0000000e+00 0.0000000e+00 1.7000000e+01 
6.0000000e+00 0.0000000e+00 1.7250000e+01 
6.0000000e+00 0.0000000e+00 1.7500000e+01 
6.0000000e+00 0.0000000e+00 1.7750000e+01 
6.0000000e+00 0.0000000e+00 1.8000000e+01 
5.0000000e-01 0.0000000e+00 3.0000000e+00 
1.0000000e+00 0.0000000e+00 3.0000000e+00 
1.5000000e+00 0.0000000e+00 3.0000000e+00 
2.0000000e+00 0.0000000e+00 3.0000000e+00 
2.5000000e+00 0.0000000e+00 3.0000000e+00 
3.0000000e+00 0.0000000e+00 3.0000000e+00 
3.5000000e+00 0.0000000e+00 3.0000000e+00 
4.0000000e+00 0.0000000e+00 3.0000000e+00 
4.5000000e+00 0.0000000e+00 3.0000000e+00 
5.0000000e+00 0.0000000e+00 3.0000000e+00 
5.5000000e+00 0.0000000e+00 3.0000000e+00 
5.0000000e-01 0.0000000e+00 6.0000000e+00 
1.0000000e+00 0.0000000e+00 6.0000000e+00 
1.5000000e+00 0.0000000e+00 6.0000000e+00 
2.0000000e+00 0.0000000e+00 6.0000000e+00 
2.5000000e+00 0.0000000e+00 6.0000000e+00 
3.0000000e+00 0.0000000e+00 6.0000000e+00 
3.5000000e+00 0.0000000e+00 6.0000000e+00 
4.0000000e+00 0.0000000e+00 6.0000000e+00 
4.5000000e+00 0.0000000e+00 6.0000000e+00 
5.0000000e+00 0.0000000e+00 6.0000000e+00 
5.5000000e+00 0.0000000e+00 6.0000000e+00 
5.0000000e-01 0.0000000e+00 9.0000000e+00 
1.0000000e+00 0.0000000e+00 9.0000000e+00 
1.5000000e+00 0.0000000e+00 9.0000000e+00 
2.0000000e+00 0.0000000e+00 9.0000000e+00 
2.5000000e+00 0.0000000e+00 9.0000000e+00 
3.0000000e+00 0.0000000e+00 9.0000000e+00 
3.5000000e+00 0.0000000e+00 9.0000000e+00 
4.0000000e+00 0.0000000e+00 9.0000000e+00 
4.5000000e+00 0.0000000e+00 9.0000000e+00 
5.0000000e+00 0.0000000e+00 9.0000000e+00 
5.5000000e+00 0.0000000e+00 9.0000000e+00 
5.0000000e-01 0.0000000e+00 1.2000000e+01 
1.0000000e+00 0.0000000e+00 1.2000000e+01 
1.5000000e+00 0.0000000e+00 1.2000000e+01 
2.0000000e+00 0.0000000e+00 1.2000000e+01 
2.5000000e+00 0.0000000e+00 1.2000000e+01 
3.0000000e+00 0.0000000e+00 1.2000000e+01 
3.5000000e+00 0.0000000e+00 1.2000000e+01 
4.0000000e+00 0.0000000e+00 1.2000000e+01 
4.5000000e+00 0.0000000e+00 1.2000000e+01 
5.0000000e+00 0.0000000e+00 1.2000000e+01 
5.5000000e+00 0.0000000e+00 1.2000000e+01 
5.0000000e-01 0.0000000e+00 1.5000000e+01 
1.0000000e+00 0.0000000e+00 1.5000000e+01 
1.5000000e+00 0.0000000e+00 1.5000000e+01 
2.0000000e+00 0.0000000e+00 1.5000000e+01 
2.5000000e+00 0.0000000e+00 1.5000000e+01 
3.0000000e+00 0.0000000e+00 1.5000000e+01 
3.5000000e+00 0.0000000e+00 1.5000000e+01 
4.0000000e+00 0.0000000e+00 1.5000000e+01 
4.5000000e+00 0.0000000e+00 1.5000000e+01 
5.0000000e+00 0.0000000e+00 1.5000000e+01 
5.5000000e+00 0.0000000e+00 1.5000000e+01 
5.0000000e-01 0.0000000e+00 1.8000000e+01 
1.0000000e+00 0.0000000e+00 1.8000000e+01 
1.5000000e+00 0.0000000e+00 1.8000000e+01 
2.0000000e+00 0.0000000e+00 1.8000000e+01 
2.5000000e+00 0.0000000e+00 1.8000000e+01 
3.0000000e+00 0.0000000e+00 1.8000000e+01 
3.5000000e+00 0.0000000e+00 1.8000000e+01 
4.0000000e+00 0.0000000e+00 1.8000000e+01 
4.5000000e+00 0.0000000e+00 1.8000000e+01 
5.0000000e+00 0.0000000e+00 1.8000000e+01 
5.5000000e+00 0.0000000e+00 1.8000000e+01 

CELLS 216 648
2 0 1
2 1 2
2 2 3
2 3 4
2 4 5
2 5 6
2 6 7
2 7 8
2 8 9
2 9 10
2 10 11
2 11 12
2 12 13
2 13 14
2 14 15
2 15 16
2 16 17
2 17 18
2 18 19
2 19 20
2 20 21
2 21 22
2 22 23
2 23 24
2 24 25
2 25 26
2 26 27
2 27 28
2 28 29
2 29 30
2 30 31
2 31 32
2 32 33
2 33 34
2 34 35
2 35 36
2 36 37
2 37 38
2 38 39
2 39 40
2 40 41
2 41 42
2 42 43
2 43 44
2 44 45
2 45 46
2 46 47
2 47 48
2 48 49
2 49 50
2 50 51
2 51 52
2 52 53
2 53 54
2 54 55
2 55 56
2 56 57
2 57 58
2 58 59
2 59 60
2 60 61
2 61 62
2 62 63
2 63 64
2 64 65
2 65 66
2 66 67
2 67 68
2 68 69
2 69 70
2 70 71
2 71 72
2 73 74
2 74 75
2 75 76
2 76 77
2 77 78
2 78 79
2 79 80
2 80 81
2 81 82
2 82 83
2 83 84
2 84 85
2 85 86
2 86 87
2 87 88
2 88 89
2 89 90
2 90 91
2 91 92
2 92 93
2 93 94
2 94 95
2 95 96
2 96 97
2 97 98
2 98 99
2 99 100
2 100 101
2 101 102
2 102 103
2 103 104
2 104 105
2 105 106
2 106 107
2 107 108
2 108 109
2 109 110
2 110 111
2 111 112
2 112 113
2 113 114
2 114 115
2 115 116
2 116 117
2 117 118
2 118 119
2 119 120
2 120 121
2 121 122
2 122 123
2 123 124
2 124 125
2 125 126
2 126 127
2 127 128
2 128 129
2 129 130
2 130 131
2 131 132
2 132 133
2 133 134
2 134 135
2 135 136
2 136 137
2 137 138
2 138 139
2 139 140
2 140 141
2 141 142
2 142 143
2 143 144
2 144 145
2 12 146
2 146 147
2 147 148
2 148 149
2 149 150
2 150 151
2 151 152
2 152 153
2 153 154
2 154 155
2 155 156
2 156 85
2 24 157
2 157 158
2 158 159
2 159 160
2 160 161
2 161 162
2 162 163
2 163 164
2 164 165
2 165 166
2 166 167
2 167 97
2 36 168
2 168 169
2 169 170
2 170 171
2 171 172
2 172 173
2 173 174
2 174 175
2 175 176
2 176 177
2 177 178
2 178 109
2 48 179
2 179 180
2 180 181
2 181 182
2 182 183
2 183 184
2 184 185
2 185 186
2 186 187
2 187 188
2 188 189
2 189 121
2 60 190
2 190 191
2 191 192
2 192 193
2 193 194
2 194 195
2 195 196
2 196 197
2 197 198
2 198 199
2 199 200
2 200 133
2 72 201
2 201 202
2 202 203
2 203 204
2 204 205
2 205 206
2 206 207
2 207 208
2 208 209
2 209 210
2 210 211
2 211 145

CELL_TYPES 216
3
3
3
3
3
3
3
3
3
3
3
3
3
3
3
3
3
3
3
3
3
3
3
3
3
3
3
3
3
3
3
3
3
3
3
3
3
3
3
3
3
3
3
3
3
3
3
3
3
3
3
3
3
3
3
3
3
3
3
3
3
3
3
3
3
3
3
3
3
3
3
3
3
3
3
3
3
3
3
3
3
3
3
3
3
3
3
3
3
3
3
3
3
3
3
3
3
3
3
3
3
3
3
3
3
3
3
3
3
3
3
3
3
3
3
3
3
3
3
3
3
3
3
3
3
3
3
3
3
3
3
3
3
3
3
3
3
3
3
3
3
3
3
3
3
3
3
3
3
3
3
3
3
3
3
3
3
3
3
3
3
3
3
3
3
3
3
3
3
3
3
3
3
3
3
3
3
3
3
3
3
3
3
3
3
3
3
3
3
3
3
3
3
3
3
3
3
3
3
3
3
3
3
3
3
3
3
3
3
3
3
3
3
3
3
3
POINT_DATA 212
FIELD FieldData 3
ADJOINT_DISPLACEMENT 3 212  float
0.0000000e+00 0.0000000e+00 0.0000000e+00 
-1.9068960e-02 0.0000000e+00 -2.4382677e-16 
-3.8432453e-02 0.0000000e+00 -4.8765354e-16 
-5.8385007e-02 0.0000000e+00 -7.3148034e-16 
-7.9221159e-02 0.0000000e+00 -9.7530709e-16 
-1.0123545e-01 0.0000000e+00 -1.2191339e-15 
-1.2472240e-01 0.0000000e+00 -1.4629607e-15 
-1.4997654e-01 0.0000000e+00 -1.7067875e-15 
-1.7729241e-01 0.0000000e+00 -1.9506142e-15 
-2.0696454e-01 0.0000000e+00 -2.1944411e-15 
-2.3928747e-01 0.0000000e+00 -2.4382678e-15 
-2.7455571e-01 0.0000000e+00 -2.6820947e-15 
-3.1306383e-01 0.0000000e+00 -2.9259214e-15 
-3.5897458e-01 0.0000000e+00 8.6962751e-07 
-4.1652307e-01 0.0000000e+00 1.7392550e-06 
-4.8611236e-01 0.0000000e+00 2.6088826e-06 
-5.6814551e-01 0.0000000e+00 3.4785101e-06 
-6.6302550e-01 0.0000000e+00 4.3481377e-06 
-7.7115548e-01 0.0000000e+00 5.2177652e-06 
-8.9293838e-01 0.0000000e+00 6.0873926e-06 
-7.7877730e-01 0.0000000e+00 6.9570201e-06 
-6.7907524e-01 0.0000000e+00 7.8266476e-06 
-5.9423530e-01 0.0000000e+00 8.6962755e-06 
-5.2466053e-01 0.0000000e+00 9.5659025e-06 
-4.7075388e-01 0.0000000e+00 1.0435530e-05 
-4.2908251e-01 0.0000000e+00 1.0617030e-05 
-3.9540705e-01 0.0000000e+00 1.0798530e-05 
-3.6892095e-01 0.0000000e+00 1.0980029e-05 
-3.4881765e-01 0.0000000e+00 1.1161530e-05 
-3.3429059e-01 0.0000000e+00 1.1343030e-05 
-3.2453319e-01 0.0000000e+00 1.1524529e-05 
-3.1873897e-01 0.0000000e+00 1.1706029e-05 
-3.1610128e-01 0.0000000e+00 1.1887530e-05 
-3.1581360e-01 0.0000000e+00 1.2069029e-05 
-3.1706941e-01 0.0000000e+00 1.2250529e-05 
-3.1906208e-01 0.0000000e+00 1.2432029e-05 
-3.2098511e-01 0.0000000e+00 1.2613529e-05 
-3.2190630e-01 0.0000000e+00 1.2651407e-05 
-3.2155704e-01 0.0000000e+00 1.2689285e-05 
-3.2012630e-01 0.0000000e+00 1.2727162e-05 
-3.1780288e-01 0.0000000e+00 1.2765041e-05 
-3.1477571e-01 0.0000000e+00 1.2802919e-05 
-3.1123367e-01 0.0000000e+00 1.2840796e-05 
-3.0736563e-01 0.0000000e+00 1.2878674e-05 
-3.0336046e-01 0.0000000e+00 1.2916553e-05 
-2.9940704e-01 0.0000000e+00 1.2954431e-05 
-2.9569429e-01 0.0000000e+00 1.2992308e-05 
-2.9241109e-01 0.0000000e+00 1.3030186e-05 
-2.8974628e-01 0.0000000e+00 1.3068065e-05 
-2.8767955e-01 0.0000000e+00 1.3075955e-05 
-2.8603539e-01 0.0000000e+00 1.3083847e-05 
-2.8476998e-01 0.0000000e+00 1.3091738e-05 
-2.8383949e-01 0.0000000e+00 1.3099629e-05 
-2.8320009e-01 0.0000000e+00 1.3107520e-05 
-2.8280798e-01 0.0000000e+00 1.3115411e-05 
-2.8261930e-01 0.0000000e+00 1.3123303e-05 
-2.8259027e-01 0.0000000e+00 1.3131194e-05 
-2.8267699e-01 0.0000000e+00 1.3139085e-05 
-2.8283572e-01 0.0000000e+00 1.3146976e-05 
-2.8302258e-01 0.0000000e+00 1.3154868e-05 
-2.8319374e-01 0.0000000e+00 1.3162758e-05 
-2.8330457e-01 0.0000000e+00 1.3164336e-05 
-2.8334531e-01 0.0000000e+00 1.3165915e-05 
-2.8332439e-01 0.0000000e+00 1.3167493e-05 
-2.8325033e-01 0.0000000e+00 1.3169071e-05 
-2.8313160e-01 0.0000000e+00 1.3170649e-05 
-2.8297663e-01 0.0000000e+00 1.3172228e-05 
-2.8279394e-01 0.0000000e+00 1.3173806e-05 
-2.8259203e-01 0.0000000e+00 1.3175384e-05 
-2.8237933e-01 0.0000000e+00 1.3176963e-05 
-2.8216431e-01 0.0000000e+00 1.3178541e-05 
-2.8195548e-01 0.0000000e+00 1.3180119e-05 
-2.8176132e-01 0.0000000e+00 1.3181697e-05 
0.0000000e+00 0.0000000e+00 0.0000000e+00 
-3.3108693e-02 0.0000000e+00 2.2724989e-16 
-6.5922849e-02 0.0000000e+00 4.5448887e-16 
-9.8147944e-02 0.0000000e+00 6.8174633e-16 
-1.2948944e-01 0.0000000e+00 9.0900262e-16 
-1.5965280e-01 0.0000000e+00 1.1362790e-15 
-1.8834351e-01 0.0000000e+00 1.3635476e-15 
-2.1526702e-01 0.0000000e+00 1.5907994e-15 
-2.4012880e-01 0.0000000e+00 1.8180582e-15 
-2.6263431e-01 0.0000000e+00 2.0453707e-15 
-2.8248903e-01 0.0000000e+00 2.2726379e-15 
-2.9939845e-01 0.0000000e+00 2.4999371e-15 
-3.1306800e-01 0.0000000e+00 2.7272428e-15 
-3.2585710e-01 0.0000000e+00 -8.6962751e-07 
-3.4005287e-01 0.0000000e+00 -1.7392550e-06 
-3.5525227e-01 0.0000000e+00 -2.6088826e-06 
-3.7105221e-01 0.0000000e+00 -3.4785101e-06 
-3.8704970e-01 0.0000000e+00 -4.3481377e-06 
-4.0284169e-01 0.0000000e+00 -5.2177652e-06 
-4.1802511e-01 0.0000000e+00 -6.0873926e-06 
-4.3219694e-01 0.0000000e+00 -6.9570201e-06 
-4.4495413e-01 0.0000000e+00 -7.8266476e-06 
-4.5589364e-01 0.0000000e+00 -8.6962755e-06 
-4.6461242e-01 0.0000000e+00 -9.5659025e-06 
-4.7070745e-01 0.0000000e+00 -1.0435530e-05 
-4.7245067e-01 0.0000000e+00 -1.0617030e-05 
-4.6892047e-01 0.0000000e+00 -1.0798530e-05 
-4.6092343e-01 0.0000000e+00 -1.0980029e-05 
-4.4926608e-01 0.0000000e+00 -1.1161530e-05 
-4.3475500e-01 0.0000000e+00 -1.1343030e-05 
-4.1819671e-01 0.0000000e+00 -1.1524529e-05 
-4.0039781e-01 0.0000000e+00 -1.1706029e-05 
-3.8216484e-01 0.0000000e+00 -1.1887530e-05 
-3.6430433e-01 0.0000000e+00 -1.2069029e-05 
-3.4762287e-01 0.0000000e+00 -1.2250529e-05 
-3.3292702e-01 0.0000000e+00 -1.2432029e-05 
-3.2102334e-01 0.0000000e+00 -1.2613529e-05 
-3.1176683e-01 0.0000000e+00 -1.2651407e-05 
-3.0434889e-01 0.0000000e+00 -1.2689285e-05 
-2.9858065e-01 0.0000000e+00 -1.2727162e-05 
-2.9427326e-01 0.0000000e+00 -1.2765041e-05 
-2.9123777e-01 0.0000000e+00 -1.2802919e-05 
-2.8928533e-01 0.0000000e+00 -1.2840796e-05 
-2.8822705e-01 0.0000000e+00 -1.2878674e-05 
-2.8787407e-01 0.0000000e+00 -1.2916553e-05 
-2.8803751e-01 0.0000000e+00 -1.2954431e-05 
-2.8852844e-01 0.0000000e+00 -1.2992308e-05 
-2.8915802e-01 0.0000000e+00 -1.3030186e-05 
-2.8973734e-01 0.0000000e+00 -1.3068065e-05 
-2.9006189e-01 0.0000000e+00 -1.3075955e-05 
-2.9008222e-01 0.0000000e+00 -1.3083847e-05 
-2.8984216e-01 0.0000000e+00 -1.3091738e-05 
-2.8938556e-01 0.0000000e+00 -1.3099629e-05 
-2.8875619e-01 0.0000000e+00 -1.3107520e-05 
-2.8799796e-01 0.0000000e+00 -1.3115411e-05 
-2.8715464e-01 0.0000000e+00 -1.3123303e-05 
-2.8627005e-01 0.0000000e+00 -1.3131194e-05 
-2.8538805e-01 0.0000000e+00 -1.3139085e-05 
-2.8455245e-01 0.0000000e+00 -1.3146976e-05 
-2.8380707e-01 0.0000000e+00 -1.3154868e-05 
-2.8319576e-01 0.0000000e+00 -1.3162758e-05 
-2.8271577e-01 0.0000000e+00 -1.3164336e-05 
-2.8232959e-01 0.0000000e+00 -1.3165915e-05 
-2.8202870e-01 0.0000000e+00 -1.3167493e-05 
-2.8180465e-01 0.0000000e+00 -1.3169071e-05 
-2.8164896e-01 0.0000000e+00 -1.3170649e-05 
-2.8155315e-01 0.0000000e+00 -1.3172228e-05 
-2.8150874e-01 0.0000000e+00 -1.3173806e-05 
-2.8150725e-01 0.0000000e+00 -1.3175384e-05 
-2.8154022e-01 0.0000000e+00 -1.3176963e-05 
-2.8159913e-01 0.0000000e+00 -1.3178541e-05 
-2.8167555e-01 0.0000000e+00 -1.3180119e-05 
-2.8176099e-01 0.0000000e+00 -1.3181697e-05 
-3.1306416e-01 0.0000000e+00 6.5776475e-02 
-3.1306452e-01 0.0000000e+00 1.0509980e-01 
-3.1306487e-01 0.0000000e+00 1.2231810e-01 
-3.1306520e-01 0.0000000e+00 1.2177954e-01 
-3.1306556e-01 0.0000000e+00 1.0783224e-01 
-3.1306592e-01 0.0000000e+00 8.4824331e-02 
-3.1306624e-01 0.0000000e+00 5.7103965e-02 
-3.1306660e-01 0.0000000e+00 2.9019274e-02 
-3.1306696e-01 0.0000000e+00 4.9183927e-03 
-3.1306729e-01 0.0000000e+00 -1.0850538e-02 
-3.1306764e-01 0.0000000e+00 -1.3939382e-02 
-4.7075003e-01 0.0000000e+00 -7.7901885e-02 
-4.7074616e-01 0.0000000e+00 -1.3017985e-01 
-4.7074229e-01 0.0000000e+00 -1.6026409e-01 
-4.7073841e-01 0.0000000e+00 -1.7159528e-01 
-4.7073454e-01 0.0000000e+00 -1.6761400e-01 
-4.7073066e-01 0.0000000e+00 -1.5176094e-01 
-4.7072679e-01 0.0000000e+00 -1.2747671e-01 
-4.7072291e-01 0.0000000e+00 -9.8201945e-02 
-4.7071904e-01 0.0000000e+00 -6.7377299e-02 
-4.7071519e-01 0.0000000e+00 -3.8443413e-02 
-4.7071132e-01 0.0000000e+00 -1.4840909e-02 
-3.2098830e-01 0.0000000e+00 4.2977710e-03 
-3.2099149e-01 0.0000000e+00 1.0197125e-02 
-3.2099468e-01 0.0000000e+00 1.6992567e-02 
-3.2099786e-01 0.0000000e+00 2.3965986e-02 
-3.2100102e-01 0.0000000e+00 3.0399274e-02 
-3.2100421e-01 0.0000000e+00 3.5574321e-02 
-3.2100740e-01 0.0000000e+00 3.8773015e-02 
-3.2101059e-01 0.0000000e+00 3.9277248e-02 
-3.2101378e-01 0.0000000e+00 3.6368914e-02 
-3.2101697e-01 0.0000000e+00 2.9329898e-02 
-3.2102016e-01 0.0000000e+00 1.7442092e-02 
-2.8974554e-01 0.0000000e+00 -3.9153951e-03 
-2.8974479e-01 0.0000000e+00 -6.6302088e-03 
-2.8974405e-01 0.0000000e+00 -8.2813064e-03 
-2.8974330e-01 0.0000000e+00 -9.0186223e-03 
-2.8974256e-01 0.0000000e+00 -8.9920899e-03 
-2.8974181e-01 0.0000000e+00 -8.3516445e-03 
-2.8974107e-01 0.0000000e+00 -7.2472179e-03 
-2.8974032e-01 0.0000000e+00 -5.8287452e-03 
-2.8973958e-01 0.0000000e+00 -4.2461599e-03 
-2.8973883e-01 0.0000000e+00 -2.6493960e-03 
-2.8973809e-01 0.0000000e+00 -1.1883874e-03 
-2.8319392e-01 0.0000000e+00 3.4350407e-04 
-2.8319407e-01 0.0000000e+00 7.1860047e-04 
-2.8319424e-01 0.0000000e+00 1.1068871e-03 
-2.8319442e-01 0.0000000e+00 1.4767991e-03 
-2.8319457e-01 0.0000000e+00 1.7967719e-03 
-2.8319475e-01 0.0000000e+00 2.0352404e-03 
-2.8319493e-01 0.0000000e+00 2.1606402e-03 
-2.8319508e-01 0.0000000e+00 2.1414063e-03 
-2.8319526e-01 0.0000000e+00 1.9459737e-03 
-2.8319541e-01 0.0000000e+00 1.5427779e-03 
-2.8319559e-01 0.0000000e+00 9.0025400e-04 
-2.8176129e-01 0.0000000e+00 -3.0988830e-04 
-2.8176126e-01 0.0000000e+00 -5.4831395e-04 
-2.8176123e-01 0.0000000e+00 -7.0998643e-04 
-2.8176123e-01 0.0000000e+00 -8.0279686e-04 
-2.8176120e-01 0.0000000e+00 -8.3463633e-04 
-2.8176117e-01 0.0000000e+00 -8.1339601e-04 
-2.8176114e-01 0.0000000e+00 -7.4696704e-04 
-2.8176111e-01 0.0000000e+00 -6.4324052e-04 
-2.8176108e-01 0.0000000e+00 -5.1010755e-04 
-2.8176105e-01 0.0000000e+00 -3.5545937e-04 
-2.8176102e-01 0.0000000e+00 -1.8718705e-04 
ADJOINT_ROTATION 3 212  float
0.0000000e+00 -7.6079480e-02 0.0000000e+00 
0.0000000e+00 -7.6668546e-02 0.0000000e+00 
0.0000000e+00 -7.8435741e-02 0.0000000e+00 
0.0000000e+00 -8.1381068e-02 0.0000000e+00 
0.0000000e+00 -8.5504524e-02 0.0000000e+00 
0.0000000e+00 -9.0806112e-02 0.0000000e+00 
0.0000000e+00 -9.7285829e-02 0.0000000e+00 
0.0000000e+00 -1.0494367e-01 0.0000000e+00 
0.0000000e+00 -1.1377965e-01 0.0000000e+00 
0.0000000e+00 -1.2379376e-01 0.0000000e+00 
0.0000000e+00 -1.3498600e-01 0.0000000e+00 
0.0000000e+00 -1.4735636e-01 0.0000000e+00 
0.0000000e+00 -1.6090485e-01 0.0000000e+00 
0.0000000e+00 -2.0664980e-01 0.0000000e+00 
0.0000000e+00 -2.5400689e-01 0.0000000e+00 
0.0000000e+00 -3.0297616e-01 0.0000000e+00 
0.0000000e+00 -3.5355762e-01 0.0000000e+00 
0.0000000e+00 -4.0575123e-01 0.0000000e+00 
0.0000000e+00 -4.5955700e-01 0.0000000e+00 
0.0000000e+00 -5.1497495e-01 0.0000000e+00 
0.0000000e+00 4.2799491e-01 0.0000000e+00 
0.0000000e+00 3.6935264e-01 0.0000000e+00 
0.0000000e+00 3.0909818e-01 0.0000000e+00 
0.0000000e+00 2.4723154e-01 0.0000000e+00 
0.0000000e+00 1.8375275e-01 0.0000000e+00 
0.0000000e+00 1.5015598e-01 0.0000000e+00 
0.0000000e+00 1.1978543e-01 0.0000000e+00 
0.0000000e+00 9.2641115e-02 0.0000000e+00 
0.0000000e+00 6.8723030e-02 0.0000000e+00 
0.0000000e+00 4.8031174e-02 0.0000000e+00 
0.0000000e+00 3.0565547e-02 0.0000000e+00 
0.0000000e+00 1.6326152e-02 0.0000000e+00 
0.0000000e+00 5.3129862e-03 0.0000000e+00 
0.0000000e+00 -2.4739499e-03 0.0000000e+00 
0.0000000e+00 -7.0346557e-03 0.0000000e+00 
0.0000000e+00 -8.3691319e-03 0.0000000e+00 
0.0000000e+00 -6.4773783e-03 0.0000000e+00 
0.0000000e+00 -1.0179684e-03 0.0000000e+00 
0.0000000e+00 3.6859112e-03 0.0000000e+00 
0.0000000e+00 7.6342602e-03 0.0000000e+00 
0.0000000e+00 1.0827078e-02 0.0000000e+00 
0.0000000e+00 1.3264367e-02 0.0000000e+00 
0.0000000e+00 1.4946125e-02 0.0000000e+00 
0.0000000e+00 1.5872352e-02 0.0000000e+00 
0.0000000e+00 1.6043048e-02 0.0000000e+00 
0.0000000e+00 1.5458215e-02 0.0000000e+00 
0.0000000e+00 1.4117851e-02 0.0000000e+00 
0.0000000e+00 1.2021957e-02 0.0000000e+00 
0.0000000e+00 9.1705322e-03 0.0000000e+00 
0.0000000e+00 7.3925774e-03 0.0000000e+00 
0.0000000e+00 5.7899263e-03 0.0000000e+00 
0.0000000e+00 4.3625785e-03 0.0000000e+00 
0.0000000e+00 3.1105347e-03 0.0000000e+00 
0.0000000e+00 2.0337945e-03 0.0000000e+00 
0.0000000e+00 1.1323581e-03 0.0000000e+00 
0.0000000e+00 4.0622518e-04 0.0000000e+00 
0.0000000e+00 -1.4460403e-04 0.0000000e+00 
0.0000000e+00 -5.2012957e-04 0.0000000e+00 
0.0000000e+00 -7.2035153e-04 0.0000000e+00 
0.0000000e+00 -7.4526976e-04 0.0000000e+00 
0.0000000e+00 -5.9488439e-04 0.0000000e+00 
0.0000000e+00 -2.9748122e-04 0.0000000e+00 
0.0000000e+00 -3.3985736e-05 0.0000000e+00 
0.0000000e+00 1.9560204e-04 0.0000000e+00 
0.0000000e+00 3.9128211e-04 0.0000000e+00 
0.0000000e+00 5.5305444e-04 0.0000000e+00 
0.0000000e+00 6.8091910e-04 0.0000000e+00 
0.0000000e+00 7.7487604e-04 0.0000000e+00 
0.0000000e+00 8.3492527e-04 0.0000000e+00 
0.0000000e+00 8.6106680e-04 0.0000000e+00 
0.0000000e+00 8.5330062e-04 0.0000000e+00 
0.0000000e+00 8.1162667e-04 0.0000000e+00 
0.0000000e+00 7.3604507e-04 0.0000000e+00 
0.0000000e+00 -1.3263112e-01 0.0000000e+00 
0.0000000e+00 -1.3204205e-01 0.0000000e+00 
0.0000000e+00 -1.3027486e-01 0.0000000e+00 
0.0000000e+00 -1.2732953e-01 0.0000000e+00 
0.0000000e+00 -1.2320608e-01 0.0000000e+00 
0.0000000e+00 -1.1790449e-01 0.0000000e+00 
0.0000000e+00 -1.1142477e-01 0.0000000e+00 
0.0000000e+00 -1.0376693e-01 0.0000000e+00 
0.0000000e+00 -9.4930954e-02 0.0000000e+00 
0.0000000e+00 -8.4916845e-02 0.0000000e+00 
0.0000000e+00 -7.3724613e-02 0.0000000e+00 
0.0000000e+00 -6.1354242e-02 0.0000000e+00 
0.0000000e+00 -4.7805745e-02 0.0000000e+00 
0.0000000e+00 -5.4238461e-02 0.0000000e+00 
0.0000000e+00 -5.9059009e-02 0.0000000e+00 
0.0000000e+00 -6.2267385e-02 0.0000000e+00 
0.0000000e+00 -6.3863590e-02 0.0000000e+00 
0.0000000e+00 -6.3847631e-02 0.0000000e+00 
0.0000000e+00 -6.2219501e-02 0.0000000e+00 
0.0000000e+00 -5.8979198e-02 0.0000000e+00 
0.0000000e+00 -5.4126732e-02 0.0000000e+00 
0.0000000e+00 -4.7662091e-02 0.0000000e+00 
0.0000000e+00 -3.9585285e-02 0.0000000e+00 
0.0000000e+00 -2.9896308e-02 0.0000000e+00 
0.0000000e+00 -1.8595161e-02 0.0000000e+00 
0.0000000e+00 4.1116206e-03 0.0000000e+00 
0.0000000e+00 2.3592172e-02 0.0000000e+00 
0.0000000e+00 3.9846495e-02 0.0000000e+00 
0.0000000e+00 5.2874587e-02 0.0000000e+00 
0.0000000e+00 6.2676452e-02 0.0000000e+00 
0.0000000e+00 6.9252081e-02 0.0000000e+00 
0.0000000e+00 7.2601482e-02 0.0000000e+00 
0.0000000e+00 7.2724655e-02 0.0000000e+00 
0.0000000e+00 6.9621600e-02 0.0000000e+00 
0.0000000e+00 6.3292310e-02 0.0000000e+00 
0.0000000e+00 5.3736795e-02 0.0000000e+00 
0.0000000e+00 4.0955048e-02 0.0000000e+00 
0.0000000e+00 3.3222962e-02 0.0000000e+00 
0.0000000e+00 2.6246404e-02 0.0000000e+00 
0.0000000e+00 2.0025378e-02 0.0000000e+00 
0.0000000e+00 1.4559881e-02 0.0000000e+00 
0.0000000e+00 9.8499153e-03 0.0000000e+00 
0.0000000e+00 5.8954796e-03 0.0000000e+00 
0.0000000e+00 2.6965747e-03 0.0000000e+00 
0.0000000e+00 2.5320021e-04 0.0000000e+00 
0.0000000e+00 -1.4346439e-03 0.0000000e+00 
0.0000000e+00 -2.3669575e-03 0.0000000e+00 
0.0000000e+00 -2.5437409e-03 0.0000000e+00 
0.0000000e+00 -1.9649935e-03 0.0000000e+00 
0.0000000e+00 -6.6050992e-04 0.0000000e+00 
0.0000000e+00 4.6867013e-04 0.0000000e+00 
0.0000000e+00 1.4225465e-03 0.0000000e+00 
0.0000000e+00 2.2011192e-03 0.0000000e+00 
0.0000000e+00 2.8043883e-03 0.0000000e+00 
0.0000000e+00 3.2323538e-03 0.0000000e+00 
0.0000000e+00 3.4850156e-03 0.0000000e+00 
0.0000000e+00 3.5623736e-03 0.0000000e+00 
0.0000000e+00 3.4644280e-03 0.0000000e+00 
0.0000000e+00 3.1911789e-03 0.0000000e+00 
0.0000000e+00 2.7426260e-03 0.0000000e+00 
0.0000000e+00 2.1187696e-03 0.0000000e+00 
0.0000000e+00 1.7266729e-03 0.0000000e+00 
0.0000000e+00 1.3684838e-03 0.0000000e+00 
0.0000000e+00 1.0442024e-03 0.0000000e+00 
0.0000000e+00 7.5382873e-04 0.0000000e+00 
0.0000000e+00 4.9736281e-04 0.0000000e+00 
0.0000000e+00 2.7480457e-04 0.0000000e+00 
0.0000000e+00 8.6154047e-05 0.0000000e+00 
0.0000000e+00 -6.8588764e-05 0.0000000e+00 
0.0000000e+00 -1.8942387e-04 0.0000000e+00 
0.0000000e+00 -2.7635126e-04 0.0000000e+00 
0.0000000e+00 -3.2937096e-04 0.0000000e+00 
0.0000000e+00 -3.4848295e-04 0.0000000e+00 
0.0000000e+00 -1.0365042e-01 0.0000000e+00 
0.0000000e+00 -5.5092253e-02 0.0000000e+00 
0.0000000e+00 -1.5230365e-02 0.0000000e+00 
0.0000000e+00 1.5935250e-02 0.0000000e+00 
0.0000000e+00 3.8404588e-02 0.0000000e+00 
0.0000000e+00 5.2177649e-02 0.0000000e+00 
0.0000000e+00 5.7254437e-02 0.0000000e+00 
0.0000000e+00 5.3634953e-02 0.0000000e+00 
0.0000000e+00 4.1319191e-02 0.0000000e+00 
0.0000000e+00 2.0307153e-02 0.0000000e+00 
0.0000000e+00 -9.4011594e-03 0.0000000e+00 
0.0000000e+00 1.2904340e-01 0.0000000e+00 
0.0000000e+00 8.1215337e-02 0.0000000e+00 
0.0000000e+00 4.0268540e-02 0.0000000e+00 
0.0000000e+00 6.2030251e-03 0.0000000e+00 
0.0000000e+00 -2.0981215e-02 0.0000000e+00 
0.0000000e+00 -4.1284177e-02 0.0000000e+00 
0.0000000e+00 -5.4705866e-02 0.0000000e+00 
0.0000000e+00 -6.1246280e-02 0.0000000e+00 
0.0000000e+00 -6.0905412e-02 0.0000000e+00 
0.0000000e+00 -5.3683273e-02 0.0000000e+00 
0.0000000e+00 -3.9579853e-02 0.0000000e+00 
0.0000000e+00 -1.0423882e-02 0.0000000e+00 
0.0000000e+00 -1.2934166e-02 0.0000000e+00 
0.0000000e+00 -1.4008231e-02 0.0000000e+00 
0.0000000e+00 -1.3646077e-02 0.0000000e+00 
0.0000000e+00 -1.1847704e-02 0.0000000e+00 
0.0000000e+00 -8.6131105e-03 0.0000000e+00 
0.0000000e+00 -3.9422992e-03 0.0000000e+00 
0.0000000e+00 2.1647322e-03 0.0000000e+00 
0.0000000e+00 9.7079827e-03 0.0000000e+00 
0.0000000e+00 1.8687451e-02 0.0000000e+00 
0.0000000e+00 2.9103141e-02 0.0000000e+00 
0.0000000e+00 6.5932986e-03 0.0000000e+00 
0.0000000e+00 4.3159332e-03 0.0000000e+00 
0.0000000e+00 2.3384357e-03 0.0000000e+00 
0.0000000e+00 6.6080590e-04 0.0000000e+00 
0.0000000e+00 -7.1695622e-04 0.0000000e+00 
0.0000000e+00 -1.7948506e-03 0.0000000e+00 
0.0000000e+00 -2.5728771e-03 0.0000000e+00 
0.0000000e+00 -3.0510360e-03 0.0000000e+00 
0.0000000e+00 -3.2293270e-03 0.0000000e+00 
0.0000000e+00 -3.1077503e-03 0.0000000e+00 
0.0000000e+00 -2.6863059e-03 0.0000000e+00 
0.0000000e+00 -7.1595929e-04 0.0000000e+00 
0.0000000e+00 -7.7390455e-04 0.0000000e+00 
0.0000000e+00 -7.6872029e-04 0.0000000e+00 
0.0000000e+00 -7.0040644e-04 0.0000000e+00 
0.0000000e+00 -5.6896295e-04 0.0000000e+00 
0.0000000e+00 -3.7438993e-04 0.0000000e+00 
0.0000000e+00 -1.1668730e-04 0.0000000e+00 
0.0000000e+00 2.0414492e-04 0.0000000e+00 
0.0000000e+00 5.8810669e-04 0.0000000e+00 
0.0000000e+00 1.0351981e-03 0.0000000e+00 
0.0000000e+00 1.5454191e-03 0.0000000e+00 
0.0000000e+00 5.5886531e-04 0.0000000e+00 
0.0000000e+00 3.9746778e-04 0.0000000e+00 