# vtk DataFile Version 4.0
vtk output
ASCII
DATASET UNSTRUCTURED_GRID
POINTS 86 float
0.0000000e+00 0.0000000e+00 0.0000000e+00 
0.0000000e+00 0.0000000e+00 6.0000002e-01 
0.0000000e+00 0.0000000e+00 1.2000000e+00 
0.0000000e+00 0.0000000e+00 1.8000000e+00 
0.0000000e+00 0.0000000e+00 2.4000001e+00 
0.0000000e+00 0.0000000e+00 3.0000000e+00 
0.0000000e+00 0.0000000e+00 3.5999999e+00 
0.0000000e+00 0.0000000e+00 4.1999998e+00 
0.0000000e+00 0.0000000e+00 4.8000002e+00 
0.0000000e+00 0.0000000e+00 5.4000001e+00 
0.0000000e+00 0.0000000e+00 6.0000000e+00 
0.0000000e+00 0.0000000e+00 6.5999999e+00 
0.0000000e+00 0.0000000e+00 7.1999998e+00 
0.0000000e+00 0.0000000e+00 7.8000002e+00 
0.0000000e+00 0.0000000e+00 8.3999996e+00 
0.0000000e+00 0.0000000e+00 9.0000000e+00 
0.0000000e+00 0.0000000e+00 9.6000004e+00 
0.0000000e+00 0.0000000e+00 1.0200000e+01 
0.0000000e+00 0.0000000e+00 1.0800000e+01 
0.0000000e+00 0.0000000e+00 1.1400000e+01 
0.0000000e+00 0.0000000e+00 1.2000000e+01 
0.0000000e+00 0.0000000e+00 1.2600000e+01 
0.0000000e+00 0.0000000e+00 1.3200000e+01 
0.0000000e+00 0.0000000e+00 1.3800000e+01 
0.0000000e+00 0.0000000e+00 1.4400000e+01 
0.0000000e+00 0.0000000e+00 1.5000000e+01 
0.0000000e+00 0.0000000e+00 1.5600000e+01 
0.0000000e+00 0.0000000e+00 1.6200001e+01 
0.0000000e+00 0.0000000e+00 1.6799999e+01 
0.0000000e+00 0.0000000e+00 1.7400000e+01 
0.0000000e+00 0.0000000e+00 1.8000000e+01 
6.0000000e+00 0.0000000e+00 0.0000000e+00 
6.0000000e+00 0.0000000e+00 6.0000002e-01 
6.0000000e+00 0.0000000e+00 1.2000000e+00 
6.0000000e+00 0.0000000e+00 1.8000000e+00 
6.0000000e+00 0.0000000e+00 2.4000001e+00 
6.0000000e+00 0.0000000e+00 3.0000000e+00 
6.0000000e+00 0.0000000e+00 3.5999999e+00 
6.0000000e+00 0.0000000e+00 4.1999998e+00 
6.0000000e+00 0.0000000e+00 4.8000002e+00 
6.0000000e+00 0.0000000e+00 5.4000001e+00 
6.0000000e+00 0.0000000e+00 6.0000000e+00 
6.0000000e+00 0.0000000e+00 6.5999999e+00 
6.0000000e+00 0.0000000e+00 7.1999998e+00 
6.0000000e+00 0.0000000e+00 7.8000002e+00 
6.0000000e+00 0.0000000e+00 8.3999996e+00 
6.0000000e+00 0.0000000e+00 9.0000000e+00 
6.0000000e+00 0.0000000e+00 9.6000004e+00 
6.0000000e+00 0.0000000e+00 1.0200000e+01 
6.0000000e+00 0.0000000e+00 1.0800000e+01 
6.0000000e+00 0.0000000e+00 1.1400000e+01 
6.0000000e+00 0.0000000e+00 1.2000000e+01 
6.0000000e+00 0.0000000e+00 1.2600000e+01 
6.0000000e+00 0.0000000e+00 1.3200000e+01 
6.0000000e+00 0.0000000e+00 1.3800000e+01 
6.0000000e+00 0.0000000e+00 1.4400000e+01 
6.0000000e+00 0.0000000e+00 1.5000000e+01 
6.0000000e+00 0.0000000e+00 1.5600000e+01 
6.0000000e+00 0.0000000e+00 1.6200001e+01 
6.0000000e+00 0.0000000e+00 1.6799999e+01 
6.0000000e+00 0.0000000e+00 1.7400000e+01 
6.0000000e+00 0.0000000e+00 1.8000000e+01 
1.2000000e+00 0.0000000e+00 3.0000000e+00 
2.4000001e+00 0.0000000e+00 3.0000000e+00 
3.5999999e+00 0.0000000e+00 3.0000000e+00 
4.8000002e+00 0.0000000e+00 3.0000000e+00 
1.2000000e+00 0.0000000e+00 6.0000000e+00 
2.4000001e+00 0.0000000e+00 6.0000000e+00 
3.5999999e+00 0.0000000e+00 6.0000000e+00 
4.8000002e+00 0.0000000e+00 6.0000000e+00 
1.2000000e+00 0.0000000e+00 9.0000000e+00 
2.4000001e+00 0.0000000e+00 9.0000000e+00 
3.5999999e+00 0.0000000e+00 9.0000000e+00 
4.8000002e+00 0.0000000e+00 9.0000000e+00 
1.2000000e+00 0.0000000e+00 1.2000000e+01 
2.4000001e+00 0.0000000e+00 1.2000000e+01 
3.5999999e+00 0.0000000e+00 1.2000000e+01 
4.8000002e+00 0.0000000e+00 1.2000000e+01 
1.2000000e+00 0.0000000e+00 1.5000000e+01 
2.4000001e+00 0.0000000e+00 1.5000000e+01 
3.5999999e+00 0.0000000e+00 1.5000000e+01 
4.8000002e+00 0.0000000e+00 1.5000000e+01 
1.2000000e+00 0.0000000e+00 1.8000000e+01 
2.4000001e+00 0.0000000e+00 1.8000000e+01 
3.5999999e+00 0.0000000e+00 1.8000000e+01 
4.8000002e+00 0.0000000e+00 1.8000000e+01 

CELLS 90 270
2 0 1
2 1 2
2 2 3
2 3 4
2 4 5
2 5 6
2 6 7
2 7 8
2 8 9
2 9 10
2 10 11
2 11 12
2 12 13
2 13 14
2 14 15
2 15 16
2 16 17
2 17 18
2 18 19
2 19 20
2 20 21
2 21 22
2 22 23
2 23 24
2 24 25
2 25 26
2 26 27
2 27 28
2 28 29
2 29 30
2 31 32
2 32 33
2 33 34
2 34 35
2 35 36
2 36 37
2 37 38
2 38 39
2 39 40
2 40 41
2 41 42
2 42 43
2 43 44
2 44 45
2 45 46
2 46 47
2 47 48
2 48 49
2 49 50
2 50 51
2 51 52
2 52 53
2 53 54
2 54 55
2 55 56
2 56 57
2 57 58
2 58 59
2 59 60
2 60 61
2 5 62
2 62 63
2 63 64
2 64 65
2 65 36
2 10 66
2 66 67
2 67 68
2 68 69
2 69 41
2 15 70
2 70 71
2 71 72
2 72 73
2 73 46
2 20 74
2 74 75
2 75 76
2 76 77
2 77 51
2 25 78
2 78 79
2 79 80
2 80 81
2 81 56
2 30 82
2 82 83
2 83 84
2 84 85
2 85 61

CELL_TYPES 90
3
3
3
3
3
3
3
3
3
3
3
3
3
3
3
3
3
3
3
3
3
3
3
3
3
3
3
3
3
3
3
3
3
3
3
3
3
3
3
3
3
3
3
3
3
3
3
3
3
3
3
3
3
3
3
3
3
3
3
3
3
3
3
3
3
3
3
3
3
3
3
3
3
3
3
3
3
3
3
3
3
3
3
3
3
3
3
3
3
3
POINT_DATA 86
FIELD FieldData 3
ADJOINT_DISPLACEMENT 3 86  float
0.0000000e+00 0.0000000e+00 0.0000000e+00 
-3.9257557e-04 0.0000000e+00 4.7096383e-15 
-7.9051423e-04 0.0000000e+00 9.4192766e-15 
-1.1991790e-03 0.0000000e+00 1.4128915e-14 
-1.6239331e-03 0.0000000e+00 1.8838553e-14 
-2.0701394e-03 0.0000000e+00 2.3548192e-14 
-2.6792819e-03 0.0000000e+00 1.4111072e-05 
-3.6151754e-03 0.0000000e+00 2.8222144e-05 
-4.9166782e-03 0.0000000e+00 4.2333217e-05 
-6.6226493e-03 0.0000000e+00 5.6444289e-05 
-8.7719467e-03 0.0000000e+00 7.0555361e-05 
-1.1821085e-02 0.0000000e+00 1.4158110e-04 
-1.5572030e-02 0.0000000e+00 2.1260683e-04 
-1.9081825e-02 0.0000000e+00 2.8363254e-04 
-2.1407515e-02 0.0000000e+00 3.5465829e-04 
-2.1606138e-02 0.0000000e+00 4.2568403e-04 
-2.1489440e-02 0.0000000e+00 7.6906913e-04 
-2.7788972e-02 0.0000000e+00 1.1124542e-03 
-4.6941496e-02 0.0000000e+00 1.4558394e-03 
-8.5383765e-02 0.0000000e+00 1.7992244e-03 
-1.4955255e-01 0.0000000e+00 2.1426096e-03 
-2.1372816e-01 0.0000000e+00 1.7999556e-03 
-2.5218755e-01 0.0000000e+00 1.4573016e-03 
-2.7136251e-01 0.0000000e+00 1.1146476e-03 
-2.7768481e-01 0.0000000e+00 7.7199354e-04 
-2.7758622e-01 0.0000000e+00 4.2933953e-04 
-2.7781567e-01 0.0000000e+00 3.6126259e-04 
-2.8023276e-01 0.0000000e+00 2.9318561e-04 
-2.8393516e-01 0.0000000e+00 2.2510867e-04 
-2.8802058e-01 0.0000000e+00 1.5703171e-04 
-2.9158667e-01 0.0000000e+00 8.8954752e-05 
0.0000000e+00 0.0000000e+00 0.0000000e+00 
-4.5408876e-04 0.0000000e+00 -4.8055254e-15 
-9.0281444e-04 0.0000000e+00 -9.6110474e-15 
-1.3408141e-03 0.0000000e+00 -1.4416596e-14 
-1.7627244e-03 0.0000000e+00 -1.9222166e-14 
-2.1631825e-03 0.0000000e+00 -2.4027707e-14 
-2.6547036e-03 0.0000000e+00 -1.4111072e-05 
-3.3274721e-03 0.0000000e+00 -2.8222144e-05 
-4.1426304e-03 0.0000000e+00 -4.2333217e-05 
-5.0613186e-03 0.0000000e+00 -5.6444289e-05 
-6.0446793e-03 0.0000000e+00 -7.0555361e-05 
-7.6606628e-03 0.0000000e+00 -1.4158110e-04 
-1.1131763e-02 0.0000000e+00 -2.1260683e-04 
-1.7400941e-02 0.0000000e+00 -2.8363254e-04 
-2.7411152e-02 0.0000000e+00 -3.5465829e-04 
-4.2105354e-02 0.0000000e+00 -4.2568403e-04 
-6.4574271e-02 0.0000000e+00 -7.6906913e-04 
-9.2988826e-02 0.0000000e+00 -1.1124542e-03 
-1.2091225e-01 0.0000000e+00 -1.4558394e-03 
-1.4190780e-01 0.0000000e+00 -1.7992244e-03 
-1.4953868e-01 0.0000000e+00 -2.1426096e-03 
-1.5717593e-01 0.0000000e+00 -1.7999556e-03 
-1.7819382e-01 0.0000000e+00 -1.4573016e-03 
-2.0616060e-01 0.0000000e+00 -1.1146476e-03 
-2.3464450e-01 0.0000000e+00 -7.7199354e-04 
-2.5721377e-01 0.0000000e+00 -4.2933953e-04 
-2.7206182e-01 0.0000000e+00 -3.6126259e-04 
-2.8227144e-01 0.0000000e+00 -2.9318561e-04 
-2.8874502e-01 0.0000000e+00 -2.2510867e-04 
-2.9238480e-01 0.0000000e+00 -1.5703171e-04 
-2.9409310e-01 0.0000000e+00 -8.8954752e-05 
-2.0887479e-03 0.0000000e+00 4.6301956e-04 
-2.1073567e-03 0.0000000e+00 2.8813045e-04 
-2.1259652e-03 0.0000000e+00 -1.1826843e-04 
-2.1445737e-03 0.0000000e+00 -3.4977822e-04 
-8.2264934e-03 0.0000000e+00 2.7864117e-03 
-7.6810396e-03 0.0000000e+00 2.4910865e-03 
-7.1355863e-03 0.0000000e+00 8.2372210e-04 
-6.5901326e-03 0.0000000e+00 -5.7653926e-04 
-2.5705982e-02 0.0000000e+00 -6.7244354e-03 
-2.9805824e-02 0.0000000e+00 -1.8228581e-02 
-3.3905666e-02 0.0000000e+00 -2.6242806e-02 
-3.8005512e-02 0.0000000e+00 -2.2923157e-02 
-1.4954978e-01 0.0000000e+00 2.8582734e-01 
-1.4954701e-01 0.0000000e+00 8.0699915e-01 
-1.4954424e-01 0.0000000e+00 3.4590000e-01 
-1.4954145e-01 0.0000000e+00 8.2772076e-02 
-2.7351174e-01 0.0000000e+00 -6.7410916e-03 
-2.6943722e-01 0.0000000e+00 -1.8319994e-02 
-2.6536274e-01 0.0000000e+00 -2.6399549e-02 
-2.6128826e-01 0.0000000e+00 -2.3071937e-02 
-2.9208797e-01 0.0000000e+00 3.5838524e-03 
-2.9258925e-01 0.0000000e+00 3.3528940e-03 
-2.9309052e-01 0.0000000e+00 1.3566958e-03 
-2.9359183e-01 0.0000000e+00 -4.4412591e-04 
ADJOINT_ROTATION 3 86  float
0.0000000e+00 -6.5280288e-04 0.0000000e+00 
0.0000000e+00 -6.5727212e-04 0.0000000e+00 
0.0000000e+00 -6.7067979e-04 0.0000000e+00 
0.0000000e+00 -6.9302594e-04 0.0000000e+00 
0.0000000e+00 -7.2431046e-04 0.0000000e+00 
0.0000000e+00 -7.6453353e-04 0.0000000e+00 
0.0000000e+00 -1.2767360e-03 0.0000000e+00 
0.0000000e+00 -1.8537029e-03 0.0000000e+00 
0.0000000e+00 -2.4954341e-03 0.0000000e+00 
0.0000000e+00 -3.2019299e-03 0.0000000e+00 
0.0000000e+00 -3.9731897e-03 0.0000000e+00 
0.0000000e+00 -5.9286682e-03 0.0000000e+00 
0.0000000e+00 -6.3125510e-03 0.0000000e+00 
0.0000000e+00 -5.1248367e-03 0.0000000e+00 
0.0000000e+00 -2.3655267e-03 0.0000000e+00 
0.0000000e+00 1.9653798e-03 0.0000000e+00 
0.0000000e+00 -3.3643723e-03 0.0000000e+00 
0.0000000e+00 -1.9422058e-02 0.0000000e+00 
0.0000000e+00 -4.6207674e-02 0.0000000e+00 
0.0000000e+00 -8.3721228e-02 0.0000000e+00 
0.0000000e+00 -1.3196270e-01 0.0000000e+00 
0.0000000e+00 -8.3742566e-02 0.0000000e+00 
0.0000000e+00 -4.6242032e-02 0.0000000e+00 
0.0000000e+00 -1.9461116e-02 0.0000000e+00 
0.0000000e+00 -3.3998115e-03 0.0000000e+00 
0.0000000e+00 1.9418795e-03 0.0000000e+00 
0.0000000e+00 -2.4560972e-03 0.0000000e+00 
0.0000000e+00 -5.3502205e-03 0.0000000e+00 
0.0000000e+00 -6.7404904e-03 0.0000000e+00 
0.0000000e+00 -6.6269073e-03 0.0000000e+00 
0.0000000e+00 -5.0094705e-03 0.0000000e+00 
0.0000000e+00 -7.5830438e-04 0.0000000e+00 
0.0000000e+00 -7.5383513e-04 0.0000000e+00 
0.0000000e+00 -7.4042747e-04 0.0000000e+00 
0.0000000e+00 -7.1808131e-04 0.0000000e+00 
0.0000000e+00 -6.8679679e-04 0.0000000e+00 
0.0000000e+00 -6.4657372e-04 0.0000000e+00 
0.0000000e+00 -9.8103553e-04 0.0000000e+00 
0.0000000e+00 -1.2507330e-03 0.0000000e+00 
0.0000000e+00 -1.4556661e-03 0.0000000e+00 
0.0000000e+00 -1.5958349e-03 0.0000000e+00 
0.0000000e+00 -1.6712394e-03 0.0000000e+00 
0.0000000e+00 -3.9773043e-03 0.0000000e+00 
0.0000000e+00 -7.8549664e-03 0.0000000e+00 
0.0000000e+00 -1.3304224e-02 0.0000000e+00 
0.0000000e+00 -2.0325078e-02 0.0000000e+00 
0.0000000e+00 -2.8917529e-02 0.0000000e+00 
0.0000000e+00 -4.4190884e-02 0.0000000e+00 
0.0000000e+00 -4.8736304e-02 0.0000000e+00 
0.0000000e+00 -4.2553794e-02 0.0000000e+00 
0.0000000e+00 -2.5643351e-02 0.0000000e+00 
0.0000000e+00 1.9950264e-03 0.0000000e+00 
0.0000000e+00 -2.5665877e-02 0.0000000e+00 
0.0000000e+00 -4.2607166e-02 0.0000000e+00 
0.0000000e+00 -4.8828844e-02 0.0000000e+00 
0.0000000e+00 -4.4330910e-02 0.0000000e+00 
0.0000000e+00 -2.9113358e-02 0.0000000e+00 
0.0000000e+00 -2.0630764e-02 0.0000000e+00 
0.0000000e+00 -1.3652024e-02 0.0000000e+00 
0.0000000e+00 -8.1771361e-03 0.0000000e+00 
0.0000000e+00 -4.2061023e-03 0.0000000e+00 
0.0000000e+00 -1.7389220e-03 0.0000000e+00 
0.0000000e+00 -6.3610067e-05 0.0000000e+00 
0.0000000e+00 2.9864762e-04 0.0000000e+00 
0.0000000e+00 3.2223956e-04 0.0000000e+00 
0.0000000e+00 7.1657792e-06 0.0000000e+00 
0.0000000e+00 -7.8089599e-04 0.0000000e+00 
0.0000000e+00 1.0454459e-03 0.0000000e+00 
0.0000000e+00 1.5058360e-03 0.0000000e+00 
0.0000000e+00 6.0027424e-04 0.0000000e+00 
0.0000000e+00 8.8620484e-03 0.0000000e+00 
0.0000000e+00 9.2220921e-03 0.0000000e+00 
0.0000000e+00 3.0455103e-03 0.0000000e+00 
0.0000000e+00 -9.6676964e-03 0.0000000e+00 
0.0000000e+00 -3.3810103e-01 0.0000000e+00 
0.0000000e+00 -5.2777445e-01 0.0000000e+00 
0.0000000e+00 2.9901710e-01 0.0000000e+00 
0.0000000e+00 1.4227360e-01 0.0000000e+00 
0.0000000e+00 8.9105302e-03 0.0000000e+00 
0.0000000e+00 9.2893317e-03 0.0000000e+00 
0.0000000e+00 3.0782844e-03 0.0000000e+00 
0.0000000e+00 -9.7226128e-03 0.0000000e+00 
0.0000000e+00 -1.0876668e-03 0.0000000e+00 
0.0000000e+00 1.2002897e-03 0.0000000e+00 
0.0000000e+00 1.8543995e-03 0.0000000e+00 
0.0000000e+00 8.7466225e-04 0.0000000e+00 
SHAPE_SENSITIVITY 3 86  float
0.0000000e+00 0.0000000e+00 0.0000000e+00 
0.0000000e+00 0.0000000e+00 0.0000000e+00 
0.0000000e+00 0.0000000e+00 0.0000000e+00 
0.0000000e+00 0.0000000e+00 0.0000000e+00 
0.0000000e+00 0.0000000e+00 0.0000000e+00 
0.0000000e+00 0.0000000e+00 0.0000000e+00 
0.0000000e+00 0.0000000e+00 0.0000000e+00 
0.0000000e+00 0.0000000e+00 0.0000000e+00 
0.0000000e+00 0.0000000e+00 0.0000000e+00 
0.0000000e+00 0.0000000e+00 0.0000000e+00 
0.0000000e+00 0.0000000e+00 0.0000000e+00 
0.0000000e+00 0.0000000e+00 0.0000000e+00 
0.0000000e+00 0.0000000e+00 0.0000000e+00 
0.0000000e+00 0.0000000e+00 0.0000000e+00 
0.0000000e+00 0.0000000e+00 0.0000000e+00 
0.0000000e+00 0.0000000e+00 0.0000000e+00 
0.0000000e+00 0.0000000e+00 0.0000000e+00 
0.0000000e+00 0.0000000e+00 0.0000000e+00 
0.0000000e+00 0.0000000e+00 0.0000000e+00 
0.0000000e+00 0.0000000e+00 0.0000000e+00 
0.0000000e+00 0.0000000e+00 0.0000000e+00 
0.0000000e+00 0.0000000e+00 0.0000000e+00 
0.0000000e+00 0.0000000e+00 0.0000000e+00 
0.0000000e+00 0.0000000e+00 0.0000000e+00 
0.0000000e+00 0.0000000e+00 0.0000000e+00 
0.0000000e+00 0.0000000e+00 0.0000000e+00 
0.0000000e+00 0.0000000e+00 0.0000000e+00 
0.0000000e+00 0.0000000e+00 0.0000000e+00 
0.0000000e+00 0.0000000e+00 0.0000000e+00 
0.0000000e+00 0.0000000e+00 0.0000000e+00 
0.0000000e+00 0.0000000e+00 0.0000000e+00 
0.0000000e+00 0.0000000e+00 0.0000000e+00 
0.0000000e+00 0.0000000e+00 0.0000000e+00 
0.0000000e+00 0.0000000e+00 0.0000000e+00 
0.0000000e+00 0.0000000e+00 0.0000000e+00 
0.0000000e+00 0.0000000e+00 0.0000000e+00 
0.0000000e+00 0.0000000e+00 0.0000000e+00 
0.0000000e+00 0.0000000e+00 0.0000000e+00 
0.0000000e+00 0.0000000e+00 0.0000000e+00 
0.0000000e+00 0.0000000e+00 0.0000000e+00 
0.0000000e+00 0.0000000e+00 0.0000000e+00 
0.0000000e+00 0.0000000e+00 0.0000000e+00 
0.0000000e+00 0.0000000e+00 0.0000000e+00 
0.0000000e+00 0.0000000e+00 0.0000000e+00 
0.0000000e+00 0.0000000e+00 0.0000000e+00 
0.0000000e+00 0.0000000e+00 0.0000000e+00 
0.0000000e+00 0.0000000e+00 0.0000000e+00 
0.0000000e+00 0.0000000e+00 0.0000000e+00 
0.0000000e+00 0.0000000e+00 0.0000000e+00 
0.0000000e+00 0.0000000e+00 0.0000000e+00 
0.0000000e+00 0.0000000e+00 0.0000000e+00 
0.0000000e+00 0.0000000e+00 0.0000000e+00 
0.0000000e+00 0.0000000e+00 0.0000000e+00 
0.0000000e+00 0.0000000e+00 0.0000000e+00 
0.0000000e+00 0.0000000e+00 0.0000000e+00 
0.0000000e+00 0.0000000e+00 0.0000000e+00 
0.0000000e+00 0.0000000e+00 0.0000000e+00 
0.0000000e+00 0.0000000e+00 0.0000000e+00 
0.0000000e+00 0.0000000e+00 0.0000000e+00 
0.0000000e+00 0.0000000e+00 0.0000000e+00 
0.0000000e+00 0.0000000e+00 0.0000000e+00 
0.0000000e+00 0.0000000e+00 0.0000000e+00 
0.0000000e+00 0.0000000e+00 0.0000000e+00 
0.0000000e+00 0.0000000e+00 0.0000000e+00 
0.0000000e+00 0.0000000e+00 0.0000000e+00 
0.0000000e+00 0.0000000e+00 0.0000000e+00 
0.0000000e+00 0.0000000e+00 0.0000000e+00 
0.0000000e+00 0.0000000e+00 0.0000000e+00 
0.0000000e+00 0.0000000e+00 0.0000000e+00 
0.0000000e+00 0.0000000e+00 0.0000000e+00 
0.0000000e+00 0.0000000e+00 0.0000000e+00 
0.0000000e+00 0.0000000e+00 0.0000000e+00 
0.0000000e+00 0.0000000e+00 0.0000000e+00 
0.0000000e+00 0.0000000e+00 0.0000000e+00 
0.0000000e+00 0.0000000e+00 0.0000000e+00 
0.0000000e+00 0.0000000e+00 0.0000000e+00 
0.0000000e+00 0.0000000e+00 0.0000000e+00 
0.0000000e+00 0.0000000e+00 0.0000000e+00 
0.0000000e+00 0.0000000e+00 0.0000000e+00 
0.0000000e+00 0.0000000e+00 0.0000000e+00 
0.0000000e+00 0.0000000e+00 0.0000000e+00 
0.0000000e+00 0.0000000e+00 0.0000000e+00 
0.0000000e+00 0.0000000e+00 0.0000000e+00 
0.0000000e+00 0.0000000e+00 0.0000000e+00 
0.0000000e+00 0.0000000e+00 0.0000000e+00 
0.0000000e+00 0.0000000e+00 0.0000000e+00 
CELL_DATA 90
FIELD FieldData 1
I22_SENSITIVITY 1 90  float
-5.0251601e-06
-3.5176192e-05
-9.5478237e-05
-1.8593132e-04
-3.0653545e-04
5.3595193e-03
3.2523172e-03
5.1917240e-04
-2.8399152e-03
-6.8249460e-03
1.7734859e-02
2.2508942e-03
6.5002259e-04
1.2932245e-02
3.9097559e-02
4.3140534e-02
6.6845872e-02
-4.4466653e-03
-1.7073707e-01
-4.3202534e-01
-4.3431598e-01
-1.7965552e-01
-1.5868235e-02
5.7045873e-02
3.9086804e-02
4.1589402e-02
9.3225967e-03
-3.9084903e-03
1.8961411e-03
2.6736490e-02
-5.0251870e-06
-3.5176225e-05
-9.5478274e-05
-1.8593139e-04
-3.0653554e-04
-3.5428097e-03
-1.5585356e-03
-2.0020442e-04
5.3218397e-04
6.3862960e-04
-1.9653806e-02
-1.6315058e-02
9.0678269e-04
3.2011718e-02
7.6999746e-02
-1.3892819e-01
-2.4000647e-02
-4.0709791e-03
-7.9139180e-02
-2.4920526e-01
-2.5075448e-01
-8.3237261e-02
-6.5932078e-03
-2.0822335e-02
-1.2592463e-01
7.9478882e-02
2.1360615e-02
-1.7721938e-02
-3.7768770e-02
-3.8779885e-02
7.2406270e-03
-2.7898699e-03
-3.4529690e-04
2.3823795e-03
-6.7988071e-03
3.5336215e-02
-1.2854962e-02
-6.3471938e-03
5.6852554e-03
-2.5931880e-02
8.3096460e-02
3.7114315e-03
8.5525930e-02
9.3221448e-02
-2.0852052e-01
-2.1221333e+00
1.4753240e+00
2.4015422e+00
1.2492591e+00
-1.3887877e+00
8.6950503e-02
3.7814558e-03
8.3314396e-02
8.8314779e-02
-2.1845199e-01
3.1521443e-02
-2.3066306e-02
-1.0986249e-02
8.9431265e-03
-2.2096669e-02
