# vtk DataFile Version 4.0
vtk output
ASCII
DATASET UNSTRUCTURED_GRID
POINTS 48 float
0.0000000e+00 0.0000000e+00 0.0000000e+00 
0.0000000e+00 0.0000000e+00 5.0000000e-01 
0.0000000e+00 0.0000000e+00 1.0000000e+00 
0.0000000e+00 0.0000000e+00 1.5000000e+00 
0.0000000e+00 0.0000000e+00 2.0000000e+00 
0.0000000e+00 0.0000000e+00 2.5000000e+00 
0.0000000e+00 0.0000000e+00 3.0000000e+00 
0.0000000e+00 0.0000000e+00 3.5000000e+00 
0.0000000e+00 0.0000000e+00 4.0000000e+00 
0.0000000e+00 0.0000000e+00 4.5000000e+00 
0.0000000e+00 0.0000000e+00 5.0000000e+00 
0.0000000e+00 0.0000000e+00 5.5000000e+00 
0.0000000e+00 0.0000000e+00 6.0000000e+00 
0.0000000e+00 0.0000000e+00 6.5000000e+00 
0.0000000e+00 0.0000000e+00 7.0000000e+00 
0.0000000e+00 0.0000000e+00 7.5000000e+00 
0.0000000e+00 0.0000000e+00 8.0000000e+00 
4.0000000e+00 0.0000000e+00 0.0000000e+00 
4.0000000e+00 0.0000000e+00 5.0000000e-01 
4.0000000e+00 0.0000000e+00 1.0000000e+00 
4.0000000e+00 0.0000000e+00 1.5000000e+00 
4.0000000e+00 0.0000000e+00 2.0000000e+00 
4.0000000e+00 0.0000000e+00 2.5000000e+00 
4.0000000e+00 0.0000000e+00 3.0000000e+00 
4.0000000e+00 0.0000000e+00 3.5000000e+00 
4.0000000e+00 0.0000000e+00 4.0000000e+00 
4.0000000e+00 0.0000000e+00 4.5000000e+00 
4.0000000e+00 0.0000000e+00 5.0000000e+00 
4.0000000e+00 0.0000000e+00 5.5000000e+00 
4.0000000e+00 0.0000000e+00 6.0000000e+00 
4.0000000e+00 0.0000000e+00 6.5000000e+00 
4.0000000e+00 0.0000000e+00 7.0000000e+00 
4.0000000e+00 0.0000000e+00 7.5000000e+00 
4.0000000e+00 0.0000000e+00 8.0000000e+00 
5.0000000e-01 0.0000000e+00 4.0000000e+00 
1.0000000e+00 0.0000000e+00 4.0000000e+00 
1.5000000e+00 0.0000000e+00 4.0000000e+00 
2.0000000e+00 0.0000000e+00 4.0000000e+00 
2.5000000e+00 0.0000000e+00 4.0000000e+00 
3.0000000e+00 0.0000000e+00 4.0000000e+00 
3.5000000e+00 0.0000000e+00 4.0000000e+00 
5.0000000e-01 0.0000000e+00 8.0000000e+00 
1.0000000e+00 0.0000000e+00 8.0000000e+00 
1.5000000e+00 0.0000000e+00 8.0000000e+00 
2.0000000e+00 0.0000000e+00 8.0000000e+00 
2.5000000e+00 0.0000000e+00 8.0000000e+00 
3.0000000e+00 0.0000000e+00 8.0000000e+00 
3.5000000e+00 0.0000000e+00 8.0000000e+00 

CELLS 48 144
2 0 1
2 1 2
2 2 3
2 3 4
2 4 5
2 5 6
2 6 7
2 7 8
2 8 9
2 9 10
2 10 11
2 11 12
2 12 13
2 13 14
2 14 15
2 15 16
2 17 18
2 18 19
2 19 20
2 20 21
2 21 22
2 22 23
2 23 24
2 24 25
2 25 26
2 26 27
2 27 28
2 28 29
2 29 30
2 30 31
2 31 32
2 32 33
2 8 34
2 34 35
2 35 36
2 36 37
2 37 38
2 38 39
2 39 40
2 40 25
2 16 41
2 41 42
2 42 43
2 43 44
2 44 45
2 45 46
2 46 47
2 47 33

CELL_TYPES 48
3
3
3
3
3
3
3
3
3
3
3
3
3
3
3
3
3
3
3
3
3
3
3
3
3
3
3
3
3
3
3
3
3
3
3
3
3
3
3
3
3
3
3
3
3
3
3
3
POINT_DATA 48
FIELD FieldData 3
ADJOINT_DISPLACEMENT 3 48  float
0.0000000e+00 0.0000000e+00 0.0000000e+00 
-3.7086010e-02 0.0000000e+00 6.2761914e-15 
-7.3382810e-02 0.0000000e+00 1.2552383e-14 
-1.0810118e-01 0.0000000e+00 1.8828573e-14 
-1.4045192e-01 0.0000000e+00 2.5104766e-14 
-1.6964583e-01 0.0000000e+00 3.1380958e-14 
-1.9489366e-01 0.0000000e+00 3.7657147e-14 
-2.1540624e-01 0.0000000e+00 4.3933339e-14 
-2.3039433e-01 0.0000000e+00 5.0209531e-14 
-2.4076830e-01 0.0000000e+00 5.1137646e-14 
-2.4825543e-01 0.0000000e+00 5.2102599e-14 
-2.5329185e-01 0.0000000e+00 5.3039275e-14 
-2.5631368e-01 0.0000000e+00 5.3979919e-14 
-2.5775713e-01 0.0000000e+00 5.4919018e-14 
-2.5805825e-01 0.0000000e+00 5.5851730e-14 
-2.5765327e-01 0.0000000e+00 5.6774047e-14 
-2.5697830e-01 0.0000000e+00 5.7698495e-14 
0.0000000e+00 0.0000000e+00 0.0000000e+00 
-4.6291399e-01 0.0000000e+00 -6.5850103e-15 
-4.2661721e-01 0.0000000e+00 -1.3161693e-14 
-3.9189881e-01 0.0000000e+00 -1.9714541e-14 
-3.5954806e-01 0.0000000e+00 -2.6296732e-14 
-3.3035418e-01 0.0000000e+00 -3.2855280e-14 
-3.0510634e-01 0.0000000e+00 -3.9373381e-14 
-2.8459376e-01 0.0000000e+00 -4.5846597e-14 
-2.6960567e-01 0.0000000e+00 -5.2214638e-14 
-2.5923169e-01 0.0000000e+00 -5.3121580e-14 
-2.5174457e-01 0.0000000e+00 -5.4025303e-14 
-2.4670815e-01 0.0000000e+00 -5.4885448e-14 
-2.4368630e-01 0.0000000e+00 -5.5768886e-14 
-2.4224289e-01 0.0000000e+00 -5.6665203e-14 
-2.4194174e-01 0.0000000e+00 -5.7574523e-14 
-2.4234673e-01 0.0000000e+00 -5.8471531e-14 
-2.4302171e-01 0.0000000e+00 -5.9382959e-14 
-2.3529574e-01 0.0000000e+00 1.0467434e-02 
-2.4019717e-01 0.0000000e+00 1.7944174e-02 
-2.4509858e-01 0.0000000e+00 2.2430217e-02 
-2.5000000e-01 0.0000000e+00 2.3925565e-02 
-2.5490141e-01 0.0000000e+00 2.2430217e-02 
-2.5980285e-01 0.0000000e+00 1.7944174e-02 
-2.6470426e-01 0.0000000e+00 1.0467434e-02 
-2.5523371e-01 0.0000000e+00 -5.8152416e-04 
-2.5348914e-01 0.0000000e+00 -9.9689851e-04 
-2.5174457e-01 0.0000000e+00 -1.2461232e-03 
-2.5000000e-01 0.0000000e+00 -1.3291980e-03 
-2.4825543e-01 0.0000000e+00 -1.2461232e-03 
-2.4651085e-01 0.0000000e+00 -9.9689851e-04 
-2.4476628e-01 0.0000000e+00 -5.8152416e-04 
ADJOINT_ROTATION 3 48  float
0.0000000e+00 -7.4435093e-02 0.0000000e+00 
0.0000000e+00 -7.3645882e-02 0.0000000e+00 
0.0000000e+00 -7.1278244e-02 0.0000000e+00 
0.0000000e+00 -6.7332186e-02 0.0000000e+00 
0.0000000e+00 -6.1807711e-02 0.0000000e+00 
0.0000000e+00 -5.4704808e-02 0.0000000e+00 
0.0000000e+00 -4.6023484e-02 0.0000000e+00 
0.0000000e+00 -3.5763737e-02 0.0000000e+00 
0.0000000e+00 -2.3925565e-02 0.0000000e+00 
0.0000000e+00 -1.7715719e-02 0.0000000e+00 
0.0000000e+00 -1.2378157e-02 0.0000000e+00 
0.0000000e+00 -7.9128826e-03 0.0000000e+00 
0.0000000e+00 -4.3198937e-03 0.0000000e+00 
0.0000000e+00 -1.5991915e-03 0.0000000e+00 
0.0000000e+00 2.4922463e-04 0.0000000e+00 
0.0000000e+00 1.2253545e-03 0.0000000e+00 
0.0000000e+00 1.3291980e-03 0.0000000e+00 
0.0000000e+00 -9.2556489e-01 0.0000000e+00 
0.0000000e+00 -9.2635411e-01 0.0000000e+00 
0.0000000e+00 7.1278244e-02 0.0000000e+00 
0.0000000e+00 6.7332186e-02 0.0000000e+00 
0.0000000e+00 6.1807711e-02 0.0000000e+00 
0.0000000e+00 5.4704808e-02 0.0000000e+00 
0.0000000e+00 4.6023484e-02 0.0000000e+00 
0.0000000e+00 3.5763737e-02 0.0000000e+00 
0.0000000e+00 2.3925565e-02 0.0000000e+00 
0.0000000e+00 1.7715719e-02 0.0000000e+00 
0.0000000e+00 1.2378157e-02 0.0000000e+00 
0.0000000e+00 7.9128826e-03 0.0000000e+00 
0.0000000e+00 4.3198937e-03 0.0000000e+00 
0.0000000e+00 1.5991915e-03 0.0000000e+00 
0.0000000e+00 -2.4922463e-04 0.0000000e+00 
0.0000000e+00 -1.2253545e-03 0.0000000e+00 
0.0000000e+00 -1.3291980e-03 0.0000000e+00 
0.0000000e+00 -1.7944174e-02 0.0000000e+00 
0.0000000e+00 -1.1962783e-02 0.0000000e+00 
0.0000000e+00 -5.9813913e-03 0.0000000e+00 
0.0000000e+00 1.8492493e-14 0.0000000e+00 
0.0000000e+00 5.9813913e-03 0.0000000e+00 
0.0000000e+00 1.1962783e-02 0.0000000e+00 
0.0000000e+00 1.7944174e-02 0.0000000e+00 
0.0000000e+00 9.9689851e-04 0.0000000e+00 
0.0000000e+00 6.6459901e-04 0.0000000e+00 
0.0000000e+00 3.3229950e-04 0.0000000e+00 
0.0000000e+00 2.8045852e-14 0.0000000e+00 
0.0000000e+00 -3.3229950e-04 0.0000000e+00 
0.0000000e+00 -6.6459901e-04 0.0000000e+00 
0.0000000e+00 -9.9689851e-04 0.0000000e+00 
SHAPE_SENSITIVITY 3 48  float
0.0000000e+00 0.0000000e+00 0.0000000e+00 
0.0000000e+00 0.0000000e+00 0.0000000e+00 
0.0000000e+00 0.0000000e+00 0.0000000e+00 
0.0000000e+00 0.0000000e+00 0.0000000e+00 
0.0000000e+00 0.0000000e+00 0.0000000e+00 
0.0000000e+00 0.0000000e+00 0.0000000e+00 
0.0000000e+00 0.0000000e+00 0.0000000e+00 
0.0000000e+00 0.0000000e+00 0.0000000e+00 
0.0000000e+00 0.0000000e+00 0.0000000e+00 
0.0000000e+00 0.0000000e+00 0.0000000e+00 
0.0000000e+00 0.0000000e+00 0.0000000e+00 
0.0000000e+00 0.0000000e+00 0.0000000e+00 
0.0000000e+00 0.0000000e+00 0.0000000e+00 
0.0000000e+00 0.0000000e+00 0.0000000e+00 
0.0000000e+00 0.0000000e+00 0.0000000e+00 
0.0000000e+00 0.0000000e+00 0.0000000e+00 
0.0000000e+00 0.0000000e+00 0.0000000e+00 
0.0000000e+00 0.0000000e+00 0.0000000e+00 
0.0000000e+00 0.0000000e+00 0.0000000e+00 
0.0000000e+00 0.0000000e+00 0.0000000e+00 
0.0000000e+00 0.0000000e+00 0.0000000e+00 
0.0000000e+00 0.0000000e+00 0.0000000e+00 
0.0000000e+00 0.0000000e+00 0.0000000e+00 
0.0000000e+00 0.0000000e+00 0.0000000e+00 
0.0000000e+00 0.0000000e+00 0.0000000e+00 
0.0000000e+00 0.0000000e+00 0.0000000e+00 
0.0000000e+00 0.0000000e+00 0.0000000e+00 
0.0000000e+00 0.0000000e+00 0.0000000e+00 
0.0000000e+00 0.0000000e+00 0.0000000e+00 
0.0000000e+00 0.0000000e+00 0.0000000e+00 
0.0000000e+00 0.0000000e+00 0.0000000e+00 
0.0000000e+00 0.0000000e+00 0.0000000e+00 
0.0000000e+00 0.0000000e+00 0.0000000e+00 
0.0000000e+00 0.0000000e+00 0.0000000e+00 
0.0000000e+00 0.0000000e+00 0.0000000e+00 
0.0000000e+00 0.0000000e+00 0.0000000e+00 
0.0000000e+00 0.0000000e+00 0.0000000e+00 
0.0000000e+00 0.0000000e+00 0.0000000e+00 
0.0000000e+00 0.0000000e+00 0.0000000e+00 
0.0000000e+00 0.0000000e+00 0.0000000e+00 
0.0000000e+00 0.0000000e+00 0.0000000e+00 
0.0000000e+00 0.0000000e+00 0.0000000e+00 
0.0000000e+00 0.0000000e+00 0.0000000e+00 
0.0000000e+00 0.0000000e+00 0.0000000e+00 
0.0000000e+00 0.0000000e+00 0.0000000e+00 
0.0000000e+00 0.0000000e+00 0.0000000e+00 
0.0000000e+00 0.0000000e+00 0.0000000e+00 
0.0000000e+00 0.0000000e+00 0.0000000e+00 
CELL_DATA 48
FIELD FieldData 1
I22_SENSITIVITY 1 48  float
-1.2483358e-03
-8.7383268e-03
-2.3718297e-02
-4.6188280e-02
-7.6148227e-02
-1.1359818e-01
-1.5853812e-01
-2.1096805e-01
1.2270945e-01
6.8296880e-02
2.6058439e-02
-4.0058689e-03
-2.1896046e-02
-2.7612090e-02
-2.1154003e-02
-2.5217847e-03
-1.2482790e-03
-8.7383306e-03
-2.3718311e-02
-4.6188265e-02
-7.6148227e-02
-1.1359818e-01
-1.5853812e-01
-2.1096805e-01
1.2270945e-01
6.8296880e-02
2.6058439e-02
-4.0058694e-03
-2.1896046e-02
-2.7612090e-02
-2.1154003e-02
-2.5217843e-03
-1.4743456e-01
3.2007169e-02
1.5163505e-01
2.1144892e-01
2.1144894e-01
1.5163504e-01
3.2007258e-02
-1.4743456e-01
5.0371313e-03
-4.9318513e-03
-1.1577847e-02
-1.4900843e-02
-1.4900843e-02
-1.1577848e-02
-4.9318583e-03
5.0371271e-03
