# vtk DataFile Version 4.0
vtk output
ASCII
DATASET UNSTRUCTURED_GRID
POINTS 212 float
0.0000000e+00 0.0000000e+00 0.0000000e+00 
0.0000000e+00 0.0000000e+00 2.5000000e-01 
0.0000000e+00 0.0000000e+00 5.0000000e-01 
0.0000000e+00 0.0000000e+00 7.5000000e-01 
0.0000000e+00 0.0000000e+00 1.0000000e+00 
0.0000000e+00 0.0000000e+00 1.2500000e+00 
0.0000000e+00 0.0000000e+00 1.5000000e+00 
0.0000000e+00 0.0000000e+00 1.7500000e+00 
0.0000000e+00 0.0000000e+00 2.0000000e+00 
0.0000000e+00 0.0000000e+00 2.2500000e+00 
0.0000000e+00 0.0000000e+00 2.5000000e+00 
0.0000000e+00 0.0000000e+00 2.7500000e+00 
0.0000000e+00 0.0000000e+00 3.0000000e+00 
0.0000000e+00 0.0000000e+00 3.2500000e+00 
0.0000000e+00 0.0000000e+00 3.5000000e+00 
0.0000000e+00 0.0000000e+00 3.7500000e+00 
0.0000000e+00 0.0000000e+00 4.0000000e+00 
0.0000000e+00 0.0000000e+00 4.2500000e+00 
0.0000000e+00 0.0000000e+00 4.5000000e+00 
0.0000000e+00 0.0000000e+00 4.7500000e+00 
0.0000000e+00 0.0000000e+00 5.0000000e+00 
0.0000000e+00 0.0000000e+00 5.2500000e+00 
0.0000000e+00 0.0000000e+00 5.5000000e+00 
0.0000000e+00 0.0000000e+00 5.7500000e+00 
0.0000000e+00 0.0000000e+00 6.0000000e+00 
0.0000000e+00 0.0000000e+00 6.2500000e+00 
0.0000000e+00 0.0000000e+00 6.5000000e+00 
0.0000000e+00 0.0000000e+00 6.7500000e+00 
0.0000000e+00 0.0000000e+00 7.0000000e+00 
0.0000000e+00 0.0000000e+00 7.2500000e+00 
0.0000000e+00 0.0000000e+00 7.5000000e+00 
0.0000000e+00 0.0000000e+00 7.7500000e+00 
0.0000000e+00 0.0000000e+00 8.0000000e+00 
0.0000000e+00 0.0000000e+00 8.2500000e+00 
0.0000000e+00 0.0000000e+00 8.5000000e+00 
0.0000000e+00 0.0000000e+00 8.7500000e+00 
0.0000000e+00 0.0000000e+00 9.0000000e+00 
0.0000000e+00 0.0000000e+00 9.2500000e+00 
0.0000000e+00 0.0000000e+00 9.5000000e+00 
0.0000000e+00 0.0000000e+00 9.7500000e+00 
0.0000000e+00 0.0000000e+00 1.0000000e+01 
0.0000000e+00 0.0000000e+00 1.0250000e+01 
0.0000000e+00 0.0000000e+00 1.0500000e+01 
0.0000000e+00 0.0000000e+00 1.0750000e+01 
0.0000000e+00 0.0000000e+00 1.1000000e+01 
0.0000000e+00 0.0000000e+00 1.1250000e+01 
0.0000000e+00 0.0000000e+00 1.1500000e+01 
0.0000000e+00 0.0000000e+00 1.1750000e+01 
0.0000000e+00 0.0000000e+00 1.2000000e+01 
0.0000000e+00 0.0000000e+00 1.2250000e+01 
0.0000000e+00 0.0000000e+00 1.2500000e+01 
0.0000000e+00 0.0000000e+00 1.2750000e+01 
0.0000000e+00 0.0000000e+00 1.3000000e+01 
0.0000000e+00 0.0000000e+00 1.3250000e+01 
0.0000000e+00 0.0000000e+00 1.3500000e+01 
0.0000000e+00 0.0000000e+00 1.3750000e+01 
0.0000000e+00 0.0000000e+00 1.4000000e+01 
0.0000000e+00 0.0000000e+00 1.4250000e+01 
0.0000000e+00 0.0000000e+00 1.4500000e+01 
0.0000000e+00 0.0000000e+00 1.4750000e+01 
0.0000000e+00 0.0000000e+00 1.5000000e+01 
0.0000000e+00 0.0000000e+00 1.5250000e+01 
0.0000000e+00 0.0000000e+00 1.5500000e+01 
0.0000000e+00 0.0000000e+00 1.5750000e+01 
0.0000000e+00 0.0000000e+00 1.6000000e+01 
0.0000000e+00 0.0000000e+00 1.6250000e+01 
0.0000000e+00 0.0000000e+00 1.6500000e+01 
0.0000000e+00 0.0000000e+00 1.6750000e+01 
0.0000000e+00 0.0000000e+00 1.7000000e+01 
0.0000000e+00 0.0000000e+00 1.7250000e+01 
0.0000000e+00 0.0000000e+00 1.7500000e+01 
0.0000000e+00 0.0000000e+00 1.7750000e+01 
0.0000000e+00 0.0000000e+00 1.8000000e+01 
6.0000000e+00 0.0000000e+00 0.0000000e+00 
6.0000000e+00 0.0000000e+00 2.5000000e-01 
6.0000000e+00 0.0000000e+00 5.0000000e-01 
6.0000000e+00 0.0000000e+00 7.5000000e-01 
6.0000000e+00 0.0000000e+00 1.0000000e+00 
6.0000000e+00 0.0000000e+00 1.2500000e+00 
6.0000000e+00 0.0000000e+00 1.5000000e+00 
6.0000000e+00 0.0000000e+00 1.7500000e+00 
6.0000000e+00 0.0000000e+00 2.0000000e+00 
6.0000000e+00 0.0000000e+00 2.2500000e+00 
6.0000000e+00 0.0000000e+00 2.5000000e+00 
6.0000000e+00 0.0000000e+00 2.7500000e+00 
6.0000000e+00 0.0000000e+00 3.0000000e+00 
6.0000000e+00 0.0000000e+00 3.2500000e+00 
6.0000000e+00 0.0000000e+00 3.5000000e+00 
6.0000000e+00 0.0000000e+00 3.7500000e+00 
6.0000000e+00 0.0000000e+00 4.0000000e+00 
6.0000000e+00 0.0000000e+00 4.2500000e+00 
6.0000000e+00 0.0000000e+00 4.5000000e+00 
6.0000000e+00 0.0000000e+00 4.7500000e+00 
6.0000000e+00 0.0000000e+00 5.0000000e+00 
6.0000000e+00 0.0000000e+00 5.2500000e+00 
6.0000000e+00 0.0000000e+00 5.5000000e+00 
6.0000000e+00 0.0000000e+00 5.7500000e+00 
6.0000000e+00 0.0000000e+00 6.0000000e+00 
6.0000000e+00 0.0000000e+00 6.2500000e+00 
6.0000000e+00 0.0000000e+00 6.5000000e+00 
6.0000000e+00 0.0000000e+00 6.7500000e+00 
6.0000000e+00 0.0000000e+00 7.0000000e+00 
6.0000000e+00 0.0000000e+00 7.2500000e+00 
6.0000000e+00 0.0000000e+00 7.5000000e+00 
6.0000000e+00 0.0000000e+00 7.7500000e+00 
6.0000000e+00 0.0000000e+00 8.0000000e+00 
6.0000000e+00 0.0000000e+00 8.2500000e+00 
6.0000000e+00 0.0000000e+00 8.5000000e+00 
6.0000000e+00 0.0000000e+00 8.7500000e+00 
6.0000000e+00 0.0000000e+00 9.0000000e+00 
6.0000000e+00 0.0000000e+00 9.2500000e+00 
6.0000000e+00 0.0000000e+00 9.5000000e+00 
6.0000000e+00 0.0000000e+00 9.7500000e+00 
6.0000000e+00 0.0000000e+00 1.0000000e+01 
6.0000000e+00 0.0000000e+00 1.0250000e+01 
6.0000000e+00 0.0000000e+00 1.0500000e+01 
6.0000000e+00 0.0000000e+00 1.0750000e+01 
6.0000000e+00 0.0000000e+00 1.1000000e+01 
6.0000000e+00 0.0000000e+00 1.1250000e+01 
6.0000000e+00 0.0000000e+00 1.1500000e+01 
6.0000000e+00 0.0000000e+00 1.1750000e+01 
6.0000000e+00 0.0000000e+00 1.2000000e+01 
6.0000000e+00 0.0000000e+00 1.2250000e+01 
6.0000000e+00 0.0000000e+00 1.2500000e+01 
6.0000000e+00 0.0000000e+00 1.2750000e+01 
6.0000000e+00 0.0000000e+00 1.3000000e+01 
6.0000000e+00 0.0000000e+00 1.3250000e+01 
6.0000000e+00 0.0000000e+00 1.3500000e+01 
6.0000000e+00 0.0000000e+00 1.3750000e+01 
6.0000000e+00 0.0000000e+00 1.4000000e+01 
6.0000000e+00 0.0000000e+00 1.4250000e+01 
6.0000000e+00 0.0000000e+00 1.4500000e+01 
6.0000000e+00 0.0000000e+00 1.4750000e+01 
6.0000000e+00 0.0000000e+00 1.5000000e+01 
6.0000000e+00 0.0000000e+00 1.5250000e+01 
6.0000000e+00 0.0000000e+00 1.5500000e+01 
6.0000000e+00 0.0000000e+00 1.5750000e+01 
6.0000000e+00 0.0000000e+00 1.6000000e+01 
6.0000000e+00 0.0000000e+00 1.6250000e+01 
6.0000000e+00 0.0000000e+00 1.6500000e+01 
6.0000000e+00 0.0000000e+00 1.6750000e+01 
6.0000000e+00 0.0000000e+00 1.7000000e+01 
6.0000000e+00 0.0000000e+00 1.7250000e+01 
6.0000000e+00 0.0000000e+00 1.7500000e+01 
6.0000000e+00 0.0000000e+00 1.7750000e+01 
6.0000000e+00 0.0000000e+00 1.8000000e+01 
5.0000000e-01 0.0000000e+00 3.0000000e+00 
1.0000000e+00 0.0000000e+00 3.0000000e+00 
1.5000000e+00 0.0000000e+00 3.0000000e+00 
2.0000000e+00 0.0000000e+00 3.0000000e+00 
2.5000000e+00 0.0000000e+00 3.0000000e+00 
3.0000000e+00 0.0000000e+00 3.0000000e+00 
3.5000000e+00 0.0000000e+00 3.0000000e+00 
4.0000000e+00 0.0000000e+00 3.0000000e+00 
4.5000000e+00 0.0000000e+00 3.0000000e+00 
5.0000000e+00 0.0000000e+00 3.0000000e+00 
5.5000000e+00 0.0000000e+00 3.0000000e+00 
5.0000000e-01 0.0000000e+00 6.0000000e+00 
1.0000000e+00 0.0000000e+00 6.0000000e+00 
1.5000000e+00 0.0000000e+00 6.0000000e+00 
2.0000000e+00 0.0000000e+00 6.0000000e+00 
2.5000000e+00 0.0000000e+00 6.0000000e+00 
3.0000000e+00 0.0000000e+00 6.0000000e+00 
3.5000000e+00 0.0000000e+00 6.0000000e+00 
4.0000000e+00 0.0000000e+00 6.0000000e+00 
4.5000000e+00 0.0000000e+00 6.0000000e+00 
5.0000000e+00 0.0000000e+00 6.0000000e+00 
5.5000000e+00 0.0000000e+00 6.0000000e+00 
5.0000000e-01 0.0000000e+00 9.0000000e+00 
1.0000000e+00 0.0000000e+00 9.0000000e+00 
1.5000000e+00 0.0000000e+00 9.0000000e+00 
2.0000000e+00 0.0000000e+00 9.0000000e+00 
2.5000000e+00 0.0000000e+00 9.0000000e+00 
3.0000000e+00 0.0000000e+00 9.0000000e+00 
3.5000000e+00 0.0000000e+00 9.0000000e+00 
4.0000000e+00 0.0000000e+00 9.0000000e+00 
4.5000000e+00 0.0000000e+00 9.0000000e+00 
5.0000000e+00 0.0000000e+00 9.0000000e+00 
5.5000000e+00 0.0000000e+00 9.0000000e+00 
5.0000000e-01 0.0000000e+00 1.2000000e+01 
1.0000000e+00 0.0000000e+00 1.2000000e+01 
1.5000000e+00 0.0000000e+00 1.2000000e+01 
2.0000000e+00 0.0000000e+00 1.2000000e+01 
2.5000000e+00 0.0000000e+00 1.2000000e+01 
3.0000000e+00 0.0000000e+00 1.2000000e+01 
3.5000000e+00 0.0000000e+00 1.2000000e+01 
4.0000000e+00 0.0000000e+00 1.2000000e+01 
4.5000000e+00 0.0000000e+00 1.2000000e+01 
5.0000000e+00 0.0000000e+00 1.2000000e+01 
5.5000000e+00 0.0000000e+00 1.2000000e+01 
5.0000000e-01 0.0000000e+00 1.5000000e+01 
1.0000000e+00 0.0000000e+00 1.5000000e+01 
1.5000000e+00 0.0000000e+00 1.5000000e+01 
2.0000000e+00 0.0000000e+00 1.5000000e+01 
2.5000000e+00 0.0000000e+00 1.5000000e+01 
3.0000000e+00 0.0000000e+00 1.5000000e+01 
3.5000000e+00 0.0000000e+00 1.5000000e+01 
4.0000000e+00 0.0000000e+00 1.5000000e+01 
4.5000000e+00 0.0000000e+00 1.5000000e+01 
5.0000000e+00 0.0000000e+00 1.5000000e+01 
5.5000000e+00 0.0000000e+00 1.5000000e+01 
5.0000000e-01 0.0000000e+00 1.8000000e+01 
1.0000000e+00 0.0000000e+00 1.8000000e+01 
1.5000000e+00 0.0000000e+00 1.8000000e+01 
2.0000000e+00 0.0000000e+00 1.8000000e+01 
2.5000000e+00 0.0000000e+00 1.8000000e+01 
3.0000000e+00 0.0000000e+00 1.8000000e+01 
3.5000000e+00 0.0000000e+00 1.8000000e+01 
4.0000000e+00 0.0000000e+00 1.8000000e+01 
4.5000000e+00 0.0000000e+00 1.8000000e+01 
5.0000000e+00 0.0000000e+00 1.8000000e+01 
5.5000000e+00 0.0000000e+00 1.8000000e+01 

CELLS 216 648
2 0 1
2 1 2
2 2 3
2 3 4
2 4 5
2 5 6
2 6 7
2 7 8
2 8 9
2 9 10
2 10 11
2 11 12
2 12 13
2 13 14
2 14 15
2 15 16
2 16 17
2 17 18
2 18 19
2 19 20
2 20 21
2 21 22
2 22 23
2 23 24
2 24 25
2 25 26
2 26 27
2 27 28
2 28 29
2 29 30
2 30 31
2 31 32
2 32 33
2 33 34
2 34 35
2 35 36
2 36 37
2 37 38
2 38 39
2 39 40
2 40 41
2 41 42
2 42 43
2 43 44
2 44 45
2 45 46
2 46 47
2 47 48
2 48 49
2 49 50
2 50 51
2 51 52
2 52 53
2 53 54
2 54 55
2 55 56
2 56 57
2 57 58
2 58 59
2 59 60
2 60 61
2 61 62
2 62 63
2 63 64
2 64 65
2 65 66
2 66 67
2 67 68
2 68 69
2 69 70
2 70 71
2 71 72
2 73 74
2 74 75
2 75 76
2 76 77
2 77 78
2 78 79
2 79 80
2 80 81
2 81 82
2 82 83
2 83 84
2 84 85
2 85 86
2 86 87
2 87 88
2 88 89
2 89 90
2 90 91
2 91 92
2 92 93
2 93 94
2 94 95
2 95 96
2 96 97
2 97 98
2 98 99
2 99 100
2 100 101
2 101 102
2 102 103
2 103 104
2 104 105
2 105 106
2 106 107
2 107 108
2 108 109
2 109 110
2 110 111
2 111 112
2 112 113
2 113 114
2 114 115
2 115 116
2 116 117
2 117 118
2 118 119
2 119 120
2 120 121
2 121 122
2 122 123
2 123 124
2 124 125
2 125 126
2 126 127
2 127 128
2 128 129
2 129 130
2 130 131
2 131 132
2 132 133
2 133 134
2 134 135
2 135 136
2 136 137
2 137 138
2 138 139
2 139 140
2 140 141
2 141 142
2 142 143
2 143 144
2 144 145
2 12 146
2 146 147
2 147 148
2 148 149
2 149 150
2 150 151
2 151 152
2 152 153
2 153 154
2 154 155
2 155 156
2 156 85
2 24 157
2 157 158
2 158 159
2 159 160
2 160 161
2 161 162
2 162 163
2 163 164
2 164 165
2 165 166
2 166 167
2 167 97
2 36 168
2 168 169
2 169 170
2 170 171
2 171 172
2 172 173
2 173 174
2 174 175
2 175 176
2 176 177
2 177 178
2 178 109
2 48 179
2 179 180
2 180 181
2 181 182
2 182 183
2 183 184
2 184 185
2 185 186
2 186 187
2 187 188
2 188 189
2 189 121
2 60 190
2 190 191
2 191 192
2 192 193
2 193 194
2 194 195
2 195 196
2 196 197
2 197 198
2 198 199
2 199 200
2 200 133
2 72 201
2 201 202
2 202 203
2 203 204
2 204 205
2 205 206
2 206 207
2 207 208
2 208 209
2 209 210
2 210 211
2 211 145

CELL_TYPES 216
3
3
3
3
3
3
3
3
3
3
3
3
3
3
3
3
3
3
3
3
3
3
3
3
3
3
3
3
3
3
3
3
3
3
3
3
3
3
3
3
3
3
3
3
3
3
3
3
3
3
3
3
3
3
3
3
3
3
3
3
3
3
3
3
3
3
3
3
3
3
3
3
3
3
3
3
3
3
3
3
3
3
3
3
3
3
3
3
3
3
3
3
3
3
3
3
3
3
3
3
3
3
3
3
3
3
3
3
3
3
3
3
3
3
3
3
3
3
3
3
3
3
3
3
3
3
3
3
3
3
3
3
3
3
3
3
3
3
3
3
3
3
3
3
3
3
3
3
3
3
3
3
3
3
3
3
3
3
3
3
3
3
3
3
3
3
3
3
3
3
3
3
3
3
3
3
3
3
3
3
3
3
3
3
3
3
3
3
3
3
3
3
3
3
3
3
3
3
3
3
3
3
3
3
3
3
3
3
3
3
3
3
3
3
3
3
POINT_DATA 212
FIELD FieldData 7
DISPLACEMENT 3 212  float
0.0000000e+00 0.0000000e+00 0.0000000e+00 
-1.6902009e-04 0.0000000e+00 -6.9077851e-07 
-3.3094952e-04 0.0000000e+00 -1.3815570e-06 
-4.7869762e-04 0.0000000e+00 -2.0723355e-06 
-6.0517376e-04 0.0000000e+00 -2.7631140e-06 
-7.0328731e-04 0.0000000e+00 -3.4538925e-06 
-7.6594757e-04 0.0000000e+00 -4.1446710e-06 
-7.8606384e-04 0.0000000e+00 -4.8354495e-06 
-7.5654557e-04 0.0000000e+00 -5.5262281e-06 
-6.7030208e-04 0.0000000e+00 -6.2170066e-06 
-5.2024267e-04 0.0000000e+00 -6.9077851e-06 
-2.9927670e-04 0.0000000e+00 -7.5985636e-06 
-3.1350052e-07 0.0000000e+00 -8.2893421e-06 
2.6871962e-04 0.0000000e+00 -8.8649913e-06 
4.1078083e-04 0.0000000e+00 -9.4406396e-06 
4.4928899e-04 0.0000000e+00 -1.0016289e-05 
4.0766282e-04 0.0000000e+00 -1.0591937e-05 
3.0932121e-04 0.0000000e+00 -1.1167586e-05 
1.7768292e-04 0.0000000e+00 -1.1743235e-05 
3.6166759e-05 0.0000000e+00 -1.2318884e-05 
-9.1808441e-05 0.0000000e+00 -1.2894532e-05 
-1.8282389e-04 0.0000000e+00 -1.3470181e-05 
-2.1346076e-04 0.0000000e+00 -1.4045830e-05 
-1.6030026e-04 0.0000000e+00 -1.4621479e-05 
7.6418168e-08 0.0000000e+00 -1.5197127e-05 
1.6774652e-04 0.0000000e+00 -1.5657646e-05 
2.4013387e-04 0.0000000e+00 -1.6118165e-05 
2.3667718e-04 0.0000000e+00 -1.6578684e-05 
1.7681514e-04 0.0000000e+00 -1.7039203e-05 
7.9986428e-05 0.0000000e+00 -1.7499722e-05 
-3.4370245e-05 0.0000000e+00 -1.7960241e-05 
-1.4681618e-04 0.0000000e+00 -1.8420760e-05 
-2.3791270e-04 0.0000000e+00 -1.8881279e-05 
-2.8822108e-04 0.0000000e+00 -1.9341798e-05 
-2.7830264e-04 0.0000000e+00 -1.9802317e-05 
-1.8871870e-04 0.0000000e+00 -2.0262836e-05 
-3.0540690e-08 0.0000000e+00 -2.0723355e-05 
1.8574279e-04 0.0000000e+00 -2.1068745e-05 
2.6764267e-04 0.0000000e+00 -2.1414135e-05 
2.6669848e-04 0.0000000e+00 -2.1759522e-05 
2.0393956e-04 0.0000000e+00 -2.2104912e-05 
1.0039529e-04 0.0000000e+00 -2.2450302e-05 
-2.2904995e-05 0.0000000e+00 -2.2795692e-05 
-1.4493194e-04 0.0000000e+00 -2.3141081e-05 
-2.4465617e-04 0.0000000e+00 -2.3486469e-05 
-3.0104833e-04 0.0000000e+00 -2.3831859e-05 
-2.9307907e-04 0.0000000e+00 -2.4177249e-05 
-1.9971906e-04 0.0000000e+00 -2.4522638e-05 
6.1114342e-08 0.0000000e+00 -2.4868026e-05 
2.0567409e-04 0.0000000e+00 -2.5098287e-05 
3.1441051e-04 0.0000000e+00 -2.5328545e-05 
3.4411674e-04 0.0000000e+00 -2.5558806e-05 
3.1263905e-04 0.0000000e+00 -2.5789064e-05 
2.3782377e-04 0.0000000e+00 -2.6019325e-05 
1.3751723e-04 0.0000000e+00 -2.6249583e-05 
2.9565756e-05 0.0000000e+00 -2.6479844e-05 
-6.8184352e-05 0.0000000e+00 -2.6710102e-05 
-1.3788676e-04 0.0000000e+00 -2.6940363e-05 
-1.6169516e-04 0.0000000e+00 -2.7170621e-05 
-1.2176322e-04 0.0000000e+00 -2.7400882e-05 
-2.4464234e-07 0.0000000e+00 -2.7631140e-05 
9.7921897e-05 0.0000000e+00 -2.7746271e-05 
7.6292221e-05 0.0000000e+00 -2.7861401e-05 
-3.4545566e-05 0.0000000e+00 -2.7976530e-05 
-2.0400336e-04 0.0000000e+00 -2.8091659e-05 
-4.0149305e-04 0.0000000e+00 -2.8206790e-05 
-5.9642649e-04 0.0000000e+00 -2.8321920e-05 
-7.5821561e-04 0.0000000e+00 -2.8437049e-05 
-8.5627235e-04 0.0000000e+00 -2.8552178e-05 
-8.6000853e-04 0.0000000e+00 -2.8667309e-05 
-7.3883601e-04 0.0000000e+00 -2.8782439e-05 
-4.6216679e-04 0.0000000e+00 -2.8897568e-05 
5.8729171e-07 0.0000000e+00 -2.9012697e-05 
0.0000000e+00 0.0000000e+00 0.0000000e+00 
1.6902009e-04 0.0000000e+00 -6.9077851e-07 
3.3094952e-04 0.0000000e+00 -1.3815570e-06 
4.7869762e-04 0.0000000e+00 -2.0723355e-06 
6.0517376e-04 0.0000000e+00 -2.7631140e-06 
7.0328731e-04 0.0000000e+00 -3.4538925e-06 
7.6594757e-04 0.0000000e+00 -4.1446710e-06 
7.8606384e-04 0.0000000e+00 -4.8354495e-06 
7.5654557e-04 0.0000000e+00 -5.5262281e-06 
6.7030208e-04 0.0000000e+00 -6.2170066e-06 
5.2024267e-04 0.0000000e+00 -6.9077851e-06 
2.9927670e-04 0.0000000e+00 -7.5985636e-06 
3.1350052e-07 0.0000000e+00 -8.2893421e-06 
-2.6871962e-04 0.0000000e+00 -8.8649913e-06 
-4.1078083e-04 0.0000000e+00 -9.4406396e-06 
-4.4928899e-04 0.0000000e+00 -1.0016289e-05 
-4.0766282e-04 0.0000000e+00 -1.0591937e-05 
-3.0932121e-04 0.0000000e+00 -1.1167586e-05 
-1.7768292e-04 0.0000000e+00 -1.1743235e-05 
-3.6166759e-05 0.0000000e+00 -1.2318884e-05 
9.1808441e-05 0.0000000e+00 -1.2894532e-05 
1.8282389e-04 0.0000000e+00 -1.3470181e-05 
2.1346076e-04 0.0000000e+00 -1.4045830e-05 
1.6030026e-04 0.0000000e+00 -1.4621479e-05 
-7.6418154e-08 0.0000000e+00 -1.5197127e-05 
-1.6774652e-04 0.0000000e+00 -1.5657646e-05 
-2.4013387e-04 0.0000000e+00 -1.6118165e-05 
-2.3667718e-04 0.0000000e+00 -1.6578684e-05 
-1.7681514e-04 0.0000000e+00 -1.7039203e-05 
-7.9986428e-05 0.0000000e+00 -1.7499722e-05 
3.4370245e-05 0.0000000e+00 -1.7960241e-05 
1.4681618e-04 0.0000000e+00 -1.8420760e-05 
2.3791270e-04 0.0000000e+00 -1.8881279e-05 
2.8822108e-04 0.0000000e+00 -1.9341798e-05 
2.7830264e-04 0.0000000e+00 -1.9802317e-05 
1.8871870e-04 0.0000000e+00 -2.0262836e-05 
3.0540708e-08 0.0000000e+00 -2.0723355e-05 
-1.8574279e-04 0.0000000e+00 -2.1068745e-05 
-2.6764267e-04 0.0000000e+00 -2.1414135e-05 
-2.6669848e-04 0.0000000e+00 -2.1759522e-05 
-2.0393956e-04 0.0000000e+00 -2.2104912e-05 
-1.0039529e-04 0.0000000e+00 -2.2450302e-05 
2.2904995e-05 0.0000000e+00 -2.2795692e-05 
1.4493194e-04 0.0000000e+00 -2.3141081e-05 
2.4465617e-04 0.0000000e+00 -2.3486469e-05 
3.0104833e-04 0.0000000e+00 -2.3831859e-05 
2.9307907e-04 0.0000000e+00 -2.4177249e-05 
1.9971906e-04 0.0000000e+00 -2.4522638e-05 
-6.1114321e-08 0.0000000e+00 -2.4868026e-05 
-2.0567409e-04 0.0000000e+00 -2.5098287e-05 
-3.1441051e-04 0.0000000e+00 -2.5328545e-05 
-3.4411674e-04 0.0000000e+00 -2.5558806e-05 
-3.1263905e-04 0.0000000e+00 -2.5789064e-05 
-2.3782377e-04 0.0000000e+00 -2.6019325e-05 
-1.3751723e-04 0.0000000e+00 -2.6249583e-05 
-2.9565756e-05 0.0000000e+00 -2.6479844e-05 
6.8184352e-05 0.0000000e+00 -2.6710102e-05 
1.3788676e-04 0.0000000e+00 -2.6940363e-05 
1.6169516e-04 0.0000000e+00 -2.7170621e-05 
1.2176322e-04 0.0000000e+00 -2.7400882e-05 
2.4464237e-07 0.0000000e+00 -2.7631140e-05 
-9.7921897e-05 0.0000000e+00 -2.7746271e-05 
-7.6292221e-05 0.0000000e+00 -2.7861401e-05 
3.4545566e-05 0.0000000e+00 -2.7976530e-05 
2.0400336e-04 0.0000000e+00 -2.8091659e-05 
4.0149305e-04 0.0000000e+00 -2.8206790e-05 
5.9642649e-04 0.0000000e+00 -2.8321920e-05 
7.5821561e-04 0.0000000e+00 -2.8437049e-05 
8.5627235e-04 0.0000000e+00 -2.8552178e-05 
8.6000853e-04 0.0000000e+00 -2.8667309e-05 
7.3883601e-04 0.0000000e+00 -2.8782439e-05 
4.6216679e-04 0.0000000e+00 -2.8897568e-05 
-5.8729165e-07 0.0000000e+00 -2.9012697e-05 
-2.6125045e-07 0.0000000e+00 -1.0787159e-03 
-2.0900035e-07 0.0000000e+00 -2.6187296e-03 
-1.5675026e-07 0.0000000e+00 -4.2298045e-03 
-1.0450017e-07 0.0000000e+00 -5.6019756e-03 
-5.2250083e-08 0.0000000e+00 -6.5138391e-03 
4.5077514e-15 0.0000000e+00 -6.8325540e-03 
5.2250094e-08 0.0000000e+00 -6.5138391e-03 
1.0450018e-07 0.0000000e+00 -5.6019756e-03 
1.5675027e-07 0.0000000e+00 -4.2298045e-03 
2.0900036e-07 0.0000000e+00 -2.6187296e-03 
2.6125045e-07 0.0000000e+00 -1.0787159e-03 
6.3681810e-08 0.0000000e+00 -8.6831086e-04 
5.0945445e-08 0.0000000e+00 -2.2305232e-03 
3.8209087e-08 0.0000000e+00 -3.7033078e-03 
2.5472726e-08 0.0000000e+00 -4.9767001e-03 
1.2736367e-08 0.0000000e+00 -5.8292970e-03 
7.1162262e-15 0.0000000e+00 -6.1282562e-03 
-1.2736352e-08 0.0000000e+00 -5.8292970e-03 
-2.5472712e-08 0.0000000e+00 -4.9767001e-03 
-3.8209073e-08 0.0000000e+00 -3.7033078e-03 
-5.0945431e-08 0.0000000e+00 -2.2305232e-03 
-6.3681796e-08 0.0000000e+00 -8.6831086e-04 
-2.5450573e-08 0.0000000e+00 -9.1587316e-04 
-2.0360456e-08 0.0000000e+00 -2.3124786e-03 
-1.5270340e-08 0.0000000e+00 -3.8120137e-03 
-1.0180224e-08 0.0000000e+00 -5.1045134e-03 
-5.0901074e-09 0.0000000e+00 -5.9685744e-03 
9.0096913e-15 0.0000000e+00 -6.2713553e-03 
5.0901257e-09 0.0000000e+00 -5.9685744e-03 
1.0180242e-08 0.0000000e+00 -5.1045134e-03 
1.5270359e-08 0.0000000e+00 -3.8120137e-03 
2.0360474e-08 0.0000000e+00 -2.3124786e-03 
2.5450591e-08 0.0000000e+00 -9.1587316e-04 
5.0928616e-08 0.0000000e+00 -9.4803155e-04 
4.0742897e-08 0.0000000e+00 -2.3675573e-03 
3.0557175e-08 0.0000000e+00 -3.8849190e-03 
2.0371454e-08 0.0000000e+00 -5.1901522e-03 
1.0185732e-08 0.0000000e+00 -6.0618538e-03 
1.0780955e-14 0.0000000e+00 -6.3671810e-03 
-1.0185711e-08 0.0000000e+00 -6.0618538e-03 
-2.0371433e-08 0.0000000e+00 -5.1901522e-03 
-3.0557153e-08 0.0000000e+00 -3.8849190e-03 
-4.0742876e-08 0.0000000e+00 -2.3675573e-03 
-5.0928595e-08 0.0000000e+00 -9.4803155e-04 
-2.0386861e-07 0.0000000e+00 -7.8260584e-04 
-1.6309488e-07 0.0000000e+00 -2.0645226e-03 
-1.2232115e-07 0.0000000e+00 -3.4748551e-03 
-8.1547434e-08 0.0000000e+00 -4.7036391e-03 
-4.0773713e-08 0.0000000e+00 -5.5294707e-03 
1.2564606e-14 0.0000000e+00 -5.8195079e-03 
4.0773738e-08 0.0000000e+00 -5.5294707e-03 
8.1547462e-08 0.0000000e+00 -4.7036391e-03 
1.2232118e-07 0.0000000e+00 -3.4748551e-03 
1.6309491e-07 0.0000000e+00 -2.0645226e-03 
2.0386864e-07 0.0000000e+00 -7.8260584e-04 
4.8940973e-07 0.0000000e+00 -1.5131625e-03 
3.9152781e-07 0.0000000e+00 -3.3916770e-03 
2.9364585e-07 0.0000000e+00 -5.2660303e-03 
1.9576390e-07 0.0000000e+00 -6.8262573e-03 
9.7881959e-08 0.0000000e+00 -7.8509552e-03 
1.3354685e-14 0.0000000e+00 -8.2072811e-03 
-9.7881930e-08 0.0000000e+00 -7.8509552e-03 
-1.9576387e-07 0.0000000e+00 -6.8262573e-03 
-2.9364583e-07 0.0000000e+00 -5.2660303e-03 
-3.9152778e-07 0.0000000e+00 -3.3916770e-03 
-4.8940973e-07 0.0000000e+00 -1.5131625e-03 
ROTATION 3 212  float
0.0000000e+00 -6.8080745e-04 0.0000000e+00 
0.0000000e+00 -6.6662615e-04 0.0000000e+00 
0.0000000e+00 -6.2408217e-04 0.0000000e+00 
0.0000000e+00 -5.5317563e-04 0.0000000e+00 
0.0000000e+00 -4.5390645e-04 0.0000000e+00 
0.0000000e+00 -3.2627466e-04 0.0000000e+00 
0.0000000e+00 -1.7028024e-04 0.0000000e+00 
0.0000000e+00 1.4076811e-05 0.0000000e+00 
0.0000000e+00 2.2679647e-04 0.0000000e+00 
0.0000000e+00 4.6787877e-04 0.0000000e+00 
0.0000000e+00 7.3732366e-04 0.0000000e+00 
0.0000000e+00 1.0351312e-03 0.0000000e+00 
0.0000000e+00 1.3613014e-03 0.0000000e+00 
0.0000000e+00 8.0657616e-04 0.0000000e+00 
0.0000000e+00 3.4552618e-04 0.0000000e+00 
0.0000000e+00 -2.1848575e-05 0.0000000e+00 
0.0000000e+00 -2.9554809e-04 0.0000000e+00 
0.0000000e+00 -4.7557236e-04 0.0000000e+00 
0.0000000e+00 -5.6192145e-04 0.0000000e+00 
0.0000000e+00 -5.5459526e-04 0.0000000e+00 
0.0000000e+00 -4.5359382e-04 0.0000000e+00 
0.0000000e+00 -2.5891716e-04 0.0000000e+00 
0.0000000e+00 2.9434705e-05 0.0000000e+00 
0.0000000e+00 4.1146181e-04 0.0000000e+00 
0.0000000e+00 8.8716415e-04 0.0000000e+00 
0.0000000e+00 4.6715580e-04 0.0000000e+00 
0.0000000e+00 1.2490219e-04 0.0000000e+00 
0.0000000e+00 -1.3959661e-04 0.0000000e+00 
0.0000000e+00 -3.2634064e-04 0.0000000e+00 
0.0000000e+00 -4.3532989e-04 0.0000000e+00 
0.0000000e+00 -4.6656435e-04 0.0000000e+00 
0.0000000e+00 -4.2004403e-04 0.0000000e+00 
0.0000000e+00 -2.9576893e-04 0.0000000e+00 
0.0000000e+00 -9.3739036e-05 0.0000000e+00 
0.0000000e+00 1.8604563e-04 0.0000000e+00 
0.0000000e+00 5.4358511e-04 0.0000000e+00 
0.0000000e+00 9.7887928e-04 0.0000000e+00 
0.0000000e+00 5.2132685e-04 0.0000000e+00 
0.0000000e+00 1.4789183e-04 0.0000000e+00 
0.0000000e+00 -1.4142577e-04 0.0000000e+00 
0.0000000e+00 -3.4662595e-04 0.0000000e+00 
0.0000000e+00 -4.6770871e-04 0.0000000e+00 
0.0000000e+00 -5.0467404e-04 0.0000000e+00 
0.0000000e+00 -4.5752191e-04 0.0000000e+00 
0.0000000e+00 -3.2625237e-04 0.0000000e+00 
0.0000000e+00 -1.1086540e-04 0.0000000e+00 
0.0000000e+00 1.8863899e-04 0.0000000e+00 
0.0000000e+00 5.7226082e-04 0.0000000e+00 
0.0000000e+00 1.0400001e-03 0.0000000e+00 
0.0000000e+00 6.1680126e-04 0.0000000e+00 
0.0000000e+00 2.6498776e-04 0.0000000e+00 
0.0000000e+00 -1.5440501e-05 0.0000000e+00 
0.0000000e+00 -2.2448348e-04 0.0000000e+00 
0.0000000e+00 -3.6214117e-04 0.0000000e+00 
0.0000000e+00 -4.2841356e-04 0.0000000e+00 
0.0000000e+00 -4.2330072e-04 0.0000000e+00 
0.0000000e+00 -3.4680258e-04 0.0000000e+00 
0.0000000e+00 -1.9891917e-04 0.0000000e+00 
0.0000000e+00 2.0349524e-05 0.0000000e+00 
0.0000000e+00 3.1100350e-04 0.0000000e+00 
0.0000000e+00 6.7304273e-04 0.0000000e+00 
0.0000000e+00 1.3268166e-04 0.0000000e+00 
0.0000000e+00 -2.8532700e-04 0.0000000e+00 
0.0000000e+00 -5.8098324e-04 0.0000000e+00 
0.0000000e+00 -7.5428700e-04 0.0000000e+00 
0.0000000e+00 -8.0523838e-04 0.0000000e+00 
0.0000000e+00 -7.3383725e-04 0.0000000e+00 
0.0000000e+00 -5.4008380e-04 0.0000000e+00 
0.0000000e+00 -2.2397783e-04 0.0000000e+00 
0.0000000e+00 2.1448055e-04 0.0000000e+00 
0.0000000e+00 7.7529135e-04 0.0000000e+00 
0.0000000e+00 1.4584546e-03 0.0000000e+00 
0.0000000e+00 2.2639702e-03 0.0000000e+00 
0.0000000e+00 6.8080745e-04 0.0000000e+00 
0.0000000e+00 6.6662615e-04 0.0000000e+00 
0.0000000e+00 6.2408217e-04 0.0000000e+00 
0.0000000e+00 5.5317563e-04 0.0000000e+00 
0.0000000e+00 4.5390645e-04 0.0000000e+00 
0.0000000e+00 3.2627466e-04 0.0000000e+00 
0.0000000e+00 1.7028024e-04 0.0000000e+00 
0.0000000e+00 -1.4076811e-05 0.0000000e+00 
0.0000000e+00 -2.2679647e-04 0.0000000e+00 
0.0000000e+00 -4.6787877e-04 0.0000000e+00 
0.0000000e+00 -7.3732366e-04 0.0000000e+00 
0.0000000e+00 -1.0351312e-03 0.0000000e+00 
0.0000000e+00 -1.3613014e-03 0.0000000e+00 
0.0000000e+00 -8.0657616e-04 0.0000000e+00 
0.0000000e+00 -3.4552618e-04 0.0000000e+00 
0.0000000e+00 2.1848575e-05 0.0000000e+00 
0.0000000e+00 2.9554809e-04 0.0000000e+00 
0.0000000e+00 4.7557236e-04 0.0000000e+00 
0.0000000e+00 5.6192145e-04 0.0000000e+00 
0.0000000e+00 5.5459526e-04 0.0000000e+00 
0.0000000e+00 4.5359382e-04 0.0000000e+00 
0.0000000e+00 2.5891716e-04 0.0000000e+00 
0.0000000e+00 -2.9434705e-05 0.0000000e+00 
0.0000000e+00 -4.1146181e-04 0.0000000e+00 
0.0000000e+00 -8.8716415e-04 0.0000000e+00 
0.0000000e+00 -4.6715580e-04 0.0000000e+00 
0.0000000e+00 -1.2490219e-04 0.0000000e+00 
0.0000000e+00 1.3959661e-04 0.0000000e+00 
0.0000000e+00 3.2634064e-04 0.0000000e+00 
0.0000000e+00 4.3532989e-04 0.0000000e+00 
0.0000000e+00 4.6656435e-04 0.0000000e+00 
0.0000000e+00 4.2004403e-04 0.0000000e+00 
0.0000000e+00 2.9576893e-04 0.0000000e+00 
0.0000000e+00 9.3739036e-05 0.0000000e+00 
0.0000000e+00 -1.8604563e-04 0.0000000e+00 
0.0000000e+00 -5.4358511e-04 0.0000000e+00 
0.0000000e+00 -9.7887928e-04 0.0000000e+00 
0.0000000e+00 -5.2132685e-04 0.0000000e+00 
0.0000000e+00 -1.4789183e-04 0.0000000e+00 
0.0000000e+00 1.4142577e-04 0.0000000e+00 
0.0000000e+00 3.4662595e-04 0.0000000e+00 
0.0000000e+00 4.6770871e-04 0.0000000e+00 
0.0000000e+00 5.0467404e-04 0.0000000e+00 
0.0000000e+00 4.5752191e-04 0.0000000e+00 
0.0000000e+00 3.2625237e-04 0.0000000e+00 
0.0000000e+00 1.1086540e-04 0.0000000e+00 
0.0000000e+00 -1.8863899e-04 0.0000000e+00 
0.0000000e+00 -5.7226082e-04 0.0000000e+00 
0.0000000e+00 -1.0400001e-03 0.0000000e+00 
0.0000000e+00 -6.1680126e-04 0.0000000e+00 
0.0000000e+00 -2.6498776e-04 0.0000000e+00 
0.0000000e+00 1.5440501e-05 0.0000000e+00 
0.0000000e+00 2.2448348e-04 0.0000000e+00 
0.0000000e+00 3.6214117e-04 0.0000000e+00 
0.0000000e+00 4.2841356e-04 0.0000000e+00 
0.0000000e+00 4.2330072e-04 0.0000000e+00 
0.0000000e+00 3.4680258e-04 0.0000000e+00 
0.0000000e+00 1.9891917e-04 0.0000000e+00 
0.0000000e+00 -2.0349524e-05 0.0000000e+00 
0.0000000e+00 -3.1100350e-04 0.0000000e+00 
0.0000000e+00 -6.7304273e-04 0.0000000e+00 
0.0000000e+00 -1.3268166e-04 0.0000000e+00 
0.0000000e+00 2.8532700e-04 0.0000000e+00 
0.0000000e+00 5.8098324e-04 0.0000000e+00 
0.0000000e+00 7.5428700e-04 0.0000000e+00 
0.0000000e+00 8.0523838e-04 0.0000000e+00 
0.0000000e+00 7.3383725e-04 0.0000000e+00 
0.0000000e+00 5.4008380e-04 0.0000000e+00 
0.0000000e+00 2.2397783e-04 0.0000000e+00 
0.0000000e+00 -2.1448055e-04 0.0000000e+00 
0.0000000e+00 -7.7529135e-04 0.0000000e+00 
0.0000000e+00 -1.4584546e-03 0.0000000e+00 
0.0000000e+00 -2.2639702e-03 0.0000000e+00 
0.0000000e+00 2.7580424e-03 0.0000000e+00 
0.0000000e+00 3.2691702e-03 0.0000000e+00 
0.0000000e+00 3.0718071e-03 0.0000000e+00 
0.0000000e+00 2.3430758e-03 0.0000000e+00 
0.0000000e+00 1.2600994e-03 0.0000000e+00 
0.0000000e+00 -4.0017767e-16 0.0000000e+00 
0.0000000e+00 -1.2600994e-03 0.0000000e+00 
0.0000000e+00 -2.3430758e-03 0.0000000e+00 
0.0000000e+00 -3.0718071e-03 0.0000000e+00 
0.0000000e+00 -3.2691702e-03 0.0000000e+00 
0.0000000e+00 -2.7580424e-03 0.0000000e+00 
0.0000000e+00 2.3629281e-03 0.0000000e+00 
0.0000000e+00 2.9530788e-03 0.0000000e+00 
0.0000000e+00 2.8347385e-03 0.0000000e+00 
0.0000000e+00 2.1850301e-03 0.0000000e+00 
0.0000000e+00 1.1810764e-03 0.0000000e+00 
0.0000000e+00 -3.1832313e-16 0.0000000e+00 
0.0000000e+00 -1.1810764e-03 0.0000000e+00 
0.0000000e+00 -2.1850301e-03 0.0000000e+00 
0.0000000e+00 -2.8347385e-03 0.0000000e+00 
0.0000000e+00 -2.9530788e-03 0.0000000e+00 
0.0000000e+00 -2.3629281e-03 0.0000000e+00 
0.0000000e+00 2.4393576e-03 0.0000000e+00 
0.0000000e+00 3.0142223e-03 0.0000000e+00 
0.0000000e+00 2.8805961e-03 0.0000000e+00 
0.0000000e+00 2.2156020e-03 0.0000000e+00 
0.0000000e+00 1.1963623e-03 0.0000000e+00 
0.0000000e+00 -2.8497500e-16 0.0000000e+00 
0.0000000e+00 -1.1963623e-03 0.0000000e+00 
0.0000000e+00 -2.2156020e-03 0.0000000e+00 
0.0000000e+00 -2.8805961e-03 0.0000000e+00 
0.0000000e+00 -3.0142223e-03 0.0000000e+00 
0.0000000e+00 -2.4393576e-03 0.0000000e+00 
0.0000000e+00 2.4902914e-03 0.0000000e+00 
0.0000000e+00 3.0549692e-03 0.0000000e+00 
0.0000000e+00 2.9111565e-03 0.0000000e+00 
0.0000000e+00 2.2359753e-03 0.0000000e+00 
0.0000000e+00 1.2065491e-03 0.0000000e+00 
0.0000000e+00 -2.0918379e-16 0.0000000e+00 
0.0000000e+00 -1.2065491e-03 0.0000000e+00 
0.0000000e+00 -2.2359753e-03 0.0000000e+00 
0.0000000e+00 -2.9111565e-03 0.0000000e+00 
0.0000000e+00 -3.0549692e-03 0.0000000e+00 
0.0000000e+00 -2.4902914e-03 0.0000000e+00 
0.0000000e+00 2.1844937e-03 0.0000000e+00 
0.0000000e+00 2.8103311e-03 0.0000000e+00 
0.0000000e+00 2.7276778e-03 0.0000000e+00 
0.0000000e+00 2.1136564e-03 0.0000000e+00 
0.0000000e+00 1.1453895e-03 0.0000000e+00 
0.0000000e+00 -2.3040532e-16 0.0000000e+00 
0.0000000e+00 -1.1453895e-03 0.0000000e+00 
0.0000000e+00 -2.1136564e-03 0.0000000e+00 
0.0000000e+00 -2.7276778e-03 0.0000000e+00 
0.0000000e+00 -2.8103311e-03 0.0000000e+00 
0.0000000e+00 -2.1844937e-03 0.0000000e+00 
0.0000000e+00 3.5102665e-03 0.0000000e+00 
0.0000000e+00 3.8709494e-03 0.0000000e+00 
0.0000000e+00 3.5231416e-03 0.0000000e+00 