# vtk DataFile Version 4.0
vtk output
ASCII
DATASET UNSTRUCTURED_GRID
POINTS 21 float
0.0000000e+00 0.0000000e+00 0.0000000e+00 
1.0000000e-01 0.0000000e+00 0.0000000e+00 
2.0000000e-01 0.0000000e+00 0.0000000e+00 
3.0000001e-01 0.0000000e+00 0.0000000e+00 
4.0000001e-01 0.0000000e+00 0.0000000e+00 
5.0000000e-01 0.0000000e+00 0.0000000e+00 
6.0000002e-01 0.0000000e+00 0.0000000e+00 
6.9999999e-01 0.0000000e+00 0.0000000e+00 
8.0000001e-01 0.0000000e+00 0.0000000e+00 
8.9999998e-01 0.0000000e+00 0.0000000e+00 
1.0000000e+00 0.0000000e+00 0.0000000e+00 
1.1000000e+00 0.0000000e+00 0.0000000e+00 
1.2000000e+00 0.0000000e+00 0.0000000e+00 
1.3000000e+00 0.0000000e+00 0.0000000e+00 
1.4000000e+00 0.0000000e+00 0.0000000e+00 
1.5000000e+00 0.0000000e+00 0.0000000e+00 
1.6000000e+00 0.0000000e+00 0.0000000e+00 
1.7000000e+00 0.0000000e+00 0.0000000e+00 
1.8000000e+00 0.0000000e+00 0.0000000e+00 
1.9000000e+00 0.0000000e+00 0.0000000e+00 
2.0000000e+00 0.0000000e+00 0.0000000e+00 

CELLS 20 60
2 0 1
2 1 2
2 2 3
2 3 4
2 4 5
2 5 6
2 6 7
2 7 8
2 8 9
2 9 10
2 10 11
2 11 12
2 12 13
2 13 14
2 14 15
2 15 16
2 16 17
2 17 18
2 18 19
2 19 20

CELL_TYPES 20
3
3
3
3
3
3
3
3
3
3
3
3
3
3
3
3
3
3
3
3
POINT_DATA 21
FIELD FieldData 6
DISPLACEMENT 3 21  float
0.0000000e+00 0.0000000e+00 0.0000000e+00 
0.0000000e+00 -2.1846230e-05 0.0000000e+00 
0.0000000e+00 -7.9928570e-05 0.0000000e+00 
0.0000000e+00 -1.6377679e-04 0.0000000e+00 
0.0000000e+00 -2.6387302e-04 0.0000000e+00 
0.0000000e+00 -3.7165178e-04 0.0000000e+00 
0.0000000e+00 -4.7950001e-04 0.0000000e+00 
0.0000000e+00 -5.8075693e-04 0.0000000e+00 
0.0000000e+00 -6.6971430e-04 0.0000000e+00 
0.0000000e+00 -7.4161607e-04 0.0000000e+00 
0.0000000e+00 -7.9265871e-04 0.0000000e+00 
0.0000000e+00 -8.1999105e-04 0.0000000e+00 
0.0000000e+00 -8.2171429e-04 0.0000000e+00 
0.0000000e+00 -7.9688197e-04 0.0000000e+00 
0.0000000e+00 -7.4549997e-04 0.0000000e+00 
0.0000000e+00 -6.6852680e-04 0.0000000e+00 
0.0000000e+00 -5.6787301e-04 0.0000000e+00 
0.0000000e+00 -4.4640180e-04 0.0000000e+00 
0.0000000e+00 -3.0792857e-04 0.0000000e+00 
0.0000000e+00 -1.5722123e-04 0.0000000e+00 
0.0000000e+00 0.0000000e+00 0.0000000e+00 
REACTION 3 21  float
-0.0000000e+00 1.2493750e+04 0.0000000e+00 
-0.0000000e+00 9.6270458e-05 0.0000000e+00 
-0.0000000e+00 2.6010242e-04 0.0000000e+00 
-0.0000000e+00 4.2624437e-04 0.0000000e+00 
-0.0000000e+00 5.4088922e-04 0.0000000e+00 
-0.0000000e+00 5.8118504e-04 0.0000000e+00 
-0.0000000e+00 5.4710580e-04 0.0000000e+00 
-0.0000000e+00 4.5416079e-04 0.0000000e+00 
-0.0000000e+00 3.2707828e-04 0.0000000e+00 
-0.0000000e+00 1.9438224e-04 0.0000000e+00 
-0.0000000e+00 8.3805804e-05 0.0000000e+00 
-0.0000000e+00 1.8750090e-05 0.0000000e+00 
-0.0000000e+00 1.5490568e-05 0.0000000e+00 
-0.0000000e+00 8.1416460e-05 0.0000000e+00 
-0.0000000e+00 2.1412337e-04 0.0000000e+00 
-0.0000000e+00 4.0140320e-04 0.0000000e+00 
-0.0000000e+00 6.2215922e-04 0.0000000e+00 
-0.0000000e+00 8.4825320e-04 0.0000000e+00 
-0.0000000e+00 1.0471864e-03 0.0000000e+00 
-0.0000000e+00 1.1857796e-03 0.0000000e+00 
-0.0000000e+00 7.5062505e+03 0.0000000e+00 
ROTATION 3 21  float
0.0000000e+00 0.0000000e+00 0.0000000e+00 
0.0000000e+00 0.0000000e+00 -4.1788691e-04 
0.0000000e+00 0.0000000e+00 -7.2630955e-04 
0.0000000e+00 0.0000000e+00 -9.3479169e-04 
0.0000000e+00 0.0000000e+00 -1.0528571e-03 
0.0000000e+00 0.0000000e+00 -1.0900297e-03 
0.0000000e+00 0.0000000e+00 -1.0558333e-03 
0.0000000e+00 0.0000000e+00 -9.5979165e-04 
0.0000000e+00 0.0000000e+00 -8.1142859e-04 
0.0000000e+00 0.0000000e+00 -6.2026788e-04 
0.0000000e+00 0.0000000e+00 -3.9583334e-04 
0.0000000e+00 0.0000000e+00 -1.4764881e-04 
0.0000000e+00 0.0000000e+00 1.1476190e-04 
0.0000000e+00 0.0000000e+00 3.8187500e-04 
0.0000000e+00 0.0000000e+00 6.4416666e-04 
0.0000000e+00 0.0000000e+00 8.9211308e-04 
0.0000000e+00 0.0000000e+00 1.1161905e-03 
0.0000000e+00 0.0000000e+00 1.3068750e-03 
0.0000000e+00 0.0000000e+00 1.4546429e-03 
0.0000000e+00 0.0000000e+00 1.5499702e-03 
0.0000000e+00 0.0000000e+00 1.5833334e-03 
REACTION_MOMENT 3 21  float
0.0000000e+00 0.0000000e+00 4.9875000e+03 
0.0000000e+00 0.0000000e+00 -3.6379788e-12 
0.0000000e+00 0.0000000e+00 -7.2759576e-12 
0.0000000e+00 0.0000000e+00 2.5465852e-11 
0.0000000e+00 0.0000000e+00 2.9103830e-11 
0.0000000e+00 0.0000000e+00 -4.3655746e-11 
0.0000000e+00 0.0000000e+00 -3.6379788e-11 
0.0000000e+00 0.0000000e+00 6.9121597e-11 
0.0000000e+00 0.0000000e+00 -2.3646862e-11 
0.0000000e+00 0.0000000e+00 -6.9121597e-11 
0.0000000e+00 0.0000000e+00 -1.6416379e-10 
0.0000000e+00 0.0000000e+00 -7.6397555e-11 
0.0000000e+00 0.0000000e+00 -1.0004442e-10 
0.0000000e+00 0.0000000e+00 8.3673513e-11 
0.0000000e+00 0.0000000e+00 5.4569682e-11 
0.0000000e+00 0.0000000e+00 -0.0000000e+00 
0.0000000e+00 0.0000000e+00 -1.0550139e-10 
0.0000000e+00 0.0000000e+00 3.6379788e-12 
0.0000000e+00 0.0000000e+00 7.2759576e-12 
0.0000000e+00 0.0000000e+00 -7.2759576e-12 
0.0000000e+00 0.0000000e+00 -0.0000000e+00 
FORCE 3 21  float
0.0000000e+00 -1.1993750e+04 0.0000000e+00 
0.0000000e+00 -1.1493750e+04 0.0000000e+00 
0.0000000e+00 -1.0493750e+04 0.0000000e+00 
0.0000000e+00 -9.4937500e+03 0.0000000e+00 
0.0000000e+00 -8.4937500e+03 0.0000000e+00 
0.0000000e+00 -7.4937500e+03 0.0000000e+00 
0.0000000e+00 -6.4937500e+03 0.0000000e+00 
0.0000000e+00 -5.4937500e+03 0.0000000e+00 
0.0000000e+00 -4.4937500e+03 0.0000000e+00 
0.0000000e+00 -3.4937500e+03 0.0000000e+00 
0.0000000e+00 -2.4937500e+03 0.0000000e+00 
0.0000000e+00 -1.4937500e+03 0.0000000e+00 
0.0000000e+00 -4.9375000e+02 0.0000000e+00 
0.0000000e+00 5.0625003e+02 0.0000000e+00 
0.0000000e+00 1.5062500e+03 0.0000000e+00 
0.0000000e+00 2.5062500e+03 0.0000000e+00 
0.0000000e+00 3.5062500e+03 0.0000000e+00 
0.0000000e+00 4.5062500e+03 0.0000000e+00 
0.0000000e+00 5.5062500e+03 0.0000000e+00 
0.0000000e+00 6.5062500e+03 0.0000000e+00 
0.0000000e+00 7.0062500e+03 0.0000000e+00 
MOMENT 3 21  float
0.0000000e+00 0.0000000e+00 4.5168447e+03 
0.0000000e+00 0.0000000e+00 3.8077458e+03 
0.0000000e+00 0.0000000e+00 2.7083708e+03 
0.0000000e+00 0.0000000e+00 1.7089958e+03 
0.0000000e+00 0.0000000e+00 8.0962085e+02 
0.0000000e+00 0.0000000e+00 1.0245856e+01 
0.0000000e+00 0.0000000e+00 -6.8912915e+02 
0.0000000e+00 0.0000000e+00 -1.2885042e+03 
0.0000000e+00 0.0000000e+00 -1.7878792e+03 
0.0000000e+00 0.0000000e+00 -2.1872542e+03 
0.0000000e+00 0.0000000e+00 -2.4866292e+03 
0.0000000e+00 0.0000000e+00 -2.6860042e+03 
0.0000000e+00 0.0000000e+00 -2.7853792e+03 
0.0000000e+00 0.0000000e+00 -2.7847542e+03 
0.0000000e+00 0.0000000e+00 -2.6841292e+03 
0.0000000e+00 0.0000000e+00 -2.4835042e+03 
0.0000000e+00 0.0000000e+00 -2.1828792e+03 
0.0000000e+00 0.0000000e+00 -1.7822542e+03 
0.0000000e+00 0.0000000e+00 -1.2816292e+03 
0.0000000e+00 0.0000000e+00 -6.8100415e+02 
0.0000000e+00 0.0000000e+00 -2.7493726e+02 
CELL_DATA 20
FIELD FieldData 2
FORCE 3 20  float
0.0000000e+00 -1.1993750e+04 0.0000000e+00 
0.0000000e+00 -1.0993750e+04 0.0000000e+00 
0.0000000e+00 -9.9937500e+03 0.0000000e+00 
0.0000000e+00 -8.9937500e+03 0.0000000e+00 
0.0000000e+00 -7.9937500e+03 0.0000000e+00 
0.0000000e+00 -6.9937500e+03 0.0000000e+00 
0.0000000e+00 -5.9937500e+03 0.0000000e+00 
0.0000000e+00 -4.9937500e+03 0.0000000e+00 
0.0000000e+00 -3.9937500e+03 0.0000000e+00 
0.0000000e+00 -2.9937500e+03 0.0000000e+00 
0.0000000e+00 -1.9937500e+03 0.0000000e+00 
0.0000000e+00 -9.9375000e+02 0.0000000e+00 
0.0000000e+00 6.2500000e+00 0.0000000e+00 
0.0000000e+00 1.0062500e+03 0.0000000e+00 
0.0000000e+00 2.0062500e+03 0.0000000e+00 
0.0000000e+00 3.0062500e+03 0.0000000e+00 
0.0000000e+00 4.0062500e+03 0.0000000e+00 
0.0000000e+00 5.0062500e+03 0.0000000e+00 
0.0000000e+00 6.0062500e+03 0.0000000e+00 
0.0000000e+00 7.0062500e+03 0.0000000e+00 
MOMENT 3 20  float
0.0000000e+00 0.0000000e+00 4.3878125e+03 
0.0000000e+00 0.0000000e+00 3.2384375e+03 
0.0000000e+00 0.0000000e+00 2.1890625e+03 
0.0000000e+00 0.0000000e+00 1.2396875e+03 
0.0000000e+00 0.0000000e+00 3.9031250e+02 
0.0000000e+00 0.0000000e+00 -3.5906250e+02 
0.0000000e+00 0.0000000e+00 -1.0084375e+03 
0.0000000e+00 0.0000000e+00 -1.5578125e+03 
0.0000000e+00 0.0000000e+00 -2.0071875e+03 
0.0000000e+00 0.0000000e+00 -2.3565625e+03 
0.0000000e+00 0.0000000e+00 -2.6059375e+03 
0.0000000e+00 0.0000000e+00 -2.7553125e+03 
0.0000000e+00 0.0000000e+00 -2.8046875e+03 
0.0000000e+00 0.0000000e+00 -2.7540625e+03 
0.0000000e+00 0.0000000e+00 -2.6034375e+03 
0.0000000e+00 0.0000000e+00 -2.3528125e+03 
0.0000000e+00 0.0000000e+00 -2.0021875e+03 
0.0000000e+00 0.0000000e+00 -1.5515625e+03 
0.0000000e+00 0.0000000e+00 -1.0009375e+03 
0.0000000e+00 0.0000000e+00 -3.5031250e+02 
