# vtk DataFile Version 4.0
vtk output
ASCII
DATASET UNSTRUCTURED_GRID
POINTS 30 float
0.0000000e+00 0.0000000e+00 0.0000000e+00 
0.0000000e+00 0.0000000e+00 8.0000001e-01 
0.0000000e+00 0.0000000e+00 1.6000000e+00 
0.0000000e+00 0.0000000e+00 2.4000001e+00 
0.0000000e+00 0.0000000e+00 3.2000000e+00 
0.0000000e+00 0.0000000e+00 4.0000000e+00 
0.0000000e+00 0.0000000e+00 4.8000002e+00 
0.0000000e+00 0.0000000e+00 5.5999999e+00 
0.0000000e+00 0.0000000e+00 6.4000001e+00 
0.0000000e+00 0.0000000e+00 7.1999998e+00 
0.0000000e+00 0.0000000e+00 8.0000000e+00 
1.0000000e+01 0.0000000e+00 0.0000000e+00 
1.0000000e+01 0.0000000e+00 8.0000001e-01 
1.0000000e+01 0.0000000e+00 1.6000000e+00 
1.0000000e+01 0.0000000e+00 2.4000001e+00 
1.0000000e+01 0.0000000e+00 3.2000000e+00 
1.0000000e+01 0.0000000e+00 4.0000000e+00 
1.0000000e+01 0.0000000e+00 4.8000002e+00 
1.0000000e+01 0.0000000e+00 5.5999999e+00 
1.0000000e+01 0.0000000e+00 6.4000001e+00 
1.0000000e+01 0.0000000e+00 7.1999998e+00 
1.0000000e+01 0.0000000e+00 8.0000000e+00 
2.0000000e+00 0.0000000e+00 4.0000000e+00 
4.0000000e+00 0.0000000e+00 4.0000000e+00 
6.0000000e+00 0.0000000e+00 4.0000000e+00 
8.0000000e+00 0.0000000e+00 4.0000000e+00 
2.0000000e+00 0.0000000e+00 8.0000000e+00 
4.0000000e+00 0.0000000e+00 8.0000000e+00 
6.0000000e+00 0.0000000e+00 8.0000000e+00 
8.0000000e+00 0.0000000e+00 8.0000000e+00 

CELLS 30 90
2 0 1
2 1 2
2 2 3
2 3 4
2 4 5
2 5 6
2 6 7
2 7 8
2 8 9
2 9 10
2 11 12
2 12 13
2 13 14
2 14 15
2 15 16
2 16 17
2 17 18
2 18 19
2 19 20
2 20 21
2 5 22
2 22 23
2 23 24
2 24 25
2 25 16
2 10 26
2 26 27
2 27 28
2 28 29
2 29 21

CELL_TYPES 30
3
3
3
3
3
3
3
3
3
3
3
3
3
3
3
3
3
3
3
3
3
3
3
3
3
3
3
3
3
3
POINT_DATA 30
FIELD FieldData 7
DISPLACEMENT 3 30  float
0.0000000e+00 0.0000000e+00 0.0000000e+00 
2.3220104e-04 0.0000000e+00 -8.0228978e-07 
4.9317378e-04 0.0000000e+00 -5.2790933e-06 
7.3007366e-04 0.0000000e+00 -9.7558968e-06 
8.6965214e-04 0.0000000e+00 -1.4232700e-05 
8.3866064e-04 0.0000000e+00 -1.8709503e-05 
5.2036095e-04 0.0000000e+00 -2.2664790e-05 
-9.1229653e-05 0.0000000e+00 -2.6262349e-05 
-8.4491406e-04 0.0000000e+00 -2.9859908e-05 
-1.5836240e-03 0.0000000e+00 -3.0139103e-05 
-2.1670535e-03 0.0000000e+00 -2.9848987e-05 
0.0000000e+00 0.0000000e+00 0.0000000e+00 
3.3676674e-04 0.0000000e+00 -7.0867868e-06 
6.8633107e-04 0.0000000e+00 -1.6669470e-05 
9.6484408e-04 0.0000000e+00 -2.6252153e-05 
1.0642954e-03 0.0000000e+00 -3.5834837e-05 
8.9633930e-04 0.0000000e+00 -4.4255416e-05 
4.9382384e-04 0.0000000e+00 -4.9203529e-05 
-9.5466865e-05 0.0000000e+00 -5.2271345e-05 
-7.9655595e-04 0.0000000e+00 -5.2099342e-05 
-1.5192066e-03 0.0000000e+00 -5.2639225e-05 
-2.1814308e-03 0.0000000e+00 -5.3179108e-05 
8.4693066e-04 0.0000000e+00 -2.7863993e-05 
8.5971603e-04 0.0000000e+00 -4.9874920e-04 
8.7250146e-04 0.0000000e+00 -9.4240514e-04 
8.8528683e-04 0.0000000e+00 -8.4161572e-04 
-2.1737625e-03 0.0000000e+00 1.4167737e-04 
-2.1793023e-03 0.0000000e+00 -4.6028881e-04 
-2.1872742e-03 0.0000000e+00 -1.0301732e-03 
-2.1861279e-03 0.0000000e+00 -1.0670787e-03 
ROTATION 3 30  float
0.0000000e+00 2.8000635e-04 0.0000000e+00 
0.0000000e+00 3.1074119e-04 0.0000000e+00 
0.0000000e+00 3.2643051e-04 0.0000000e+00 
0.0000000e+00 2.5055910e-04 0.0000000e+00 
0.0000000e+00 8.3126964e-05 0.0000000e+00 
0.0000000e+00 -1.7586591e-04 0.0000000e+00 
0.0000000e+00 -6.0573884e-04 0.0000000e+00 
0.0000000e+00 -8.8826724e-04 0.0000000e+00 
0.0000000e+00 -9.6097332e-04 0.0000000e+00 
0.0000000e+00 -8.6431857e-04 0.0000000e+00 
0.0000000e+00 -5.3977541e-04 0.0000000e+00 
0.0000000e+00 4.1325862e-04 0.0000000e+00 
0.0000000e+00 4.3635810e-04 0.0000000e+00 
0.0000000e+00 4.1505051e-04 0.0000000e+00 
0.0000000e+00 2.5872988e-04 0.0000000e+00 
0.0000000e+00 -3.2603817e-05 0.0000000e+00 
0.0000000e+00 -3.8520747e-04 0.0000000e+00 
0.0000000e+00 -6.2700117e-04 0.0000000e+00 
0.0000000e+00 -8.2606106e-04 0.0000000e+00 
0.0000000e+00 -9.0767891e-04 0.0000000e+00 
0.0000000e+00 -8.8224729e-04 0.0000000e+00 
0.0000000e+00 -7.5661292e-04 0.0000000e+00 
0.0000000e+00 1.5604719e-04 0.0000000e+00 
0.0000000e+00 2.7173664e-04 0.0000000e+00 
0.0000000e+00 1.2881798e-04 0.0000000e+00 
0.0000000e+00 -2.7270877e-04 0.0000000e+00 
0.0000000e+00 2.1228398e-04 0.0000000e+00 
0.0000000e+00 3.3629927e-04 0.0000000e+00 
0.0000000e+00 2.0029469e-04 0.0000000e+00 
0.0000000e+00 -2.2729319e-04 0.0000000e+00 
REACTION 3 30  float
3.0254612e+03 -0.0000000e+00 2.1060105e+03 
-9.0949470e-13 -0.0000000e+00 -0.0000000e+00 
1.6007107e-10 -0.0000000e+00 -3.6379788e-12 
-2.7648639e-10 -0.0000000e+00 1.8189894e-12 
1.9645086e-10 -0.0000000e+00 1.0913936e-11 
-3.7107384e-10 -0.0000000e+00 2.0918378e-11 
1.4188117e-10 -0.0000000e+00 -4.3655746e-11 
-0.0000000e+00 -0.0000000e+00 1.4551915e-11 
3.4378900e-10 -0.0000000e+00 5.4569682e-12 
-1.0550139e-10 -0.0000000e+00 -1.8189894e-12 
-6.0026650e-11 -0.0000000e+00 -3.6379788e-12 
2.2738550e+03 -0.0000000e+00 1.8602814e+04 
6.1845640e-11 -0.0000000e+00 7.2759576e-12 
1.4551915e-11 -0.0000000e+00 3.6379788e-12 
1.8189894e-12 -0.0000000e+00 -0.0000000e+00 
-1.8007995e-10 -0.0000000e+00 -1.4551915e-11 
-2.5102054e-10 -0.0000000e+00 -1.4551915e-10 
-7.6397555e-11 -0.0000000e+00 -2.3646862e-11 
1.4551915e-11 -0.0000000e+00 3.2741809e-11 
-7.2759576e-11 -0.0000000e+00 6.5483619e-11 
5.8207661e-11 -0.0000000e+00 -0.0000000e+00 
-4.6566129e-10 -0.0000000e+00 -3.6379788e-11 
3.6379788e-12 -0.0000000e+00 5.1613824e-11 
-0.0000000e+00 -0.0000000e+00 1.8189894e-12 
-0.0000000e+00 -0.0000000e+00 -3.4560799e-11 
3.6379788e-11 -0.0000000e+00 3.6379788e-12 
-2.8558134e-10 -0.0000000e+00 2.7284841e-12 
3.9290171e-10 -0.0000000e+00 -0.0000000e+00 
2.3646862e-10 -0.0000000e+00 -3.2741809e-11 
2.3464963e-10 -0.0000000e+00 -0.0000000e+00 
REACTION_MOMENT 3 30  float
-0.0000000e+00 2.9103830e-11 -0.0000000e+00 
-0.0000000e+00 4.3655746e-11 -0.0000000e+00 
-0.0000000e+00 2.3646862e-10 -0.0000000e+00 
-0.0000000e+00 2.0008883e-11 -0.0000000e+00 
-0.0000000e+00 3.1468517e-10 -0.0000000e+00 
-0.0000000e+00 7.4578566e-11 -0.0000000e+00 
-0.0000000e+00 -7.2759576e-11 -0.0000000e+00 
-0.0000000e+00 8.7311491e-11 -0.0000000e+00 
-0.0000000e+00 -1.6007107e-10 -0.0000000e+00 
-0.0000000e+00 4.1472958e-10 -0.0000000e+00 
-0.0000000e+00 1.3096724e-10 -0.0000000e+00 
-0.0000000e+00 7.2759576e-12 -0.0000000e+00 
-0.0000000e+00 4.7293724e-11 -0.0000000e+00 
-0.0000000e+00 1.0913936e-11 -0.0000000e+00 
-0.0000000e+00 7.2759576e-12 -0.0000000e+00 
-0.0000000e+00 4.0017767e-11 -0.0000000e+00 
-0.0000000e+00 4.3655746e-11 -0.0000000e+00 
-0.0000000e+00 7.2759576e-12 -0.0000000e+00 
-0.0000000e+00 4.3655746e-11 -0.0000000e+00 
-0.0000000e+00 -4.3655746e-11 -0.0000000e+00 
-0.0000000e+00 -1.0186341e-10 -0.0000000e+00 
-0.0000000e+00 -7.2759576e-11 -0.0000000e+00 
-0.0000000e+00 2.4556357e-11 -0.0000000e+00 
-0.0000000e+00 1.1368684e-11 -0.0000000e+00 
-0.0000000e+00 8.1854523e-12 -0.0000000e+00 
-0.0000000e+00 3.6379788e-12 -0.0000000e+00 
-0.0000000e+00 -1.8189894e-12 -0.0000000e+00 
-0.0000000e+00 3.6379788e-12 -0.0000000e+00 
-0.0000000e+00 -2.7284841e-12 -0.0000000e+00 
-0.0000000e+00 1.8189894e-12 -0.0000000e+00 
VOLUME_ACCELERATION 3 30  float
0.0000000e+00 0.0000000e+00 0.0000000e+00 
0.0000000e+00 0.0000000e+00 0.0000000e+00 
0.0000000e+00 0.0000000e+00 0.0000000e+00 
0.0000000e+00 0.0000000e+00 0.0000000e+00 
0.0000000e+00 0.0000000e+00 0.0000000e+00 
0.0000000e+00 0.0000000e+00 0.0000000e+00 
0.0000000e+00 0.0000000e+00 0.0000000e+00 
0.0000000e+00 0.0000000e+00 0.0000000e+00 
0.0000000e+00 0.0000000e+00 0.0000000e+00 
0.0000000e+00 0.0000000e+00 0.0000000e+00 
0.0000000e+00 0.0000000e+00 0.0000000e+00 
0.0000000e+00 0.0000000e+00 0.0000000e+00 
0.0000000e+00 0.0000000e+00 0.0000000e+00 
0.0000000e+00 0.0000000e+00 0.0000000e+00 
0.0000000e+00 0.0000000e+00 0.0000000e+00 
0.0000000e+00 0.0000000e+00 0.0000000e+00 
0.0000000e+00 0.0000000e+00 0.0000000e+00 
0.0000000e+00 0.0000000e+00 0.0000000e+00 
0.0000000e+00 0.0000000e+00 0.0000000e+00 
0.0000000e+00 0.0000000e+00 0.0000000e+00 
0.0000000e+00 0.0000000e+00 0.0000000e+00 
0.0000000e+00 0.0000000e+00 0.0000000e+00 
0.0000000e+00 0.0000000e+00 0.0000000e+00 
0.0000000e+00 0.0000000e+00 0.0000000e+00 
0.0000000e+00 0.0000000e+00 0.0000000e+00 
0.0000000e+00 0.0000000e+00 0.0000000e+00 
0.0000000e+00 0.0000000e+00 0.0000000e+00 
0.0000000e+00 0.0000000e+00 0.0000000e+00 
0.0000000e+00 0.0000000e+00 0.0000000e+00 
0.0000000e+00 0.0000000e+00 0.0000000e+00 
POINT_LOAD 3 30  float
0.0000000e+00 0.0000000e+00 0.0000000e+00 
-7.5319658e+03 0.0000000e+00 9.6455986e+03 
0.0000000e+00 0.0000000e+00 0.0000000e+00 
0.0000000e+00 0.0000000e+00 0.0000000e+00 
0.0000000e+00 0.0000000e+00 0.0000000e+00 
0.0000000e+00 0.0000000e+00 0.0000000e+00 
6.1501562e+03 0.0000000e+00 -9.3903326e+02 
0.0000000e+00 0.0000000e+00 0.0000000e+00 
-3.9829250e+03 0.0000000e+00 -8.7107041e+03 
9.7442305e+03 0.0000000e+00 -1.4944454e+03 
-9.0439795e+03 0.0000000e+00 8.1309072e+03 
0.0000000e+00 0.0000000e+00 0.0000000e+00 
-8.9190293e+03 0.0000000e+00 6.5517285e+03 
0.0000000e+00 0.0000000e+00 0.0000000e+00 
0.0000000e+00 0.0000000e+00 0.0000000e+00 
7.2590859e+03 0.0000000e+00 -3.0505208e+03 
9.2429365e+03 0.0000000e+00 -2.5264978e+03 
7.7031001e+03 0.0000000e+00 -4.9357759e+03 
-3.4901666e+02 0.0000000e+00 -8.5045254e+03 
-6.7398718e+02 0.0000000e+00 1.8686989e+03 
0.0000000e+00 0.0000000e+00 0.0000000e+00 
0.0000000e+00 0.0000000e+00 0.0000000e+00 
-4.7411304e+03 0.0000000e+00 6.6755511e+02 
0.0000000e+00 0.0000000e+00 0.0000000e+00 
0.0000000e+00 0.0000000e+00 0.0000000e+00 
1.8195782e+03 0.0000000e+00 -8.6252695e+03 
-1.2278823e+03 0.0000000e+00 -4.8470059e+03 
2.5540256e+03 0.0000000e+00 -9.4937561e+02 
-9.5744082e+03 0.0000000e+00 1.4464996e+03 
-3.7281047e+03 0.0000000e+00 -4.4366602e+03 
POINT_MOMENT 3 30  float
0.0000000e+00 0.0000000e+00 0.0000000e+00 
0.0000000e+00 0.0000000e+00 0.0000000e+00 
0.0000000e+00 0.0000000e+00 0.0000000e+00 
0.0000000e+00 0.0000000e+00 0.0000000e+00 
0.0000000e+00 0.0000000e+00 0.0000000e+00 
0.0000000e+00 0.0000000e+00 0.0000000e+00 
0.0000000e+00 0.0000000e+00 0.0000000e+00 
0.0000000e+00 0.0000000e+00 0.0000000e+00 
0.0000000e+00 0.0000000e+00 0.0000000e+00 
0.0000000e+00 0.0000000e+00 0.0000000e+00 
0.0000000e+00 0.0000000e+00 0.0000000e+00 
0.0000000e+00 0.0000000e+00 0.0000000e+00 
0.0000000e+00 0.0000000e+00 0.0000000e+00 
0.0000000e+00 0.0000000e+00 0.0000000e+00 
0.0000000e+00 0.0000000e+00 0.0000000e+00 
0.0000000e+00 0.0000000e+00 0.0000000e+00 
0.0000000e+00 0.0000000e+00 0.0000000e+00 
0.0000000e+00 0.0000000e+00 0.0000000e+00 
0.0000000e+00 0.0000000e+00 0.0000000e+00 
0.0000000e+00 0.0000000e+00 0.0000000e+00 
0.0000000e+00 0.0000000e+00 0.0000000e+00 
0.0000000e+00 0.0000000e+00 0.0000000e+00 
0.0000000e+00 0.0000000e+00 0.0000000e+00 
0.0000000e+00 0.0000000e+00 0.0000000e+00 
0.0000000e+00 0.0000000e+00 0.0000000e+00 
0.0000000e+00 0.0000000e+00 0.0000000e+00 
0.0000000e+00 0.0000000e+00 0.0000000e+00 
0.0000000e+00 0.0000000e+00 0.0000000e+00 
0.0000000e+00 0.0000000e+00 0.0000000e+00 
0.0000000e+00 0.0000000e+00 0.0000000e+00 
CELL_DATA 30
FIELD FieldData 9
YOUNG_MODULUS 1 30  float
2.1000000e+11
2.1000000e+11
2.1000000e+11
2.1000000e+11
2.1000000e+11
2.1000000e+11
2.1000000e+11
2.1000000e+11
2.1000000e+11
2.1000000e+11
2.1000000e+11
2.1000000e+11
2.1000000e+11
2.1000000e+11
2.1000000e+11
2.1000000e+11
2.1000000e+11
2.1000000e+11
2.1000000e+11
2.1000000e+11
2.1000000e+11
2.1000000e+11
2.1000000e+11
2.1000000e+11
2.1000000e+11
2.1000000e+11
2.1000000e+11
2.1000000e+11
2.1000000e+11
2.1000000e+11
DENSITY 1 30  float
7.8500000e+03
7.8500000e+03
7.8500000e+03
7.8500000e+03
7.8500000e+03
7.8500000e+03
7.8500000e+03
7.8500000e+03
7.8500000e+03
7.8500000e+03
7.8500000e+03
7.8500000e+03
7.8500000e+03
7.8500000e+03
7.8500000e+03
7.8500000e+03
7.8500000e+03
7.8500000e+03
7.8500000e+03
7.8500000e+03
7.8500000e+03
7.8500000e+03
7.8500000e+03
7.8500000e+03
7.8500000e+03
7.8500000e+03
7.8500000e+03
7.8500000e+03
7.8500000e+03
7.8500000e+03
CROSS_AREA 1 30  float
9.9999998e-03
9.9999998e-03
9.9999998e-03
9.9999998e-03
9.9999998e-03
9.9999998e-03
9.9999998e-03
9.9999998e-03
9.9999998e-03
9.9999998e-03
9.9999998e-03
9.9999998e-03
9.9999998e-03
9.9999998e-03
9.9999998e-03
9.9999998e-03
9.9999998e-03
9.9999998e-03
9.9999998e-03
9.9999998e-03
9.9999998e-03
9.9999998e-03
9.9999998e-03
9.9999998e-03
9.9999998e-03
9.9999998e-03
9.9999998e-03
9.9999998e-03
9.9999998e-03
9.9999998e-03
I22 1 30  float
1.5000001e-04
1.5000001e-04
1.5000001e-04
1.5000001e-04
1.5000001e-04
1.5000001e-04
1.5000001e-04
1.5000001e-04
1.5000001e-04
1.5000001e-04
1.5000001e-04
1.5000001e-04
1.5000001e-04
1.5000001e-04
1.5000001e-04
1.5000001e-04
1.5000001e-04
1.5000001e-04
1.5000001e-04
1.5000001e-04
1.5000001e-04
1.5000001e-04
1.5000001e-04
1.5000001e-04
1.5000001e-04
1.5000001e-04
1.5000001e-04
1.5000001e-04
1.5000001e-04
1.5000001e-04
I33 1 30  float
1.5000001e-04
1.5000001e-04
1.5000001e-04
1.5000001e-04
1.5000001e-04
1.5000001e-04
1.5000001e-04
1.5000001e-04
1.5000001e-04
1.5000001e-04
1.5000001e-04
1.5000001e-04
1.5000001e-04
1.5000001e-04
1.5000001e-04
1.5000001e-04
1.5000001e-04
1.5000001e-04
1.5000001e-04
1.5000001e-04
1.5000001e-04
1.5000001e-04
1.5000001e-04
1.5000001e-04
1.5000001e-04
1.5000001e-04
1.5000001e-04
1.5000001e-04
1.5000001e-04
1.5000001e-04
TORSIONAL_INERTIA 1 30  float
3.0000001e-04
3.0000001e-04
3.0000001e-04
3.0000001e-04
3.0000001e-04
3.0000001e-04
3.0000001e-04
3.0000001e-04
3.0000001e-04
3.0000001e-04
3.0000001e-04
3.0000001e-04
3.0000001e-04
3.0000001e-04
3.0000001e-04
3.0000001e-04
3.0000001e-04
3.0000001e-04
3.0000001e-04
3.0000001e-04
3.0000001e-04
3.0000001e-04
3.0000001e-04
3.0000001e-04
3.0000001e-04
3.0000001e-04
3.0000001e-04
3.0000001e-04
3.0000001e-04
3.0000001e-04
POISSON_RATIO 1 30  float
3.0000001e-01
3.0000001e-01
3.0000001e-01
3.0000001e-01
3.0000001e-01
3.0000001e-01
3.0000001e-01
3.0000001e-01
3.0000001e-01
3.0000001e-01
3.0000001e-01
3.0000001e-01
3.0000001e-01
3.0000001e-01
3.0000001e-01
3.0000001e-01
3.0000001e-01
3.0000001e-01
3.0000001e-01
3.0000001e-01
3.0000001e-01
3.0000001e-01
3.0000001e-01
3.0000001e-01
3.0000001e-01
3.0000001e-01
3.0000001e-01
3.0000001e-01
3.0000001e-01
3.0000001e-01
MOMENT 3 30  float
0.0000000e+00 1.2101844e+03 0.0000000e+00 
0.0000000e+00 6.1776703e+02 0.0000000e+00 
0.0000000e+00 -2.9874368e+03 0.0000000e+00 
0.0000000e+00 -6.5926406e+03 0.0000000e+00 
0.0000000e+00 -1.0197844e+04 0.0000000e+00 
0.0000000e+00 -1.6926246e+04 0.0000000e+00 
0.0000000e+00 -1.1124556e+04 0.0000000e+00 
0.0000000e+00 -2.8628022e+03 0.0000000e+00 
0.0000000e+00 3.8057812e+03 0.0000000e+00 
0.0000000e+00 1.2778887e+04 0.0000000e+00 
0.0000000e+00 9.0954193e+02 0.0000000e+00 
0.0000000e+00 -8.3898572e+02 0.0000000e+00 
0.0000000e+00 -6.1551250e+03 0.0000000e+00 
0.0000000e+00 -1.1471265e+04 0.0000000e+00 
0.0000000e+00 -1.3883770e+04 0.0000000e+00 
0.0000000e+00 -9.5206270e+03 0.0000000e+00 
0.0000000e+00 -7.8379824e+03 0.0000000e+00 
0.0000000e+00 -3.2137046e+03 0.0000000e+00 
0.0000000e+00 1.0013717e+03 0.0000000e+00 
0.0000000e+00 4.9468530e+03 0.0000000e+00 
0.0000000e+00 5.2276313e+03 0.0000000e+00 
0.0000000e+00 1.8221088e+03 0.0000000e+00 
0.0000000e+00 -2.2509688e+03 0.0000000e+00 
0.0000000e+00 -6.3240464e+03 0.0000000e+00 
0.0000000e+00 -1.7718546e+03 0.0000000e+00 
0.0000000e+00 1.1844936e+04 0.0000000e+00 
0.0000000e+00 1.9532408e+03 0.0000000e+00 
0.0000000e+00 -2.1420720e+03 0.0000000e+00 
0.0000000e+00 -6.7345088e+03 0.0000000e+00 
0.0000000e+00 -8.3367852e+03 0.0000000e+00 
FORCE 3 30  float
-2.1060105e+03 0.0000000e+00 3.0254612e+03 
-1.1751609e+04 0.0000000e+00 -4.5065049e+03 
-1.1751609e+04 0.0000000e+00 -4.5065049e+03 
-1.1751609e+04 0.0000000e+00 -4.5065049e+03 
-1.1751609e+04 0.0000000e+00 -4.5065049e+03 
-1.0382625e+04 0.0000000e+00 4.1770356e+03 
-9.4435918e+03 0.0000000e+00 1.0327191e+04 
-9.4435918e+03 0.0000000e+00 1.0327191e+04 
-7.3288855e+02 0.0000000e+00 6.3442671e+03 
7.6155688e+02 0.0000000e+00 1.6088497e+04 
-1.8602814e+04 0.0000000e+00 2.2738550e+03 
-2.5154543e+04 0.0000000e+00 -6.6451743e+03 
-2.5154543e+04 0.0000000e+00 -6.6451743e+03 
-2.5154543e+04 0.0000000e+00 -6.6451743e+03 
-2.2104023e+04 0.0000000e+00 6.1391174e+02 
-1.2988795e+04 0.0000000e+00 -1.7482448e+03 
-8.0530186e+03 0.0000000e+00 5.9548555e+03 
4.5150705e+02 0.0000000e+00 5.6058389e+03 
-1.4171918e+03 0.0000000e+00 4.9318516e+03 
-1.4171918e+03 0.0000000e+00 4.9318516e+03 
8.6835400e+03 0.0000000e+00 -1.3689836e+03 
1.3424671e+04 0.0000000e+00 -2.0365388e+03 
1.3424671e+04 0.0000000e+00 -2.0365388e+03 
1.3424671e+04 0.0000000e+00 -2.0365388e+03 
1.1605093e+04 0.0000000e+00 6.5887305e+03 
-7.0445176e+03 0.0000000e+00 -7.3693501e+03 
-5.8166353e+03 0.0000000e+00 -2.5223442e+03 
-8.3706611e+03 0.0000000e+00 -1.5729686e+03 
1.2037469e+03 0.0000000e+00 -3.0194683e+03 
4.9318516e+03 0.0000000e+00 1.4171918e+03 
