# vtk DataFile Version 4.0
vtk output
ASCII
DATASET UNSTRUCTURED_GRID
POINTS 86 float
0.0000000e+00 0.0000000e+00 0.0000000e+00 
0.0000000e+00 0.0000000e+00 6.0000002e-01 
0.0000000e+00 0.0000000e+00 1.2000000e+00 
0.0000000e+00 0.0000000e+00 1.8000000e+00 
0.0000000e+00 0.0000000e+00 2.4000001e+00 
0.0000000e+00 0.0000000e+00 3.0000000e+00 
0.0000000e+00 0.0000000e+00 3.5999999e+00 
0.0000000e+00 0.0000000e+00 4.1999998e+00 
0.0000000e+00 0.0000000e+00 4.8000002e+00 
0.0000000e+00 0.0000000e+00 5.4000001e+00 
0.0000000e+00 0.0000000e+00 6.0000000e+00 
0.0000000e+00 0.0000000e+00 6.5999999e+00 
0.0000000e+00 0.0000000e+00 7.1999998e+00 
0.0000000e+00 0.0000000e+00 7.8000002e+00 
0.0000000e+00 0.0000000e+00 8.3999996e+00 
0.0000000e+00 0.0000000e+00 9.0000000e+00 
0.0000000e+00 0.0000000e+00 9.6000004e+00 
0.0000000e+00 0.0000000e+00 1.0200000e+01 
0.0000000e+00 0.0000000e+00 1.0800000e+01 
0.0000000e+00 0.0000000e+00 1.1400000e+01 
0.0000000e+00 0.0000000e+00 1.2000000e+01 
0.0000000e+00 0.0000000e+00 1.2600000e+01 
0.0000000e+00 0.0000000e+00 1.3200000e+01 
0.0000000e+00 0.0000000e+00 1.3800000e+01 
0.0000000e+00 0.0000000e+00 1.4400000e+01 
0.0000000e+00 0.0000000e+00 1.5000000e+01 
0.0000000e+00 0.0000000e+00 1.5600000e+01 
0.0000000e+00 0.0000000e+00 1.6200001e+01 
0.0000000e+00 0.0000000e+00 1.6799999e+01 
0.0000000e+00 0.0000000e+00 1.7400000e+01 
0.0000000e+00 0.0000000e+00 1.8000000e+01 
6.0000000e+00 0.0000000e+00 0.0000000e+00 
6.0000000e+00 0.0000000e+00 6.0000002e-01 
6.0000000e+00 0.0000000e+00 1.2000000e+00 
6.0000000e+00 0.0000000e+00 1.8000000e+00 
6.0000000e+00 0.0000000e+00 2.4000001e+00 
6.0000000e+00 0.0000000e+00 3.0000000e+00 
6.0000000e+00 0.0000000e+00 3.5999999e+00 
6.0000000e+00 0.0000000e+00 4.1999998e+00 
6.0000000e+00 0.0000000e+00 4.8000002e+00 
6.0000000e+00 0.0000000e+00 5.4000001e+00 
6.0000000e+00 0.0000000e+00 6.0000000e+00 
6.0000000e+00 0.0000000e+00 6.5999999e+00 
6.0000000e+00 0.0000000e+00 7.1999998e+00 
6.0000000e+00 0.0000000e+00 7.8000002e+00 
6.0000000e+00 0.0000000e+00 8.3999996e+00 
6.0000000e+00 0.0000000e+00 9.0000000e+00 
6.0000000e+00 0.0000000e+00 9.6000004e+00 
6.0000000e+00 0.0000000e+00 1.0200000e+01 
6.0000000e+00 0.0000000e+00 1.0800000e+01 
6.0000000e+00 0.0000000e+00 1.1400000e+01 
6.0000000e+00 0.0000000e+00 1.2000000e+01 
6.0000000e+00 0.0000000e+00 1.2600000e+01 
6.0000000e+00 0.0000000e+00 1.3200000e+01 
6.0000000e+00 0.0000000e+00 1.3800000e+01 
6.0000000e+00 0.0000000e+00 1.4400000e+01 
6.0000000e+00 0.0000000e+00 1.5000000e+01 
6.0000000e+00 0.0000000e+00 1.5600000e+01 
6.0000000e+00 0.0000000e+00 1.6200001e+01 
6.0000000e+00 0.0000000e+00 1.6799999e+01 
6.0000000e+00 0.0000000e+00 1.7400000e+01 
6.0000000e+00 0.0000000e+00 1.8000000e+01 
1.2000000e+00 0.0000000e+00 3.0000000e+00 
2.4000001e+00 0.0000000e+00 3.0000000e+00 
3.5999999e+00 0.0000000e+00 3.0000000e+00 
4.8000002e+00 0.0000000e+00 3.0000000e+00 
1.2000000e+00 0.0000000e+00 6.0000000e+00 
2.4000001e+00 0.0000000e+00 6.0000000e+00 
3.5999999e+00 0.0000000e+00 6.0000000e+00 
4.8000002e+00 0.0000000e+00 6.0000000e+00 
1.2000000e+00 0.0000000e+00 9.0000000e+00 
2.4000001e+00 0.0000000e+00 9.0000000e+00 
3.5999999e+00 0.0000000e+00 9.0000000e+00 
4.8000002e+00 0.0000000e+00 9.0000000e+00 
1.2000000e+00 0.0000000e+00 1.2000000e+01 
2.4000001e+00 0.0000000e+00 1.2000000e+01 
3.5999999e+00 0.0000000e+00 1.2000000e+01 
4.8000002e+00 0.0000000e+00 1.2000000e+01 
1.2000000e+00 0.0000000e+00 1.5000000e+01 
2.4000001e+00 0.0000000e+00 1.5000000e+01 
3.5999999e+00 0.0000000e+00 1.5000000e+01 
4.8000002e+00 0.0000000e+00 1.5000000e+01 
1.2000000e+00 0.0000000e+00 1.8000000e+01 
2.4000001e+00 0.0000000e+00 1.8000000e+01 
3.5999999e+00 0.0000000e+00 1.8000000e+01 
4.8000002e+00 0.0000000e+00 1.8000000e+01 

CELLS 90 270
2 0 1
2 1 2
2 2 3
2 3 4
2 4 5
2 5 6
2 6 7
2 7 8
2 8 9
2 9 10
2 10 11
2 11 12
2 12 13
2 13 14
2 14 15
2 15 16
2 16 17
2 17 18
2 18 19
2 19 20
2 20 21
2 21 22
2 22 23
2 23 24
2 24 25
2 25 26
2 26 27
2 27 28
2 28 29
2 29 30
2 31 32
2 32 33
2 33 34
2 34 35
2 35 36
2 36 37
2 37 38
2 38 39
2 39 40
2 40 41
2 41 42
2 42 43
2 43 44
2 44 45
2 45 46
2 46 47
2 47 48
2 48 49
2 49 50
2 50 51
2 51 52
2 52 53
2 53 54
2 54 55
2 55 56
2 56 57
2 57 58
2 58 59
2 59 60
2 60 61
2 5 62
2 62 63
2 63 64
2 64 65
2 65 36
2 10 66
2 66 67
2 67 68
2 68 69
2 69 41
2 15 70
2 70 71
2 71 72
2 72 73
2 73 46
2 20 74
2 74 75
2 75 76
2 76 77
2 77 51
2 25 78
2 78 79
2 79 80
2 80 81
2 81 56
2 30 82
2 82 83
2 83 84
2 84 85
2 85 61

CELL_TYPES 90
3
3
3
3
3
3
3
3
3
3
3
3
3
3
3
3
3
3
3
3
3
3
3
3
3
3
3
3
3
3
3
3
3
3
3
3
3
3
3
3
3
3
3
3
3
3
3
3
3
3
3
3
3
3
3
3
3
3
3
3
3
3
3
3
3
3
3
3
3
3
3
3
3
3
3
3
3
3
3
3
3
3
3
3
3
3
3
3
3
3
POINT_DATA 86
FIELD FieldData 3
ADJOINT_DISPLACEMENT 3 86  float
0.0000000e+00 0.0000000e+00 0.0000000e+00 
-4.9293420e-04 0.0000000e+00 -2.9059225e-15 
-9.9937839e-04 0.0000000e+00 -5.8118450e-15 
-1.5328424e-03 0.0000000e+00 -8.7177673e-15 
-2.1068363e-03 0.0000000e+00 -1.1623690e-14 
-2.7348702e-03 0.0000000e+00 -1.4529612e-14 
-3.6098103e-03 0.0000000e+00 1.8399389e-05 
-4.9365419e-03 0.0000000e+00 3.6798778e-05 
-6.7466022e-03 0.0000000e+00 5.5198168e-05 
-9.0715289e-03 0.0000000e+00 7.3597555e-05 
-1.1942860e-02 0.0000000e+00 9.1996946e-05 
-1.5880762e-02 0.0000000e+00 1.8460721e-04 
-2.0309471e-02 0.0000000e+00 2.7721748e-04 
-2.3616634e-02 0.0000000e+00 3.6982773e-04 
-2.4189902e-02 0.0000000e+00 4.6243798e-04 
-2.0416921e-02 0.0000000e+00 5.5504823e-04 
-1.4713218e-02 0.0000000e+00 1.0027871e-03 
-1.9631781e-02 0.0000000e+00 1.4505261e-03 
-4.8766438e-02 0.0000000e+00 1.8982650e-03 
-1.1571103e-01 0.0000000e+00 2.3460039e-03 
-2.3405938e-01 0.0000000e+00 2.7937428e-03 
-4.3791088e-01 0.0000000e+00 4.9547516e-03 
-1.4261271e-01 0.0000000e+00 7.1157608e-03 
6.6369765e-02 0.0000000e+00 9.2767701e-03 
2.0357110e-01 0.0000000e+00 1.1437778e-02 
2.8352588e-01 0.0000000e+00 1.3598788e-02 
3.3423138e-01 0.0000000e+00 1.4028127e-02 
3.7459272e-01 0.0000000e+00 1.4457467e-02 
4.0550646e-01 0.0000000e+00 1.4886806e-02 
4.2786905e-01 0.0000000e+00 1.5316145e-02 
4.4257703e-01 0.0000000e+00 1.5745485e-02 
0.0000000e+00 0.0000000e+00 0.0000000e+00 
-6.1102916e-04 0.0000000e+00 2.9223770e-15 
-1.2085483e-03 0.0000000e+00 5.8447598e-15 
-1.7790477e-03 0.0000000e+00 8.7671264e-15 
-2.3090171e-03 0.0000000e+00 1.1689498e-14 
-2.7849467e-03 0.0000000e+00 1.4611911e-14 
-3.3451589e-03 0.0000000e+00 -1.8399389e-05 
-4.1159578e-03 0.0000000e+00 -3.6798778e-05 
-5.0658057e-03 0.0000000e+00 -5.5198168e-05 
-6.1631650e-03 0.0000000e+00 -7.3597555e-05 
-7.3764985e-03 0.0000000e+00 -9.1996946e-05 
-9.5214359e-03 0.0000000e+00 -1.8460721e-04 
-1.4509534e-02 0.0000000e+00 -2.7721748e-04 
-2.3953147e-02 0.0000000e+00 -3.6982773e-04 
-3.9464626e-02 0.0000000e+00 -4.6243798e-04 
-6.2656321e-02 0.0000000e+00 -5.5504823e-04 
-9.7505026e-02 0.0000000e+00 -1.0027871e-03 
-1.3785006e-01 0.0000000e+00 -1.4505261e-03 
-1.7009760e-01 0.0000000e+00 -1.8982650e-03 
-1.8065383e-01 0.0000000e+00 -2.3460039e-03 
-1.5592489e-01 0.0000000e+00 -2.7937428e-03 
-9.2650235e-02 0.0000000e+00 -4.9547516e-03 
-6.3216104e-03 0.0000000e+00 -7.1157608e-03 
8.8526413e-02 0.0000000e+00 -9.2767701e-03 
1.7735924e-01 0.0000000e+00 -1.1437778e-02 
2.4564230e-01 0.0000000e+00 -1.3598788e-02 
2.9654840e-01 0.0000000e+00 -1.4028127e-02 
3.4234238e-01 0.0000000e+00 -1.4457467e-02 
3.8212776e-01 0.0000000e+00 -1.4886806e-02 
4.1500807e-01 0.0000000e+00 -1.5316145e-02 
4.4008678e-01 0.0000000e+00 -1.5745485e-02 
-2.7448854e-03 0.0000000e+00 7.0202287e-04 
-2.7549008e-03 0.0000000e+00 5.2313192e-04 
-2.7649160e-03 0.0000000e+00 -6.7704973e-06 
-2.7749315e-03 0.0000000e+00 -3.5778194e-04 
-1.1029588e-02 0.0000000e+00 3.7078613e-03 
-1.0116315e-02 0.0000000e+00 3.3601210e-03 
-9.2030428e-03 0.0000000e+00 1.1860491e-03 
-8.2897712e-03 0.0000000e+00 -6.7708117e-04 
-2.8864801e-02 0.0000000e+00 -1.6681517e-02 
-3.7312683e-02 0.0000000e+00 -3.5638515e-02 
-4.5760561e-02 0.0000000e+00 -4.6088241e-02 
-5.4208443e-02 0.0000000e+00 -3.7802987e-02 
-2.1843247e-01 0.0000000e+00 2.0740587e-01 
-2.0280558e-01 0.0000000e+00 2.5981101e-01 
-1.8717869e-01 0.0000000e+00 2.0935133e-01 
-1.7155178e-01 0.0000000e+00 1.0536902e-01 
2.7594918e-01 0.0000000e+00 -4.4123255e-02 
2.6837245e-01 0.0000000e+00 -2.5831955e-02 
2.6079574e-01 0.0000000e+00 1.8600609e-02 
2.5321901e-01 0.0000000e+00 3.9302360e-02 
4.4207898e-01 0.0000000e+00 4.8420113e-03 
4.4158092e-01 0.0000000e+00 8.6061563e-03 
4.4108286e-01 0.0000000e+00 1.4672941e-02 
4.4058481e-01 0.0000000e+00 1.0677386e-02 
ADJOINT_ROTATION 3 86  float
0.0000000e+00 -8.1780425e-04 0.0000000e+00 
0.0000000e+00 -8.2906254e-04 0.0000000e+00 
0.0000000e+00 -8.6283742e-04 0.0000000e+00 
0.0000000e+00 -9.1912888e-04 0.0000000e+00 
0.0000000e+00 -9.9793694e-04 0.0000000e+00 
0.0000000e+00 -1.0992616e-03 0.0000000e+00 
0.0000000e+00 -1.8259659e-03 0.0000000e+00 
0.0000000e+00 -2.6052329e-03 0.0000000e+00 
0.0000000e+00 -3.4370625e-03 0.0000000e+00 
0.0000000e+00 -4.3214546e-03 0.0000000e+00 
0.0000000e+00 -5.2584093e-03 0.0000000e+00 
0.0000000e+00 -7.4200504e-03 0.0000000e+00 
0.0000000e+00 -6.8944371e-03 0.0000000e+00 
0.0000000e+00 -3.6815696e-03 0.0000000e+00 
0.0000000e+00 2.2185524e-03 0.0000000e+00 
0.0000000e+00 1.0805928e-02 0.0000000e+00 
0.0000000e+00 4.4303481e-03 0.0000000e+00 
0.0000000e+00 -2.4601620e-02 0.0000000e+00 
0.0000000e+00 -7.6289974e-02 0.0000000e+00 
0.0000000e+00 -1.5063472e-01 0.0000000e+00 
0.0000000e+00 -2.4763584e-01 0.0000000e+00 
0.0000000e+00 -4.2783183e-01 0.0000000e+00 
0.0000000e+00 4.1619650e-01 0.0000000e+00 
0.0000000e+00 2.8444913e-01 0.0000000e+00 
0.0000000e+00 1.7692605e-01 0.0000000e+00 
0.0000000e+00 9.3627281e-02 0.0000000e+00 
0.0000000e+00 7.5640008e-02 0.0000000e+00 
0.0000000e+00 5.9146889e-02 0.0000000e+00 
0.0000000e+00 4.4147924e-02 0.0000000e+00 
0.0000000e+00 3.0643111e-02 0.0000000e+00 
0.0000000e+00 1.8632453e-02 0.0000000e+00 
0.0000000e+00 -1.0221347e-03 0.0000000e+00 
0.0000000e+00 -1.0108764e-03 0.0000000e+00 
0.0000000e+00 -9.7710150e-04 0.0000000e+00 
0.0000000e+00 -9.2081004e-04 0.0000000e+00 
0.0000000e+00 -8.4200199e-04 0.0000000e+00 
0.0000000e+00 -7.4067729e-04 0.0000000e+00 
0.0000000e+00 -1.1179363e-03 0.0000000e+00 
0.0000000e+00 -1.4426328e-03 0.0000000e+00 
0.0000000e+00 -1.7147666e-03 0.0000000e+00 
0.0000000e+00 -1.9343379e-03 0.0000000e+00 
0.0000000e+00 -2.1013466e-03 0.0000000e+00 
0.0000000e+00 -5.4963212e-03 0.0000000e+00 
0.0000000e+00 -1.1578550e-02 0.0000000e+00 
0.0000000e+00 -2.0348033e-02 0.0000000e+00 
0.0000000e+00 -3.1804770e-02 0.0000000e+00 
0.0000000e+00 -4.5948762e-02 0.0000000e+00 
0.0000000e+00 -6.6437520e-02 0.0000000e+00 
0.0000000e+00 -6.4269885e-02 0.0000000e+00 
0.0000000e+00 -3.9445866e-02 0.0000000e+00 
0.0000000e+00 8.0345394e-03 0.0000000e+00 
0.0000000e+00 7.8171328e-02 0.0000000e+00 
0.0000000e+00 1.2870678e-01 0.0000000e+00 
0.0000000e+00 1.5501793e-01 0.0000000e+00 
0.0000000e+00 1.5710476e-01 0.0000000e+00 
0.0000000e+00 1.3496730e-01 0.0000000e+00 
0.0000000e+00 8.8605516e-02 0.0000000e+00 
0.0000000e+00 8.0832422e-02 0.0000000e+00 
0.0000000e+00 7.1565166e-02 0.0000000e+00 
0.0000000e+00 6.0803764e-02 0.0000000e+00 
0.0000000e+00 4.8548203e-02 0.0000000e+00 
0.0000000e+00 3.4798492e-02 0.0000000e+00 
0.0000000e+00 -1.4437408e-04 0.0000000e+00 
0.0000000e+00 3.6892813e-04 0.0000000e+00 
0.0000000e+00 4.4064500e-04 0.0000000e+00 
0.0000000e+00 7.0776514e-05 0.0000000e+00 
0.0000000e+00 -1.0648748e-03 0.0000000e+00 
0.0000000e+00 1.3475985e-03 0.0000000e+00 
0.0000000e+00 1.9790111e-03 0.0000000e+00 
0.0000000e+00 8.2936266e-04 0.0000000e+00 
0.0000000e+00 1.6501166e-02 0.0000000e+00 
0.0000000e+00 1.3673316e-02 0.0000000e+00 
0.0000000e+00 2.3223774e-03 0.0000000e+00 
0.0000000e+00 -1.7551649e-02 0.0000000e+00 
0.0000000e+00 -1.0023744e-01 0.0000000e+00 
0.0000000e+00 6.0424716e-03 0.0000000e+00 
0.0000000e+00 7.1203902e-02 0.0000000e+00 
0.0000000e+00 9.5246859e-02 0.0000000e+00 
0.0000000e+00 9.5027983e-03 0.0000000e+00 
0.0000000e+00 -3.3061620e-02 0.0000000e+00 
0.0000000e+00 -3.4065977e-02 0.0000000e+00 
0.0000000e+00 6.4897379e-03 0.0000000e+00 
0.0000000e+00 1.2573624e-03 0.0000000e+00 
0.0000000e+00 -5.8135786e-03 0.0000000e+00 
0.0000000e+00 -2.5803705e-03 0.0000000e+00 
0.0000000e+00 1.0956986e-02 0.0000000e+00 
SHAPE_SENSITIVITY 3 86  float
0.0000000e+00 0.0000000e+00 0.0000000e+00 
0.0000000e+00 0.0000000e+00 0.0000000e+00 
0.0000000e+00 0.0000000e+00 0.0000000e+00 
0.0000000e+00 0.0000000e+00 0.0000000e+00 
0.0000000e+00 0.0000000e+00 0.0000000e+00 
0.0000000e+00 0.0000000e+00 0.0000000e+00 
0.0000000e+00 0.0000000e+00 0.0000000e+00 
0.0000000e+00 0.0000000e+00 0.0000000e+00 
0.0000000e+00 0.0000000e+00 0.0000000e+00 
0.0000000e+00 0.0000000e+00 0.0000000e+00 
0.0000000e+00 0.0000000e+00 0.0000000e+00 
0.0000000e+00 0.0000000e+00 0.0000000e+00 
0.0000000e+00 0.0000000e+00 0.0000000e+00 
0.0000000e+00 0.0000000e+00 0.0000000e+00 
0.0000000e+00 0.0000000e+00 0.0000000e+00 
0.0000000e+00 0.0000000e+00 0.0000000e+00 
0.0000000e+00 0.0000000e+00 0.0000000e+00 
0.0000000e+00 0.0000000e+00 0.0000000e+00 
0.0000000e+00 0.0000000e+00 0.0000000e+00 
0.0000000e+00 0.0000000e+00 0.0000000e+00 
0.0000000e+00 0.0000000e+00 0.0000000e+00 
0.0000000e+00 0.0000000e+00 0.0000000e+00 
0.0000000e+00 0.0000000e+00 0.0000000e+00 
0.0000000e+00 0.0000000e+00 0.0000000e+00 
0.0000000e+00 0.0000000e+00 0.0000000e+00 
0.0000000e+00 0.0000000e+00 0.0000000e+00 
0.0000000e+00 0.0000000e+00 0.0000000e+00 
0.0000000e+00 0.0000000e+00 0.0000000e+00 
0.0000000e+00 0.0000000e+00 0.0000000e+00 
0.0000000e+00 0.0000000e+00 0.0000000e+00 
0.0000000e+00 0.0000000e+00 0.0000000e+00 
0.0000000e+00 0.0000000e+00 0.0000000e+00 
0.0000000e+00 0.0000000e+00 0.0000000e+00 
0.0000000e+00 0.0000000e+00 0.0000000e+00 
0.0000000e+00 0.0000000e+00 0.0000000e+00 
0.0000000e+00 0.0000000e+00 0.0000000e+00 
0.0000000e+00 0.0000000e+00 0.0000000e+00 
0.0000000e+00 0.0000000e+00 0.0000000e+00 
0.0000000e+00 0.0000000e+00 0.0000000e+00 
0.0000000e+00 0.0000000e+00 0.0000000e+00 
0.0000000e+00 0.0000000e+00 0.0000000e+00 
0.0000000e+00 0.0000000e+00 0.0000000e+00 
0.0000000e+00 0.0000000e+00 0.0000000e+00 
0.0000000e+00 0.0000000e+00 0.0000000e+00 
0.0000000e+00 0.0000000e+00 0.0000000e+00 
0.0000000e+00 0.0000000e+00 0.0000000e+00 
0.0000000e+00 0.0000000e+00 0.0000000e+00 
0.0000000e+00 0.0000000e+00 0.0000000e+00 
0.0000000e+00 0.0000000e+00 0.0000000e+00 
0.0000000e+00 0.0000000e+00 0.0000000e+00 
0.0000000e+00 0.0000000e+00 0.0000000e+00 
0.0000000e+00 0.0000000e+00 0.0000000e+00 
0.0000000e+00 0.0000000e+00 0.0000000e+00 
0.0000000e+00 0.0000000e+00 0.0000000e+00 
0.0000000e+00 0.0000000e+00 0.0000000e+00 
0.0000000e+00 0.0000000e+00 0.0000000e+00 
0.0000000e+00 0.0000000e+00 0.0000000e+00 
0.0000000e+00 0.0000000e+00 0.0000000e+00 
0.0000000e+00 0.0000000e+00 0.0000000e+00 
0.0000000e+00 0.0000000e+00 0.0000000e+00 
0.0000000e+00 0.0000000e+00 0.0000000e+00 
0.0000000e+00 0.0000000e+00 0.0000000e+00 
0.0000000e+00 0.0000000e+00 0.0000000e+00 
0.0000000e+00 0.0000000e+00 0.0000000e+00 
0.0000000e+00 0.0000000e+00 0.0000000e+00 
0.0000000e+00 0.0000000e+00 0.0000000e+00 
0.0000000e+00 0.0000000e+00 0.0000000e+00 
0.0000000e+00 0.0000000e+00 0.0000000e+00 
0.0000000e+00 0.0000000e+00 0.0000000e+00 
0.0000000e+00 0.0000000e+00 0.0000000e+00 
0.0000000e+00 0.0000000e+00 0.0000000e+00 
0.0000000e+00 0.0000000e+00 0.0000000e+00 
0.0000000e+00 0.0000000e+00 0.0000000e+00 
0.0000000e+00 0.0000000e+00 0.0000000e+00 
0.0000000e+00 0.0000000e+00 0.0000000e+00 
0.0000000e+00 0.0000000e+00 0.0000000e+00 
0.0000000e+00 0.0000000e+00 0.0000000e+00 
0.0000000e+00 0.0000000e+00 0.0000000e+00 
0.0000000e+00 0.0000000e+00 0.0000000e+00 
0.0000000e+00 0.0000000e+00 0.0000000e+00 
0.0000000e+00 0.0000000e+00 0.0000000e+00 
0.0000000e+00 0.0000000e+00 0.0000000e+00 
0.0000000e+00 0.0000000e+00 0.0000000e+00 
0.0000000e+00 0.0000000e+00 0.0000000e+00 
0.0000000e+00 0.0000000e+00 0.0000000e+00 
0.0000000e+00 0.0000000e+00 0.0000000e+00 
CELL_DATA 90
FIELD FieldData 1
I22_SENSITIVITY 1 90  float
-1.3565186e-03
-9.3830870e-03
-2.5076013e-02
-4.8277568e-02
-7.8762718e-02
1.2752359e-01
2.1532850e-02
-9.7485557e-02
-2.2643048e-01
-3.6435729e-01
4.1418281e-01
-2.9806229e-03
2.1727474e-01
1.0456206e+00
2.4822903e+00
6.3696694e-01
9.5605230e-01
-2.5920351e+00
-9.7807264e+00
-2.0126438e+01
1.2336954e+01
1.6378049e+00
-5.8443866e+00
-1.0662344e+01
-1.2578139e+01
3.7574163e-01
-2.4793297e-01
-6.7432272e-01
-9.3033135e-01
-1.0428545e+00
1.3454757e-03
9.3056951e-03
2.4865799e-02
4.7620598e-02
7.7479906e-02
6.1407704e-02
6.4538810e-03
-3.1824708e-02
-5.5006478e-02
-6.3617438e-02
5.6939065e-01
3.2627764e-01
-4.9740455e-01
-1.8890049e+00
-3.8216445e+00
2.4048076e+00
1.0429008e-01
1.5283389e+00
6.2691498e+00
1.3918896e+01
-3.2030272e+00
-3.2423705e-01
-1.3609468e-02
-2.1926396e+00
-6.5162573e+00
3.7696497e-03
-1.6198480e-01
-3.5030186e-01
-5.8373332e-01
-8.6227626e-01
8.5637832e-01
2.3802561e-01
1.5578284e-02
1.8020466e-01
7.1952903e-01
2.3702271e+00
7.1000147e-01
4.0665921e-02
3.6222053e-01
1.6553000e+00
2.4617028e+00
-3.8489774e-01
3.1053194e-01
4.2411609e+00
1.1100158e+01
4.0524944e+01
1.4604880e+01
9.6329659e-02
-2.8975692e+00
4.8217158e+00
-1.4317307e+01
-3.3121674e+00
-2.5533628e-01
-3.6506507e+00
-1.2001948e+01
-1.2515826e+00
-2.1527085e-01
-7.0685111e-02
-6.1174238e-01
-1.5202231e+00
