# vtk DataFile Version 4.0
vtk output
ASCII
DATASET UNSTRUCTURED_GRID
POINTS 212 float
0.0000000e+00 0.0000000e+00 0.0000000e+00 
0.0000000e+00 0.0000000e+00 2.5000000e-01 
0.0000000e+00 0.0000000e+00 5.0000000e-01 
0.0000000e+00 0.0000000e+00 7.5000000e-01 
0.0000000e+00 0.0000000e+00 1.0000000e+00 
0.0000000e+00 0.0000000e+00 1.2500000e+00 
0.0000000e+00 0.0000000e+00 1.5000000e+00 
0.0000000e+00 0.0000000e+00 1.7500000e+00 
0.0000000e+00 0.0000000e+00 2.0000000e+00 
0.0000000e+00 0.0000000e+00 2.2500000e+00 
0.0000000e+00 0.0000000e+00 2.5000000e+00 
0.0000000e+00 0.0000000e+00 2.7500000e+00 
0.0000000e+00 0.0000000e+00 3.0000000e+00 
0.0000000e+00 0.0000000e+00 3.2500000e+00 
0.0000000e+00 0.0000000e+00 3.5000000e+00 
0.0000000e+00 0.0000000e+00 3.7500000e+00 
0.0000000e+00 0.0000000e+00 4.0000000e+00 
0.0000000e+00 0.0000000e+00 4.2500000e+00 
0.0000000e+00 0.0000000e+00 4.5000000e+00 
0.0000000e+00 0.0000000e+00 4.7500000e+00 
0.0000000e+00 0.0000000e+00 5.0000000e+00 
0.0000000e+00 0.0000000e+00 5.2500000e+00 
0.0000000e+00 0.0000000e+00 5.5000000e+00 
0.0000000e+00 0.0000000e+00 5.7500000e+00 
0.0000000e+00 0.0000000e+00 6.0000000e+00 
0.0000000e+00 0.0000000e+00 6.2500000e+00 
0.0000000e+00 0.0000000e+00 6.5000000e+00 
0.0000000e+00 0.0000000e+00 6.7500000e+00 
0.0000000e+00 0.0000000e+00 7.0000000e+00 
0.0000000e+00 0.0000000e+00 7.2500000e+00 
0.0000000e+00 0.0000000e+00 7.5000000e+00 
0.0000000e+00 0.0000000e+00 7.7500000e+00 
0.0000000e+00 0.0000000e+00 8.0000000e+00 
0.0000000e+00 0.0000000e+00 8.2500000e+00 
0.0000000e+00 0.0000000e+00 8.5000000e+00 
0.0000000e+00 0.0000000e+00 8.7500000e+00 
0.0000000e+00 0.0000000e+00 9.0000000e+00 
0.0000000e+00 0.0000000e+00 9.2500000e+00 
0.0000000e+00 0.0000000e+00 9.5000000e+00 
0.0000000e+00 0.0000000e+00 9.7500000e+00 
0.0000000e+00 0.0000000e+00 1.0000000e+01 
0.0000000e+00 0.0000000e+00 1.0250000e+01 
0.0000000e+00 0.0000000e+00 1.0500000e+01 
0.0000000e+00 0.0000000e+00 1.0750000e+01 
0.0000000e+00 0.0000000e+00 1.1000000e+01 
0.0000000e+00 0.0000000e+00 1.1250000e+01 
0.0000000e+00 0.0000000e+00 1.1500000e+01 
0.0000000e+00 0.0000000e+00 1.1750000e+01 
0.0000000e+00 0.0000000e+00 1.2000000e+01 
0.0000000e+00 0.0000000e+00 1.2250000e+01 
0.0000000e+00 0.0000000e+00 1.2500000e+01 
0.0000000e+00 0.0000000e+00 1.2750000e+01 
0.0000000e+00 0.0000000e+00 1.3000000e+01 
0.0000000e+00 0.0000000e+00 1.3250000e+01 
0.0000000e+00 0.0000000e+00 1.3500000e+01 
0.0000000e+00 0.0000000e+00 1.3750000e+01 
0.0000000e+00 0.0000000e+00 1.4000000e+01 
0.0000000e+00 0.0000000e+00 1.4250000e+01 
0.0000000e+00 0.0000000e+00 1.4500000e+01 
0.0000000e+00 0.0000000e+00 1.4750000e+01 
0.0000000e+00 0.0000000e+00 1.5000000e+01 
0.0000000e+00 0.0000000e+00 1.5250000e+01 
0.0000000e+00 0.0000000e+00 1.5500000e+01 
0.0000000e+00 0.0000000e+00 1.5750000e+01 
0.0000000e+00 0.0000000e+00 1.6000000e+01 
0.0000000e+00 0.0000000e+00 1.6250000e+01 
0.0000000e+00 0.0000000e+00 1.6500000e+01 
0.0000000e+00 0.0000000e+00 1.6750000e+01 
0.0000000e+00 0.0000000e+00 1.7000000e+01 
0.0000000e+00 0.0000000e+00 1.7250000e+01 
0.0000000e+00 0.0000000e+00 1.7500000e+01 
0.0000000e+00 0.0000000e+00 1.7750000e+01 
0.0000000e+00 0.0000000e+00 1.8000000e+01 
5.0000000e-01 0.0000000e+00 3.0000000e+00 
5.0000000e-01 0.0000000e+00 6.0000000e+00 
5.0000000e-01 0.0000000e+00 9.0000000e+00 
5.0000000e-01 0.0000000e+00 1.2000000e+01 
5.0000000e-01 0.0000000e+00 1.5000000e+01 
5.0000000e-01 0.0000000e+00 1.8000000e+01 
1.0000000e+00 0.0000000e+00 3.0000000e+00 
1.0000000e+00 0.0000000e+00 6.0000000e+00 
1.0000000e+00 0.0000000e+00 9.0000000e+00 
1.0000000e+00 0.0000000e+00 1.2000000e+01 
1.0000000e+00 0.0000000e+00 1.5000000e+01 
1.0000000e+00 0.0000000e+00 1.8000000e+01 
1.5000000e+00 0.0000000e+00 3.0000000e+00 
1.5000000e+00 0.0000000e+00 6.0000000e+00 
1.5000000e+00 0.0000000e+00 9.0000000e+00 
1.5000000e+00 0.0000000e+00 1.2000000e+01 
1.5000000e+00 0.0000000e+00 1.5000000e+01 
1.5000000e+00 0.0000000e+00 1.8000000e+01 
2.0000000e+00 0.0000000e+00 3.0000000e+00 
2.0000000e+00 0.0000000e+00 6.0000000e+00 
2.0000000e+00 0.0000000e+00 9.0000000e+00 
2.0000000e+00 0.0000000e+00 1.2000000e+01 
2.0000000e+00 0.0000000e+00 1.5000000e+01 
2.0000000e+00 0.0000000e+00 1.8000000e+01 
2.5000000e+00 0.0000000e+00 3.0000000e+00 
2.5000000e+00 0.0000000e+00 6.0000000e+00 
2.5000000e+00 0.0000000e+00 9.0000000e+00 
2.5000000e+00 0.0000000e+00 1.2000000e+01 
2.5000000e+00 0.0000000e+00 1.5000000e+01 
2.5000000e+00 0.0000000e+00 1.8000000e+01 
3.0000000e+00 0.0000000e+00 3.0000000e+00 
3.0000000e+00 0.0000000e+00 6.0000000e+00 
3.0000000e+00 0.0000000e+00 9.0000000e+00 
3.0000000e+00 0.0000000e+00 1.2000000e+01 
3.0000000e+00 0.0000000e+00 1.5000000e+01 
3.0000000e+00 0.0000000e+00 1.8000000e+01 
3.5000000e+00 0.0000000e+00 3.0000000e+00 
3.5000000e+00 0.0000000e+00 6.0000000e+00 
3.5000000e+00 0.0000000e+00 9.0000000e+00 
3.5000000e+00 0.0000000e+00 1.2000000e+01 
3.5000000e+00 0.0000000e+00 1.5000000e+01 
3.5000000e+00 0.0000000e+00 1.8000000e+01 
4.0000000e+00 0.0000000e+00 3.0000000e+00 
4.0000000e+00 0.0000000e+00 6.0000000e+00 
4.0000000e+00 0.0000000e+00 9.0000000e+00 
4.0000000e+00 0.0000000e+00 1.2000000e+01 
4.0000000e+00 0.0000000e+00 1.5000000e+01 
4.0000000e+00 0.0000000e+00 1.8000000e+01 
4.5000000e+00 0.0000000e+00 3.0000000e+00 
4.5000000e+00 0.0000000e+00 6.0000000e+00 
4.5000000e+00 0.0000000e+00 9.0000000e+00 
4.5000000e+00 0.0000000e+00 1.2000000e+01 
4.5000000e+00 0.0000000e+00 1.5000000e+01 
4.5000000e+00 0.0000000e+00 1.8000000e+01 
5.0000000e+00 0.0000000e+00 3.0000000e+00 
5.0000000e+00 0.0000000e+00 6.0000000e+00 
5.0000000e+00 0.0000000e+00 9.0000000e+00 
5.0000000e+00 0.0000000e+00 1.2000000e+01 
5.0000000e+00 0.0000000e+00 1.5000000e+01 
5.0000000e+00 0.0000000e+00 1.8000000e+01 
5.5000000e+00 0.0000000e+00 3.0000000e+00 
5.5000000e+00 0.0000000e+00 6.0000000e+00 
5.5000000e+00 0.0000000e+00 9.0000000e+00 
5.5000000e+00 0.0000000e+00 1.2000000e+01 
5.5000000e+00 0.0000000e+00 1.5000000e+01 
5.5000000e+00 0.0000000e+00 1.8000000e+01 
6.0000000e+00 0.0000000e+00 0.0000000e+00 
6.0000000e+00 0.0000000e+00 2.5000000e-01 
6.0000000e+00 0.0000000e+00 5.0000000e-01 
6.0000000e+00 0.0000000e+00 7.5000000e-01 
6.0000000e+00 0.0000000e+00 1.0000000e+00 
6.0000000e+00 0.0000000e+00 1.2500000e+00 
6.0000000e+00 0.0000000e+00 1.5000000e+00 
6.0000000e+00 0.0000000e+00 1.7500000e+00 
6.0000000e+00 0.0000000e+00 2.0000000e+00 
6.0000000e+00 0.0000000e+00 2.2500000e+00 
6.0000000e+00 0.0000000e+00 2.5000000e+00 
6.0000000e+00 0.0000000e+00 2.7500000e+00 
6.0000000e+00 0.0000000e+00 3.0000000e+00 
6.0000000e+00 0.0000000e+00 3.2500000e+00 
6.0000000e+00 0.0000000e+00 3.5000000e+00 
6.0000000e+00 0.0000000e+00 3.7500000e+00 
6.0000000e+00 0.0000000e+00 4.0000000e+00 
6.0000000e+00 0.0000000e+00 4.2500000e+00 
6.0000000e+00 0.0000000e+00 4.5000000e+00 
6.0000000e+00 0.0000000e+00 4.7500000e+00 
6.0000000e+00 0.0000000e+00 5.0000000e+00 
6.0000000e+00 0.0000000e+00 5.2500000e+00 
6.0000000e+00 0.0000000e+00 5.5000000e+00 
6.0000000e+00 0.0000000e+00 5.7500000e+00 
6.0000000e+00 0.0000000e+00 6.0000000e+00 
6.0000000e+00 0.0000000e+00 6.2500000e+00 
6.0000000e+00 0.0000000e+00 6.5000000e+00 
6.0000000e+00 0.0000000e+00 6.7500000e+00 
6.0000000e+00 0.0000000e+00 7.0000000e+00 
6.0000000e+00 0.0000000e+00 7.2500000e+00 
6.0000000e+00 0.0000000e+00 7.5000000e+00 
6.0000000e+00 0.0000000e+00 7.7500000e+00 
6.0000000e+00 0.0000000e+00 8.0000000e+00 
6.0000000e+00 0.0000000e+00 8.2500000e+00 
6.0000000e+00 0.0000000e+00 8.5000000e+00 
6.0000000e+00 0.0000000e+00 8.7500000e+00 
6.0000000e+00 0.0000000e+00 9.0000000e+00 
6.0000000e+00 0.0000000e+00 9.2500000e+00 
6.0000000e+00 0.0000000e+00 9.5000000e+00 
6.0000000e+00 0.0000000e+00 9.7500000e+00 
6.0000000e+00 0.0000000e+00 1.0000000e+01 
6.0000000e+00 0.0000000e+00 1.0250000e+01 
6.0000000e+00 0.0000000e+00 1.0500000e+01 
6.0000000e+00 0.0000000e+00 1.0750000e+01 
6.0000000e+00 0.0000000e+00 1.1000000e+01 
6.0000000e+00 0.0000000e+00 1.1250000e+01 
6.0000000e+00 0.0000000e+00 1.1500000e+01 
6.0000000e+00 0.0000000e+00 1.1750000e+01 
6.0000000e+00 0.0000000e+00 1.2000000e+01 
6.0000000e+00 0.0000000e+00 1.2250000e+01 
6.0000000e+00 0.0000000e+00 1.2500000e+01 
6.0000000e+00 0.0000000e+00 1.2750000e+01 
6.0000000e+00 0.0000000e+00 1.3000000e+01 
6.0000000e+00 0.0000000e+00 1.3250000e+01 
6.0000000e+00 0.0000000e+00 1.3500000e+01 
6.0000000e+00 0.0000000e+00 1.3750000e+01 
6.0000000e+00 0.0000000e+00 1.4000000e+01 
6.0000000e+00 0.0000000e+00 1.4250000e+01 
6.0000000e+00 0.0000000e+00 1.4500000e+01 
6.0000000e+00 0.0000000e+00 1.4750000e+01 
6.0000000e+00 0.0000000e+00 1.5000000e+01 
6.0000000e+00 0.0000000e+00 1.5250000e+01 
6.0000000e+00 0.0000000e+00 1.5500000e+01 
6.0000000e+00 0.0000000e+00 1.5750000e+01 
6.0000000e+00 0.0000000e+00 1.6000000e+01 
6.0000000e+00 0.0000000e+00 1.6250000e+01 
6.0000000e+00 0.0000000e+00 1.6500000e+01 
6.0000000e+00 0.0000000e+00 1.6750000e+01 
6.0000000e+00 0.0000000e+00 1.7000000e+01 
6.0000000e+00 0.0000000e+00 1.7250000e+01 
6.0000000e+00 0.0000000e+00 1.7500000e+01 
6.0000000e+00 0.0000000e+00 1.7750000e+01 
6.0000000e+00 0.0000000e+00 1.8000000e+01 

CELLS 216 648
2 0 1
2 1 2
2 2 3
2 3 4
2 4 5
2 5 6
2 6 7
2 7 8
2 8 9
2 9 10
2 10 11
2 11 12
2 12 13
2 13 14
2 14 15
2 15 16
2 16 17
2 17 18
2 18 19
2 19 20
2 20 21
2 21 22
2 22 23
2 23 24
2 24 25
2 25 26
2 26 27
2 27 28
2 28 29
2 29 30
2 30 31
2 31 32
2 32 33
2 33 34
2 34 35
2 35 36
2 36 37
2 37 38
2 38 39
2 39 40
2 40 41
2 41 42
2 42 43
2 43 44
2 44 45
2 45 46
2 46 47
2 47 48
2 48 49
2 49 50
2 50 51
2 51 52
2 52 53
2 53 54
2 54 55
2 55 56
2 56 57
2 57 58
2 58 59
2 59 60
2 60 61
2 61 62
2 62 63
2 63 64
2 64 65
2 65 66
2 66 67
2 67 68
2 68 69
2 69 70
2 70 71
2 71 72
2 139 140
2 140 141
2 141 142
2 142 143
2 143 144
2 144 145
2 145 146
2 146 147
2 147 148
2 148 149
2 149 150
2 150 151
2 151 152
2 152 153
2 153 154
2 154 155
2 155 156
2 156 157
2 157 158
2 158 159
2 159 160
2 160 161
2 161 162
2 162 163
2 163 164
2 164 165
2 165 166
2 166 167
2 167 168
2 168 169
2 169 170
2 170 171
2 171 172
2 172 173
2 173 174
2 174 175
2 175 176
2 176 177
2 177 178
2 178 179
2 179 180
2 180 181
2 181 182
2 182 183
2 183 184
2 184 185
2 185 186
2 186 187
2 187 188
2 188 189
2 189 190
2 190 191
2 191 192
2 192 193
2 193 194
2 194 195
2 195 196
2 196 197
2 197 198
2 198 199
2 199 200
2 200 201
2 201 202
2 202 203
2 203 204
2 204 205
2 205 206
2 206 207
2 207 208
2 208 209
2 209 210
2 210 211
2 12 73
2 73 79
2 79 85
2 85 91
2 91 97
2 97 103
2 103 109
2 109 115
2 115 121
2 121 127
2 127 133
2 133 151
2 24 74
2 74 80
2 80 86
2 86 92
2 92 98
2 98 104
2 104 110
2 110 116
2 116 122
2 122 128
2 128 134
2 134 163
2 36 75
2 75 81
2 81 87
2 87 93
2 93 99
2 99 105
2 105 111
2 111 117
2 117 123
2 123 129
2 129 135
2 135 175
2 48 76
2 76 82
2 82 88
2 88 94
2 94 100
2 100 106
2 106 112
2 112 118
2 118 124
2 124 130
2 130 136
2 136 187
2 60 77
2 77 83
2 83 89
2 89 95
2 95 101
2 101 107
2 107 113
2 113 119
2 119 125
2 125 131
2 131 137
2 137 199
2 72 78
2 78 84
2 84 90
2 90 96
2 96 102
2 102 108
2 108 114
2 114 120
2 120 126
2 126 132
2 132 138
2 138 211

CELL_TYPES 216
3
3
3
3
3
3
3
3
3
3
3
3
3
3
3
3
3
3
3
3
3
3
3
3
3
3
3
3
3
3
3
3
3
3
3
3
3
3
3
3
3
3
3
3
3
3
3
3
3
3
3
3
3
3
3
3
3
3
3
3
3
3
3
3
3
3
3
3
3
3
3
3
3
3
3
3
3
3
3
3
3
3
3
3
3
3
3
3
3
3
3
3
3
3
3
3
3
3
3
3
3
3
3
3
3
3
3
3
3
3
3
3
3
3
3
3
3
3
3
3
3
3
3
3
3
3
3
3
3
3
3
3
3
3
3
3
3
3
3
3
3
3
3
3
3
3
3
3
3
3
3
3
3
3
3
3
3
3
3
3
3
3
3
3
3
3
3
3
3
3
3
3
3
3
3
3
3
3
3
3
3
3
3
3
3
3
3
3
3
3
3
3
3
3
3
3
3
3
3
3
3
3
3
3
3
3
3
3
3
3
3
3
3
3
3
3
POINT_DATA 212
FIELD FieldData 3
ADJOINT_DISPLACEMENT 3 212  float
0.0000000e+00 0.0000000e+00 0.0000000e+00 
8.2654683e-03 0.0000000e+00 -1.1769871e-17 
1.6184470e-02 0.0000000e+00 -2.3539742e-17 
2.3410540e-02 0.0000000e+00 -3.5309614e-17 
2.9597208e-02 0.0000000e+00 -4.7079484e-17 
3.4398012e-02 0.0000000e+00 -5.8849354e-17 
3.7466481e-02 0.0000000e+00 -7.0619228e-17 
3.8456153e-02 0.0000000e+00 -8.2389095e-17 
3.7020557e-02 0.0000000e+00 -9.4158968e-17 
3.2813229e-02 0.0000000e+00 -1.0592884e-16 
2.5487702e-02 0.0000000e+00 -1.1769871e-16 
1.4697511e-02 0.0000000e+00 -1.2946858e-16 
9.6186544e-05 0.0000000e+00 -1.4123846e-16 
-1.4177158e-02 0.0000000e+00 -1.4747278e-16 
-2.4104035e-02 0.0000000e+00 -1.5223523e-16 
-3.0211842e-02 0.0000000e+00 -1.5857741e-16 
-3.3027984e-02 0.0000000e+00 -1.5953285e-16 
-3.3079859e-02 0.0000000e+00 -1.6053213e-16 
-3.0894870e-02 0.0000000e+00 -1.6196841e-16 
-2.7000418e-02 0.0000000e+00 -1.6282659e-16 
-2.1923902e-02 0.0000000e+00 -1.6359883e-16 
-1.6192725e-02 0.0000000e+00 -1.6450232e-16 
-1.0334288e-02 0.0000000e+00 -1.6534425e-16 
-4.8759901e-03 0.0000000e+00 -1.6619915e-16 
-3.4523444e-04 0.0000000e+00 -1.6704545e-16 
3.0009472e-03 0.0000000e+00 -1.6732462e-16 
5.3384639e-03 0.0000000e+00 -1.6757267e-16 
6.7893276e-03 0.0000000e+00 -1.6768224e-16 
7.4755512e-03 0.0000000e+00 -1.6791590e-16 
7.5191455e-03 0.0000000e+00 -1.6808157e-16 
7.0421239e-03 0.0000000e+00 -1.6832268e-16 
6.1664972e-03 0.0000000e+00 -1.6855259e-16 
5.0142789e-03 0.0000000e+00 -1.6878125e-16 
3.7074799e-03 0.0000000e+00 -1.6900667e-16 
2.3681128e-03 0.0000000e+00 -1.6923692e-16 
1.1181899e-03 0.0000000e+00 -1.6946781e-16 
7.9722879e-05 0.0000000e+00 -1.6969572e-16 
-6.8743958e-04 0.0000000e+00 -1.6980716e-16 
-1.2234258e-03 0.0000000e+00 -1.6985966e-16 
-1.5561887e-03 0.0000000e+00 -1.6998682e-16 
-1.7136813e-03 0.0000000e+00 -1.7006144e-16 
-1.7238562e-03 0.0000000e+00 -1.7012535e-16 
-1.6146665e-03 0.0000000e+00 -1.7019327e-16 
-1.4140652e-03 0.0000000e+00 -1.7026459e-16 
-1.1500053e-03 0.0000000e+00 -1.7033862e-16 
-8.5043925e-04 0.0000000e+00 -1.7040919e-16 
-5.4332038e-04 0.0000000e+00 -1.7047953e-16 
-2.5660143e-04 0.0000000e+00 -1.7054926e-16 
-1.8235345e-05 0.0000000e+00 -1.7061908e-16 
1.5807831e-04 0.0000000e+00 -1.7063366e-16 
2.8150808e-04 0.0000000e+00 -1.7064732e-16 
3.5840317e-04 0.0000000e+00 -1.7063209e-16 
3.9511273e-04 0.0000000e+00 -1.7065198e-16 
3.9798603e-04 0.0000000e+00 -1.7066926e-16 
3.7337228e-04 0.0000000e+00 -1.7068454e-16 
3.2762066e-04 0.0000000e+00 -1.7069810e-16 
2.6708035e-04 0.0000000e+00 -1.7071185e-16 
1.9810062e-04 0.0000000e+00 -1.7072596e-16 
1.2703064e-04 0.0000000e+00 -1.7074014e-16 
6.0219609e-05 0.0000000e+00 -1.7075430e-16 
4.0167520e-06 0.0000000e+00 -1.7076862e-16 
-3.8520633e-05 0.0000000e+00 -1.7077726e-16 
-6.9372465e-05 0.0000000e+00 -1.7079026e-16 
-8.9745350e-05 0.0000000e+00 -1.7079637e-16 
-1.0084592e-04 0.0000000e+00 -1.7079742e-16 
-1.0388080e-04 0.0000000e+00 -1.7079866e-16 
-1.0005660e-04 0.0000000e+00 -1.7080005e-16 
-9.0579939e-05 0.0000000e+00 -1.7080161e-16 
-7.6657438e-05 0.0000000e+00 -1.7080321e-16 
-5.9495720e-05 0.0000000e+00 -1.7080488e-16 
-4.0301402e-05 0.0000000e+00 -1.7080651e-16 
-2.0281106e-05 0.0000000e+00 -1.7080812e-16 
-6.4145098e-07 0.0000000e+00 -1.7080975e-16 
8.0155456e-05 0.0000000e+00 5.1307697e-02 
-2.8769535e-04 0.0000000e+00 -7.1338387e-03 
6.6435736e-05 0.0000000e+00 1.6354584e-03 
-1.5196120e-05 0.0000000e+00 -3.7559870e-04 
3.3472934e-06 0.0000000e+00 8.9434347e-05 
-5.3454249e-07 0.0000000e+00 -3.4919736e-05 
6.4124361e-05 0.0000000e+00 1.3874127e-01 
-2.3015629e-04 0.0000000e+00 -1.2970616e-02 
5.3148589e-05 0.0000000e+00 2.9735607e-03 
-1.2156896e-05 0.0000000e+00 -6.8290671e-04 
2.6778348e-06 0.0000000e+00 1.6260790e-04 
-4.2763401e-07 0.0000000e+00 -6.3490428e-05 
4.8093272e-05 0.0000000e+00 2.6230070e-01 
-1.7261722e-04 0.0000000e+00 -1.7510332e-02 
3.9861439e-05 0.0000000e+00 4.0143072e-03 
-9.1176726e-06 0.0000000e+00 -9.2192407e-04 
2.0083762e-06 0.0000000e+00 2.1952066e-04 
-3.2072549e-07 0.0000000e+00 -8.5712076e-05 
3.2062180e-05 0.0000000e+00 4.2198601e-01 
-1.1507815e-04 0.0000000e+00 -2.0752985e-02 
2.6574295e-05 0.0000000e+00 4.7576972e-03 
-6.0784482e-06 0.0000000e+00 -1.0926507e-03 
1.3389174e-06 0.0000000e+00 2.6017264e-04 
-2.1381699e-07 0.0000000e+00 -1.0158468e-04 
1.6031092e-05 0.0000000e+00 6.1779720e-01 
-5.7539073e-05 0.0000000e+00 -2.2698577e-02 
1.3287147e-05 0.0000000e+00 5.2037314e-03 
-3.0392241e-06 0.0000000e+00 -1.1950867e-03 
6.6945870e-07 0.0000000e+00 2.8456384e-04 
-1.0690848e-07 0.0000000e+00 -1.1110825e-04 
5.2156166e-14 0.0000000e+00 8.4973425e-01 
3.4108563e-14 0.0000000e+00 -2.3347110e-02 
2.9742796e-14 0.0000000e+00 5.3524096e-03 
2.8491430e-14 0.0000000e+00 -1.2292321e-03 
2.8087487e-14 0.0000000e+00 2.9269423e-04 
2.7929263e-14 0.0000000e+00 -1.1428277e-04 
-1.6031090e-05 0.0000000e+00 6.1779720e-01 
5.7539073e-05 0.0000000e+00 -2.2698577e-02 
-1.3287147e-05 0.0000000e+00 5.2037314e-03 
3.0392241e-06 0.0000000e+00 -1.1950867e-03 
-6.6945864e-07 0.0000000e+00 2.8456384e-04 
1.0690854e-07 0.0000000e+00 -1.1110825e-04 
-3.2062180e-05 0.0000000e+00 4.2198601e-01 
1.1507815e-04 0.0000000e+00 -2.0752985e-02 
-2.6574295e-05 0.0000000e+00 4.7576972e-03 
6.0784482e-06 0.0000000e+00 -1.0926507e-03 
-1.3389174e-06 0.0000000e+00 2.6017264e-04 
2.1381705e-07 0.0000000e+00 -1.0158468e-04 
-4.8093272e-05 0.0000000e+00 2.6230070e-01 
1.7261722e-04 0.0000000e+00 -1.7510332e-02 
-3.9861439e-05 0.0000000e+00 4.0143072e-03 
9.1176726e-06 0.0000000e+00 -9.2192407e-04 
-2.0083760e-06 0.0000000e+00 2.1952066e-04 
3.2072555e-07 0.0000000e+00 -8.5712076e-05 
-6.4124361e-05 0.0000000e+00 1.3874127e-01 
2.3015629e-04 0.0000000e+00 -1.2970616e-02 
-5.3148589e-05 0.0000000e+00 2.9735607e-03 
1.2156896e-05 0.0000000e+00 -6.8290671e-04 
-2.6778348e-06 0.0000000e+00 1.6260790e-04 
4.2763406e-07 0.0000000e+00 -6.3490428e-05 
-8.0155456e-05 0.0000000e+00 5.1307697e-02 
2.8769535e-04 0.0000000e+00 -7.1338387e-03 
-6.6435736e-05 0.0000000e+00 1.6354584e-03 
1.5196120e-05 0.0000000e+00 -3.7559870e-04 
-3.3472934e-06 0.0000000e+00 8.9434347e-05 
5.3454255e-07 0.0000000e+00 -3.4919736e-05 
0.0000000e+00 0.0000000e+00 0.0000000e+00 
-8.2654683e-03 0.0000000e+00 3.3014815e-18 
-1.6184470e-02 0.0000000e+00 6.6027442e-18 
-2.3410540e-02 0.0000000e+00 9.9044646e-18 
-2.9597208e-02 0.0000000e+00 1.3206142e-17 
-3.4398012e-02 0.0000000e+00 1.6507666e-17 
-3.7466481e-02 0.0000000e+00 1.9809837e-17 
-3.8456153e-02 0.0000000e+00 2.3109234e-17 
-3.7020557e-02 0.0000000e+00 2.6406570e-17 
-3.2813229e-02 0.0000000e+00 2.9712195e-17 
-2.5487702e-02 0.0000000e+00 3.3023244e-17 
-1.4697511e-02 0.0000000e+00 3.6326953e-17 
-9.6186544e-05 0.0000000e+00 3.9632566e-17 
1.4177158e-02 0.0000000e+00 4.0463416e-17 
2.4104035e-02 0.0000000e+00 4.1291999e-17 
3.0211842e-02 0.0000000e+00 4.2119540e-17 
3.3027984e-02 0.0000000e+00 4.2947843e-17 
3.3079859e-02 0.0000000e+00 4.3784116e-17 
3.0894870e-02 0.0000000e+00 4.4618890e-17 
2.7000418e-02 0.0000000e+00 4.5455087e-17 
2.1923902e-02 0.0000000e+00 4.6284646e-17 
1.6192725e-02 0.0000000e+00 4.7115460e-17 
1.0334288e-02 0.0000000e+00 4.7943216e-17 
4.8759901e-03 0.0000000e+00 4.8773199e-17 
3.4523444e-04 0.0000000e+00 4.9602746e-17 
-3.0009472e-03 0.0000000e+00 4.9717046e-17 
-5.3384639e-03 0.0000000e+00 4.9828950e-17 
-6.7893276e-03 0.0000000e+00 4.9941592e-17 
-7.4755512e-03 0.0000000e+00 5.0052616e-17 
-7.5191455e-03 0.0000000e+00 5.0164666e-17 
-7.0421239e-03 0.0000000e+00 5.0277695e-17 
-6.1664972e-03 0.0000000e+00 5.0390397e-17 
-5.0142789e-03 0.0000000e+00 5.0503165e-17 
-3.7074799e-03 0.0000000e+00 5.0615943e-17 
-2.3681128e-03 0.0000000e+00 5.0728773e-17 
-1.1181899e-03 0.0000000e+00 5.0841611e-17 
-7.9722879e-05 0.0000000e+00 5.0954442e-17 
6.8743958e-04 0.0000000e+00 5.0991132e-17 
1.2234258e-03 0.0000000e+00 5.1027329e-17 
1.5561887e-03 0.0000000e+00 5.1063907e-17 
1.7136813e-03 0.0000000e+00 5.1099453e-17 
1.7238562e-03 0.0000000e+00 5.1135462e-17 
1.6146665e-03 0.0000000e+00 5.1171451e-17 
1.4140652e-03 0.0000000e+00 5.1207211e-17 
1.1500053e-03 0.0000000e+00 5.1242840e-17 
8.5043925e-04 0.0000000e+00 5.1278468e-17 
5.4332038e-04 0.0000000e+00 5.1314133e-17 
2.5660143e-04 0.0000000e+00 5.1349797e-17 
1.8235345e-05 0.0000000e+00 5.1385462e-17 
-1.5807831e-04 0.0000000e+00 5.1395114e-17 
-2.8150808e-04 0.0000000e+00 5.1404795e-17 
-3.5840317e-04 0.0000000e+00 5.1414361e-17 
-3.9511273e-04 0.0000000e+00 5.1424039e-17 
-3.9798603e-04 0.0000000e+00 5.1433710e-17 
-3.7337228e-04 0.0000000e+00 5.1443434e-17 
-3.2762066e-04 0.0000000e+00 5.1453218e-17 
-2.6708035e-04 0.0000000e+00 5.1463012e-17 
-1.9810062e-04 0.0000000e+00 5.1472809e-17 
-1.2703064e-04 0.0000000e+00 5.1482596e-17 
-6.0219609e-05 0.0000000e+00 5.1492387e-17 
-4.0167520e-06 0.0000000e+00 5.1502174e-17 
3.8520633e-05 0.0000000e+00 5.1503504e-17 
6.9372465e-05 0.0000000e+00 5.1504824e-17 
8.9745350e-05 0.0000000e+00 5.1506164e-17 
1.0084592e-04 0.0000000e+00 5.1507458e-17 
1.0388080e-04 0.0000000e+00 5.1508732e-17 
1.0005660e-04 0.0000000e+00 5.1510003e-17 
9.0579939e-05 0.0000000e+00 5.1511270e-17 
7.6657438e-05 0.0000000e+00 5.1512547e-17 
5.9495720e-05 0.0000000e+00 5.1513824e-17 
4.0301402e-05 0.0000000e+00 5.1515098e-17 
2.0281106e-05 0.0000000e+00 5.1516372e-17 
6.4145104e-07 0.0000000e+00 5.1517649e-17 
ADJOINT_ROTATION 3 212  float
0.0000000e+00 3.3292852e-02 0.0000000e+00 
0.0000000e+00 3.2599919e-02 0.0000000e+00 
0.0000000e+00 3.0521119e-02 0.0000000e+00 
0.0000000e+00 2.7056454e-02 0.0000000e+00 
0.0000000e+00 2.2205921e-02 0.0000000e+00 
0.0000000e+00 1.5969524e-02 0.0000000e+00 
0.0000000e+00 8.3472598e-03 0.0000000e+00 
0.0000000e+00 -6.6087092e-04 0.0000000e+00 
0.0000000e+00 -1.1054868e-02 0.0000000e+00 
0.0000000e+00 -2.2834731e-02 0.0000000e+00 
0.0000000e+00 -3.6000460e-02 0.0000000e+00 
0.0000000e+00 -5.0552055e-02 0.0000000e+00 
0.0000000e+00 -6.6489518e-02 0.0000000e+00 
0.0000000e+00 -4.8048839e-02 0.0000000e+00 
0.0000000e+00 -3.1717766e-02 0.0000000e+00 
0.0000000e+00 -1.7496299e-02 0.0000000e+00 
0.0000000e+00 -5.3844335e-03 0.0000000e+00 
0.0000000e+00 4.6178270e-03 0.0000000e+00 
0.0000000e+00 1.2510484e-02 0.0000000e+00 
0.0000000e+00 1.8293537e-02 0.0000000e+00 
0.0000000e+00 2.1966984e-02 0.0000000e+00 
0.0000000e+00 2.3530830e-02 0.0000000e+00 
0.0000000e+00 2.2985071e-02 0.0000000e+00 
0.0000000e+00 2.0329706e-02 0.0000000e+00 
0.0000000e+00 1.5564739e-02 0.0000000e+00 
0.0000000e+00 1.1286056e-02 0.0000000e+00 
0.0000000e+00 7.4954201e-03 0.0000000e+00 
0.0000000e+00 4.1928329e-03 0.0000000e+00 
0.0000000e+00 1.3782942e-03 0.0000000e+00 
0.0000000e+00 -9.4819604e-04 0.0000000e+00 
0.0000000e+00 -2.7866380e-03 0.0000000e+00 
0.0000000e+00 -4.1370313e-03 0.0000000e+00 
0.0000000e+00 -4.9993764e-03 0.0000000e+00 
0.0000000e+00 -5.3736730e-03 0.0000000e+00 
0.0000000e+00 -5.2599213e-03 0.0000000e+00 
0.0000000e+00 -4.6581211e-03 0.0000000e+00 
0.0000000e+00 -3.5682728e-03 0.0000000e+00 
0.0000000e+00 -2.5876621e-03 0.0000000e+00 
0.0000000e+00 -1.7188630e-03 0.0000000e+00 
0.0000000e+00 -9.6187554e-04 0.0000000e+00 
0.0000000e+00 -3.1669968e-04 0.0000000e+00 
0.0000000e+00 2.1666453e-04 0.0000000e+00 
0.0000000e+00 6.3821708e-04 0.0000000e+00 
0.0000000e+00 9.4795803e-04 0.0000000e+00 
0.0000000e+00 1.1458873e-03 0.0000000e+00 
0.0000000e+00 1.2320050e-03 0.0000000e+00 
0.0000000e+00 1.2063109e-03 0.0000000e+00 
0.0000000e+00 1.0688053e-03 0.0000000e+00 
0.0000000e+00 8.1948808e-04 0.0000000e+00 
0.0000000e+00 5.9525407e-04 0.0000000e+00 
0.0000000e+00 3.9641687e-04 0.0000000e+00 
0.0000000e+00 2.2297651e-04 0.0000000e+00 
0.0000000e+00 7.4932985e-05 0.0000000e+00 
0.0000000e+00 -4.7713718e-05 0.0000000e+00 
0.0000000e+00 -1.4496359e-04 0.0000000e+00 
0.0000000e+00 -2.1681664e-04 0.0000000e+00 
0.0000000e+00 -2.6327287e-04 0.0000000e+00 
0.0000000e+00 -2.8433226e-04 0.0000000e+00 
0.0000000e+00 -2.7999483e-04 0.0000000e+00 
0.0000000e+00 -2.5026058e-04 0.0000000e+00 
0.0000000e+00 -1.9512948e-04 0.0000000e+00 
0.0000000e+00 -1.4597402e-04 0.0000000e+00 
0.0000000e+00 -1.0164503e-04 0.0000000e+00 
0.0000000e+00 -6.2142513e-05 0.0000000e+00 
0.0000000e+00 -2.7466484e-05 0.0000000e+00 
0.0000000e+00 2.3830687e-06 0.0000000e+00 
0.0000000e+00 2.7406140e-05 0.0000000e+00 
0.0000000e+00 4.7602734e-05 0.0000000e+00 
0.0000000e+00 6.2972846e-05 0.0000000e+00 
0.0000000e+00 7.3516487e-05 0.0000000e+00 
0.0000000e+00 7.9233636e-05 0.0000000e+00 
0.0000000e+00 8.0124315e-05 0.0000000e+00 
0.0000000e+00 7.6188509e-05 0.0000000e+00 
0.0000000e+00 -1.3874127e-01 0.0000000e+00 
0.0000000e+00 1.2970616e-02 0.0000000e+00 
0.0000000e+00 -2.9735607e-03 0.0000000e+00 
0.0000000e+00 6.8290671e-04 0.0000000e+00 
0.0000000e+00 -1.6260790e-04 0.0000000e+00 
0.0000000e+00 6.3490428e-05 0.0000000e+00 
0.0000000e+00 -2.1099301e-01 0.0000000e+00 
0.0000000e+00 1.0376493e-02 0.0000000e+00 
0.0000000e+00 -2.3788486e-03 0.0000000e+00 
0.0000000e+00 5.4632535e-04 0.0000000e+00 
0.0000000e+00 -1.3008632e-04 0.0000000e+00 
0.0000000e+00 5.0792340e-05 0.0000000e+00 
0.0000000e+00 -2.8324476e-01 0.0000000e+00 
0.0000000e+00 7.7823694e-03 0.0000000e+00 
0.0000000e+00 -1.7841364e-03 0.0000000e+00 
0.0000000e+00 4.0974404e-04 0.0000000e+00 
0.0000000e+00 -9.7564742e-05 0.0000000e+00 
0.0000000e+00 3.8094255e-05 0.0000000e+00 
0.0000000e+00 -3.5549650e-01 0.0000000e+00 
0.0000000e+00 5.1882463e-03 0.0000000e+00 
0.0000000e+00 -1.1894243e-03 0.0000000e+00 
0.0000000e+00 2.7316267e-04 0.0000000e+00 
0.0000000e+00 -6.5043161e-05 0.0000000e+00 
0.0000000e+00 2.5396170e-05 0.0000000e+00 
0.0000000e+00 -4.2774826e-01 0.0000000e+00 
0.0000000e+00 2.5941231e-03 0.0000000e+00 
0.0000000e+00 -5.9471215e-04 0.0000000e+00 
0.0000000e+00 1.3658134e-04 0.0000000e+00 
0.0000000e+00 -3.2521581e-05 0.0000000e+00 
0.0000000e+00 1.2698085e-05 0.0000000e+00 
0.0000000e+00 -5.0000000e-01 0.0000000e+00 
0.0000000e+00 9.9044039e-16 0.0000000e+00 
0.0000000e+00 2.1531311e-16 0.0000000e+00 
0.0000000e+00 2.9605555e-17 0.0000000e+00 
0.0000000e+00 -2.1026671e-17 0.0000000e+00 
0.0000000e+00 -3.4448483e-17 0.0000000e+00 
0.0000000e+00 4.2774826e-01 0.0000000e+00 
0.0000000e+00 -2.5941231e-03 0.0000000e+00 
0.0000000e+00 5.9471215e-04 0.0000000e+00 
0.0000000e+00 -1.3658134e-04 0.0000000e+00 
0.0000000e+00 3.2521581e-05 0.0000000e+00 
0.0000000e+00 -1.2698085e-05 0.0000000e+00 
0.0000000e+00 3.5549650e-01 0.0000000e+00 
0.0000000e+00 -5.1882463e-03 0.0000000e+00 
0.0000000e+00 1.1894243e-03 0.0000000e+00 
0.0000000e+00 -2.7316267e-04 0.0000000e+00 
0.0000000e+00 6.5043161e-05 0.0000000e+00 
0.0000000e+00 -2.5396170e-05 0.0000000e+00 
0.0000000e+00 2.8324476e-01 0.0000000e+00 
0.0000000e+00 -7.7823694e-03 0.0000000e+00 
0.0000000e+00 1.7841364e-03 0.0000000e+00 
0.0000000e+00 -4.0974404e-04 0.0000000e+00 
0.0000000e+00 9.7564742e-05 0.0000000e+00 
0.0000000e+00 -3.8094255e-05 0.0000000e+00 
0.0000000e+00 2.1099301e-01 0.0000000e+00 
0.0000000e+00 -1.0376493e-02 0.0000000e+00 
0.0000000e+00 2.3788486e-03 0.0000000e+00 
0.0000000e+00 -5.4632535e-04 0.0000000e+00 
0.0000000e+00 1.3008632e-04 0.0000000e+00 
0.0000000e+00 -5.0792340e-05 0.0000000e+00 
0.0000000e+00 1.3874127e-01 0.0000000e+00 
0.0000000e+00 -1.2970616e-02 0.0000000e+00 
0.0000000e+00 2.9735607e-03 0.0000000e+00 
0.0000000e+00 -6.8290671e-04 0.0000000e+00 
0.0000000e+00 1.6260790e-04 0.0000000e+00 
0.0000000e+00 -6.3490428e-05 0.0000000e+00 
0.0000000e+00 -3.3292852e-02 0.0000000e+00 
0.0000000e+00 -3.2599919e-02 0.0000000e+00 
0.0000000e+00 -3.0521119e-02 0.0000000e+00 
0.0000000e+00 -2.7056454e-02 0.0000000e+00 
0.0000000e+00 -2.2205921e-02 0.0000000e+00 
0.0000000e+00 -1.5969524e-02 0.0000000e+00 
0.0000000e+00 -8.3472598e-03 0.0000000e+00 
0.0000000e+00 6.6087092e-04 0.0000000e+00 
0.0000000e+00 1.1054868e-02 0.0000000e+00 
0.0000000e+00 2.2834731e-02 0.0000000e+00 
0.0000000e+00 3.6000460e-02 0.0000000e+00 
0.0000000e+00 5.0552055e-02 0.0000000e+00 
0.0000000e+00 6.6489518e-02 0.0000000e+00 
0.0000000e+00 4.8048839e-02 0.0000000e+00 
0.0000000e+00 3.1717766e-02 0.0000000e+00 
0.0000000e+00 1.7496299e-02 0.0000000e+00 
0.0000000e+00 5.3844335e-03 0.0000000e+00 
0.0000000e+00 -4.6178270e-03 0.0000000e+00 
0.0000000e+00 -1.2510484e-02 0.0000000e+00 
0.0000000e+00 -1.8293537e-02 0.0000000e+00 
0.0000000e+00 -2.1966984e-02 0.0000000e+00 
0.0000000e+00 -2.3530830e-02 0.0000000e+00 
0.0000000e+00 -2.2985071e-02 0.0000000e+00 
0.0000000e+00 -2.0329706e-02 0.0000000e+00 
0.0000000e+00 -1.5564739e-02 0.0000000e+00 
0.0000000e+00 -1.1286056e-02 0.0000000e+00 
0.0000000e+00 -7.4954201e-03 0.0000000e+00 
0.0000000e+00 -4.1928329e-03 0.0000000e+00 
0.0000000e+00 -1.3782942e-03 0.0000000e+00 
0.0000000e+00 9.4819604e-04 0.0000000e+00 
0.0000000e+00 2.7866380e-03 0.0000000e+00 
0.0000000e+00 4.1370313e-03 0.0000000e+00 
0.0000000e+00 4.9993764e-03 0.0000000e+00 
0.0000000e+00 5.3736730e-03 0.0000000e+00 
0.0000000e+00 5.2599213e-03 0.0000000e+00 
0.0000000e+00 4.6581211e-03 0.0000000e+00 
0.0000000e+00 3.5682728e-03 0.0000000e+00 
0.0000000e+00 2.5876621e-03 0.0000000e+00 
0.0000000e+00 1.7188630e-03 0.0000000e+00 
0.0000000e+00 9.6187554e-04 0.0000000e+00 
0.0000000e+00 3.1669968e-04 0.0000000e+00 
0.0000000e+00 -2.1666453e-04 0.0000000e+00 
0.0000000e+00 -6.3821708e-04 0.0000000e+00 
0.0000000e+00 -9.4795803e-04 0.0000000e+00 
0.0000000e+00 -1.1458873e-03 0.0000000e+00 
0.0000000e+00 -1.2320050e-03 0.0000000e+00 
0.0000000e+00 -1.2063109e-03 0.0000000e+00 
0.0000000e+00 -1.0688053e-03 0.0000000e+00 
0.0000000e+00 -8.1948808e-04 0.0000000e+00 
0.0000000e+00 -5.9525407e-04 0.0000000e+00 
0.0000000e+00 -3.9641687e-04 0.0000000e+00 
0.0000000e+00 -2.2297651e-04 0.0000000e+00 
0.0000000e+00 -7.4932985e-05 0.0000000e+00 
0.0000000e+00 4.7713718e-05 0.0000000e+00 
0.0000000e+00 1.4496359e-04 0.0000000e+00 
0.0000000e+00 2.1681664e-04 0.0000000e+00 
0.0000000e+00 2.6327287e-04 0.0000000e+00 
0.0000000e+00 2.8433226e-04 0.0000000e+00 
0.0000000e+00 2.7999483e-04 0.0000000e+00 
0.0000000e+00 2.5026058e-04 0.0000000e+00 
0.0000000e+00 1.9512948e-04 0.0000000e+00 
0.0000000e+00 1.4597402e-04 0.0000000e+00 
0.0000000e+00 1.0164503e-04 0.0000000e+00 
0.0000000e+00 6.2142513e-05 0.0000000e+00 
0.0000000e+00 2.7466484e-05 0.0000000e+00 
0.0000000e+00 -2.3830687e-06 0.0000000e+00 
0.0000000e+00 -2.7406140e-05 0.0000000e+00 