# vtk DataFile Version 4.0
vtk output
ASCII
DATASET UNSTRUCTURED_GRID
POINTS 30 float
0.0000000e+00 0.0000000e+00 0.0000000e+00 
0.0000000e+00 0.0000000e+00 8.0000001e-01 
0.0000000e+00 0.0000000e+00 1.6000000e+00 
0.0000000e+00 0.0000000e+00 2.4000001e+00 
0.0000000e+00 0.0000000e+00 3.2000000e+00 
0.0000000e+00 0.0000000e+00 4.0000000e+00 
0.0000000e+00 0.0000000e+00 4.8000002e+00 
0.0000000e+00 0.0000000e+00 5.5999999e+00 
0.0000000e+00 0.0000000e+00 6.4000001e+00 
0.0000000e+00 0.0000000e+00 7.1999998e+00 
0.0000000e+00 0.0000000e+00 8.0000000e+00 
1.0000000e+01 0.0000000e+00 0.0000000e+00 
1.0000000e+01 0.0000000e+00 8.0000001e-01 
1.0000000e+01 0.0000000e+00 1.6000000e+00 
1.0000000e+01 0.0000000e+00 2.4000001e+00 
1.0000000e+01 0.0000000e+00 3.2000000e+00 
1.0000000e+01 0.0000000e+00 4.0000000e+00 
1.0000000e+01 0.0000000e+00 4.8000002e+00 
1.0000000e+01 0.0000000e+00 5.5999999e+00 
1.0000000e+01 0.0000000e+00 6.4000001e+00 
1.0000000e+01 0.0000000e+00 7.1999998e+00 
1.0000000e+01 0.0000000e+00 8.0000000e+00 
2.0000000e+00 0.0000000e+00 4.0000000e+00 
4.0000000e+00 0.0000000e+00 4.0000000e+00 
6.0000000e+00 0.0000000e+00 4.0000000e+00 
8.0000000e+00 0.0000000e+00 4.0000000e+00 
2.0000000e+00 0.0000000e+00 8.0000000e+00 
4.0000000e+00 0.0000000e+00 8.0000000e+00 
6.0000000e+00 0.0000000e+00 8.0000000e+00 
8.0000000e+00 0.0000000e+00 8.0000000e+00 

CELLS 30 90
2 0 1
2 1 2
2 2 3
2 3 4
2 4 5
2 5 6
2 6 7
2 7 8
2 8 9
2 9 10
2 11 12
2 12 13
2 13 14
2 14 15
2 15 16
2 16 17
2 17 18
2 18 19
2 19 20
2 20 21
2 5 22
2 22 23
2 23 24
2 24 25
2 25 16
2 10 26
2 26 27
2 27 28
2 28 29
2 29 21

CELL_TYPES 30
3
3
3
3
3
3
3
3
3
3
3
3
3
3
3
3
3
3
3
3
3
3
3
3
3
3
3
3
3
3
POINT_DATA 30
FIELD FieldData 7
DISPLACEMENT 3 30  float
0.0000000e+00 0.0000000e+00 0.0000000e+00 
-8.1296032e-03 0.0000000e+00 -7.5817934e-06 
-1.5963165e-02 0.0000000e+00 -1.4980159e-05 
-2.3160098e-02 0.0000000e+00 -2.1240845e-05 
-2.9355682e-02 0.0000000e+00 -2.9247574e-05 
-3.4136057e-02 0.0000000e+00 -3.4133649e-05 
-3.8102690e-02 0.0000000e+00 -3.0902593e-05 
-4.2001944e-02 0.0000000e+00 -2.6899723e-05 
-4.5690577e-02 0.0000000e+00 -2.5740654e-05 
-4.9016565e-02 0.0000000e+00 -2.6752890e-05 
-5.1753558e-02 0.0000000e+00 -2.7765125e-05 
0.0000000e+00 0.0000000e+00 0.0000000e+00 
-8.0039166e-03 0.0000000e+00 1.2381154e-05 
-1.5718488e-02 0.0000000e+00 2.4762308e-05 
-2.2854373e-02 0.0000000e+00 3.7143462e-05 
-2.9115552e-02 0.0000000e+00 4.7833237e-05 
-3.4177955e-02 0.0000000e+00 5.6944635e-05 
-3.8608611e-02 0.0000000e+00 6.0202419e-05 
-4.2878035e-02 0.0000000e+00 6.3865802e-05 
-4.6623871e-02 0.0000000e+00 6.4051252e-05 
-4.9625829e-02 0.0000000e+00 6.4405045e-05 
-5.1772125e-02 0.0000000e+00 6.7723638e-05 
-3.4147080e-02 0.0000000e+00 4.2765494e-03 
-3.4158107e-02 0.0000000e+00 1.2022222e-03 
-3.4169130e-02 0.0000000e+00 -3.8456945e-03 
-3.4173541e-02 0.0000000e+00 -5.6715854e-03 
-5.1767841e-02 0.0000000e+00 3.3853445e-03 
-5.1773332e-02 0.0000000e+00 2.5372666e-03 
-5.1769905e-02 0.0000000e+00 -2.8170121e-04 
-5.1772729e-02 0.0000000e+00 -1.8082150e-03 
ROTATION 3 30  float
0.0000000e+00 -1.0221398e-02 0.0000000e+00 
0.0000000e+00 -1.0043217e-02 0.0000000e+00 
0.0000000e+00 -9.4676008e-03 0.0000000e+00 
0.0000000e+00 -8.4507335e-03 0.0000000e+00 
0.0000000e+00 -6.9514043e-03 0.0000000e+00 
0.0000000e+00 -4.9034972e-03 0.0000000e+00 
0.0000000e+00 -4.9562501e-03 0.0000000e+00 
0.0000000e+00 -4.7685741e-03 0.0000000e+00 
0.0000000e+00 -4.4240267e-03 0.0000000e+00 
0.0000000e+00 -3.8401510e-03 0.0000000e+00 
0.0000000e+00 -2.9515410e-03 0.0000000e+00 
0.0000000e+00 -1.0065176e-02 0.0000000e+00 
0.0000000e+00 -9.8843360e-03 0.0000000e+00 
0.0000000e+00 -9.3418155e-03 0.0000000e+00 
0.0000000e+00 -8.4376149e-03 0.0000000e+00 
0.0000000e+00 -7.1467119e-03 0.0000000e+00 
0.0000000e+00 -5.4389685e-03 0.0000000e+00 
0.0000000e+00 -5.5292863e-03 0.0000000e+00 
0.0000000e+00 -5.0691944e-03 0.0000000e+00 
0.0000000e+00 -4.2511569e-03 0.0000000e+00 
0.0000000e+00 -3.2304022e-03 0.0000000e+00 
0.0000000e+00 -2.1331832e-03 0.0000000e+00 
0.0000000e+00 1.4186272e-04 0.0000000e+00 
0.0000000e+00 2.4815127e-03 0.0000000e+00 
0.0000000e+00 2.1154524e-03 0.0000000e+00 
0.0000000e+00 -6.3261058e-04 0.0000000e+00 
0.0000000e+00 -5.1780412e-04 0.0000000e+00 
0.0000000e+00 1.1752098e-03 0.0000000e+00 
0.0000000e+00 1.3175337e-03 0.0000000e+00 
0.0000000e+00 7.2878072e-05 0.0000000e+00 
REACTION 3 30  float
1.7539668e+04 -0.0000000e+00 1.9902207e+04 
-4.8748916e-10 -0.0000000e+00 -0.0000000e+00 
-6.6938810e-09 -0.0000000e+00 -7.2759576e-12 
7.4142008e-09 -0.0000000e+00 1.4551915e-11 
1.8408173e-08 -0.0000000e+00 1.0913936e-11 
-0.0000000e+00 -0.0000000e+00 3.4669938e-09 
-3.9563020e-09 -0.0000000e+00 1.7462298e-10 
-2.7830538e-09 -0.0000000e+00 -4.1109161e-10 
-1.0844815e-08 -0.0000000e+00 2.1100277e-10 
-1.9790605e-09 -0.0000000e+00 -1.4551915e-11 
1.6181730e-08 -0.0000000e+00 2.5465852e-11 
1.7801445e+04 -0.0000000e+00 -3.2500529e+04 
-1.3969839e-09 -0.0000000e+00 -6.5483619e-11 
-1.8626451e-09 -0.0000000e+00 -9.0949470e-11 
-4.0381565e-10 -0.0000000e+00 1.4551915e-10 
9.5824362e-09 -0.0000000e+00 2.6921043e-10 
7.2504918e-09 -0.0000000e+00 9.7752491e-09 
5.3187250e-09 -0.0000000e+00 -7.2759576e-12 
-1.3391400e-08 -0.0000000e+00 -1.0913936e-11 
5.3787517e-09 -0.0000000e+00 -5.7298166e-10 
-1.2105374e-09 -0.0000000e+00 2.5465852e-11 
-0.0000000e+00 -0.0000000e+00 2.6193447e-10 
-0.0000000e+00 -0.0000000e+00 -4.8639777e-09 
-7.4505806e-09 -0.0000000e+00 8.2945917e-10 
-2.8976501e-09 -0.0000000e+00 -7.8398443e-10 
-7.4505806e-09 -0.0000000e+00 1.3096724e-10 
-7.1140676e-09 -0.0000000e+00 3.6379788e-12 
-4.6675268e-09 -0.0000000e+00 1.8189894e-11 
1.1168595e-08 -0.0000000e+00 -4.1327439e-09 
-3.7548489e-09 -0.0000000e+00 -4.5474735e-11 
REACTION_MOMENT 3 30  float
-0.0000000e+00 -5.8207661e-10 -0.0000000e+00 
-0.0000000e+00 2.3283064e-10 -0.0000000e+00 
-0.0000000e+00 -4.6566129e-09 -0.0000000e+00 
-0.0000000e+00 -1.1641532e-09 -0.0000000e+00 
-0.0000000e+00 -4.2491592e-09 -0.0000000e+00 
-0.0000000e+00 -1.7462298e-09 -0.0000000e+00 
-0.0000000e+00 -4.3655746e-09 -0.0000000e+00 
-0.0000000e+00 9.8953024e-10 -0.0000000e+00 
-0.0000000e+00 -4.2491592e-09 -0.0000000e+00 
-0.0000000e+00 -2.9103830e-10 -0.0000000e+00 
-0.0000000e+00 1.3678800e-09 -0.0000000e+00 
-0.0000000e+00 -1.1641532e-10 -0.0000000e+00 
-0.0000000e+00 -8.1490725e-10 -0.0000000e+00 
-0.0000000e+00 1.1641532e-09 -0.0000000e+00 
-0.0000000e+00 -2.3283064e-10 -0.0000000e+00 
-0.0000000e+00 -5.8207661e-11 -0.0000000e+00 
-0.0000000e+00 -1.6589183e-09 -0.0000000e+00 
-0.0000000e+00 2.9103830e-10 -0.0000000e+00 
-0.0000000e+00 -7.5669959e-09 -0.0000000e+00 
-0.0000000e+00 -1.6298145e-09 -0.0000000e+00 
-0.0000000e+00 -1.3096724e-09 -0.0000000e+00 
-0.0000000e+00 1.3387762e-09 -0.0000000e+00 
-0.0000000e+00 3.7834980e-10 -0.0000000e+00 
-0.0000000e+00 6.8394002e-10 -0.0000000e+00 
-0.0000000e+00 1.5643309e-10 -0.0000000e+00 
-0.0000000e+00 1.3824319e-10 -0.0000000e+00 
-0.0000000e+00 -1.4551915e-11 -0.0000000e+00 
-0.0000000e+00 5.0931703e-11 -0.0000000e+00 
-0.0000000e+00 2.0008883e-11 -0.0000000e+00 
-0.0000000e+00 -1.0913936e-11 -0.0000000e+00 
VOLUME_ACCELERATION 3 30  float
0.0000000e+00 0.0000000e+00 0.0000000e+00 
0.0000000e+00 0.0000000e+00 0.0000000e+00 
0.0000000e+00 0.0000000e+00 0.0000000e+00 
0.0000000e+00 0.0000000e+00 0.0000000e+00 
0.0000000e+00 0.0000000e+00 0.0000000e+00 
0.0000000e+00 0.0000000e+00 0.0000000e+00 
0.0000000e+00 0.0000000e+00 0.0000000e+00 
0.0000000e+00 0.0000000e+00 0.0000000e+00 
0.0000000e+00 0.0000000e+00 0.0000000e+00 
0.0000000e+00 0.0000000e+00 0.0000000e+00 
0.0000000e+00 0.0000000e+00 0.0000000e+00 
0.0000000e+00 0.0000000e+00 0.0000000e+00 
0.0000000e+00 0.0000000e+00 0.0000000e+00 
0.0000000e+00 0.0000000e+00 0.0000000e+00 
0.0000000e+00 0.0000000e+00 0.0000000e+00 
0.0000000e+00 0.0000000e+00 0.0000000e+00 
0.0000000e+00 0.0000000e+00 0.0000000e+00 
0.0000000e+00 0.0000000e+00 0.0000000e+00 
0.0000000e+00 0.0000000e+00 0.0000000e+00 
0.0000000e+00 0.0000000e+00 0.0000000e+00 
0.0000000e+00 0.0000000e+00 0.0000000e+00 
0.0000000e+00 0.0000000e+00 0.0000000e+00 
0.0000000e+00 0.0000000e+00 0.0000000e+00 
0.0000000e+00 0.0000000e+00 0.0000000e+00 
0.0000000e+00 0.0000000e+00 0.0000000e+00 
0.0000000e+00 0.0000000e+00 0.0000000e+00 
0.0000000e+00 0.0000000e+00 0.0000000e+00 
0.0000000e+00 0.0000000e+00 0.0000000e+00 
0.0000000e+00 0.0000000e+00 0.0000000e+00 
0.0000000e+00 0.0000000e+00 0.0000000e+00 
POINT_LOAD 3 30  float
0.0000000e+00 0.0000000e+00 0.0000000e+00 
4.0432561e+03 0.0000000e+00 -4.8149689e+02 
2.6968961e+02 0.0000000e+00 -2.9864104e+03 
3.7872444e+03 0.0000000e+00 4.5833633e+03 
2.7208369e+03 0.0000000e+00 -8.1917188e+03 
0.0000000e+00 0.0000000e+00 0.0000000e+00 
-9.9035586e+03 0.0000000e+00 -2.0260079e+03 
1.6784575e+03 0.0000000e+00 7.4649761e+03 
6.4383706e+03 0.0000000e+00 5.6996724e+03 
0.0000000e+00 0.0000000e+00 0.0000000e+00 
0.0000000e+00 0.0000000e+00 0.0000000e+00 
0.0000000e+00 0.0000000e+00 0.0000000e+00 
0.0000000e+00 0.0000000e+00 0.0000000e+00 
0.0000000e+00 0.0000000e+00 0.0000000e+00 
2.4631418e+03 0.0000000e+00 4.4398721e+03 
5.0353668e+02 0.0000000e+00 4.1432397e+03 
6.6068101e+03 0.0000000e+00 -8.4334308e+02 
-9.8355381e+03 0.0000000e+00 -1.0646907e+03 
-9.1102617e+03 0.0000000e+00 9.1295605e+03 
-6.1699448e+03 0.0000000e+00 -4.4188586e+02 
-6.2580830e+03 0.0000000e+00 -7.7826138e+03 
0.0000000e+00 0.0000000e+00 0.0000000e+00 
0.0000000e+00 0.0000000e+00 0.0000000e+00 
0.0000000e+00 0.0000000e+00 0.0000000e+00 
-6.9419971e+03 0.0000000e+00 -5.0983931e+03 
0.0000000e+00 0.0000000e+00 0.0000000e+00 
-9.2322520e+03 0.0000000e+00 6.3521504e+03 
-9.3658340e+03 0.0000000e+00 6.4048320e+03 
6.5636387e+03 0.0000000e+00 -8.9832754e+03 
-3.5986284e+03 0.0000000e+00 2.2804907e+03 
POINT_MOMENT 3 30  float
0.0000000e+00 0.0000000e+00 0.0000000e+00 
0.0000000e+00 0.0000000e+00 0.0000000e+00 
0.0000000e+00 0.0000000e+00 0.0000000e+00 
0.0000000e+00 0.0000000e+00 0.0000000e+00 
0.0000000e+00 0.0000000e+00 0.0000000e+00 
0.0000000e+00 0.0000000e+00 0.0000000e+00 
0.0000000e+00 0.0000000e+00 0.0000000e+00 
0.0000000e+00 0.0000000e+00 0.0000000e+00 
0.0000000e+00 0.0000000e+00 0.0000000e+00 
0.0000000e+00 0.0000000e+00 0.0000000e+00 
0.0000000e+00 0.0000000e+00 0.0000000e+00 
0.0000000e+00 0.0000000e+00 0.0000000e+00 
0.0000000e+00 0.0000000e+00 0.0000000e+00 
0.0000000e+00 0.0000000e+00 0.0000000e+00 
0.0000000e+00 0.0000000e+00 0.0000000e+00 
0.0000000e+00 0.0000000e+00 0.0000000e+00 
0.0000000e+00 0.0000000e+00 0.0000000e+00 
0.0000000e+00 0.0000000e+00 0.0000000e+00 
0.0000000e+00 0.0000000e+00 0.0000000e+00 
0.0000000e+00 0.0000000e+00 0.0000000e+00 
0.0000000e+00 0.0000000e+00 0.0000000e+00 
0.0000000e+00 0.0000000e+00 0.0000000e+00 
0.0000000e+00 0.0000000e+00 0.0000000e+00 
0.0000000e+00 0.0000000e+00 0.0000000e+00 
0.0000000e+00 0.0000000e+00 0.0000000e+00 
0.0000000e+00 0.0000000e+00 0.0000000e+00 
0.0000000e+00 0.0000000e+00 0.0000000e+00 
0.0000000e+00 0.0000000e+00 0.0000000e+00 
0.0000000e+00 0.0000000e+00 0.0000000e+00 
0.0000000e+00 0.0000000e+00 0.0000000e+00 
CELL_DATA 30
FIELD FieldData 9
YOUNG_MODULUS 1 30  float
2.1000000e+11
2.1000000e+11
2.1000000e+11
2.1000000e+11
2.1000000e+11
2.1000000e+11
2.1000000e+11
2.1000000e+11
2.1000000e+11
2.1000000e+11
2.1000000e+11
2.1000000e+11
2.1000000e+11
2.1000000e+11
2.1000000e+11
2.1000000e+11
2.1000000e+11
2.1000000e+11
2.1000000e+11
2.1000000e+11
2.1000000e+11
2.1000000e+11
2.1000000e+11
2.1000000e+11
2.1000000e+11
2.1000000e+11
2.1000000e+11
2.1000000e+11
2.1000000e+11
2.1000000e+11
DENSITY 1 30  float
7.8500000e+03
7.8500000e+03
7.8500000e+03
7.8500000e+03
7.8500000e+03
7.8500000e+03
7.8500000e+03
7.8500000e+03
7.8500000e+03
7.8500000e+03
7.8500000e+03
7.8500000e+03
7.8500000e+03
7.8500000e+03
7.8500000e+03
7.8500000e+03
7.8500000e+03
7.8500000e+03
7.8500000e+03
7.8500000e+03
7.8500000e+03
7.8500000e+03
7.8500000e+03
7.8500000e+03
7.8500000e+03
7.8500000e+03
7.8500000e+03
7.8500000e+03
7.8500000e+03
7.8500000e+03
CROSS_AREA 1 30  float
9.9999998e-03
9.9999998e-03
9.9999998e-03
9.9999998e-03
9.9999998e-03
9.9999998e-03
9.9999998e-03
9.9999998e-03
9.9999998e-03
9.9999998e-03
9.9999998e-03
9.9999998e-03
9.9999998e-03
9.9999998e-03
9.9999998e-03
9.9999998e-03
9.9999998e-03
9.9999998e-03
9.9999998e-03
9.9999998e-03
9.9999998e-03
9.9999998e-03
9.9999998e-03
9.9999998e-03
9.9999998e-03
9.9999998e-03
9.9999998e-03
9.9999998e-03
9.9999998e-03
9.9999998e-03
I22 1 30  float
1.5000001e-04
1.5000001e-04
1.5000001e-04
1.5000001e-04
1.5000001e-04
1.5000001e-04
1.5000001e-04
1.5000001e-04
1.5000001e-04
1.5000001e-04
1.5000001e-04
1.5000001e-04
1.5000001e-04
1.5000001e-04
1.5000001e-04
1.5000001e-04
1.5000001e-04
1.5000001e-04
1.5000001e-04
1.5000001e-04
1.5000001e-04
1.5000001e-04
1.5000001e-04
1.5000001e-04
1.5000001e-04
1.5000001e-04
1.5000001e-04
1.5000001e-04
1.5000001e-04
1.5000001e-04
I33 1 30  float
1.5000001e-04
1.5000001e-04
1.5000001e-04
1.5000001e-04
1.5000001e-04
1.5000001e-04
1.5000001e-04
1.5000001e-04
1.5000001e-04
1.5000001e-04
1.5000001e-04
1.5000001e-04
1.5000001e-04
1.5000001e-04
1.5000001e-04
1.5000001e-04
1.5000001e-04
1.5000001e-04
1.5000001e-04
1.5000001e-04
1.5000001e-04
1.5000001e-04
1.5000001e-04
1.5000001e-04
1.5000001e-04
1.5000001e-04
1.5000001e-04
1.5000001e-04
1.5000001e-04
1.5000001e-04
TORSIONAL_INERTIA 1 30  float
3.0000001e-04
3.0000001e-04
3.0000001e-04
3.0000001e-04
3.0000001e-04
3.0000001e-04
3.0000001e-04
3.0000001e-04
3.0000001e-04
3.0000001e-04
3.0000001e-04
3.0000001e-04
3.0000001e-04
3.0000001e-04
3.0000001e-04
3.0000001e-04
3.0000001e-04
3.0000001e-04
3.0000001e-04
3.0000001e-04
3.0000001e-04
3.0000001e-04
3.0000001e-04
3.0000001e-04
3.0000001e-04
3.0000001e-04
3.0000001e-04
3.0000001e-04
3.0000001e-04
3.0000001e-04
POISSON_RATIO 1 30  float
3.0000001e-01
3.0000001e-01
3.0000001e-01
3.0000001e-01
3.0000001e-01
3.0000001e-01
3.0000001e-01
3.0000001e-01
3.0000001e-01
3.0000001e-01
3.0000001e-01
3.0000001e-01
3.0000001e-01
3.0000001e-01
3.0000001e-01
3.0000001e-01
3.0000001e-01
3.0000001e-01
3.0000001e-01
3.0000001e-01
3.0000001e-01
3.0000001e-01
3.0000001e-01
3.0000001e-01
3.0000001e-01
3.0000001e-01
3.0000001e-01
3.0000001e-01
3.0000001e-01
3.0000001e-01
MOMENT 3 30  float
0.0000000e+00 7.0158672e+03 0.0000000e+00 
0.0000000e+00 2.2664904e+04 0.0000000e+00 
0.0000000e+00 4.0039121e+04 0.0000000e+00 
0.0000000e+00 5.9036109e+04 0.0000000e+00 
0.0000000e+00 8.0636328e+04 0.0000000e+00 
0.0000000e+00 -2.0771355e+03 0.0000000e+00 
0.0000000e+00 7.3897310e+03 0.0000000e+00 
0.0000000e+00 1.3566557e+04 0.0000000e+00 
0.0000000e+00 2.2990113e+04 0.0000000e+00 
0.0000000e+00 3.4989020e+04 0.0000000e+00 
0.0000000e+00 7.1205781e+03 0.0000000e+00 
0.0000000e+00 2.1361734e+04 0.0000000e+00 
0.0000000e+00 3.5602891e+04 0.0000000e+00 
0.0000000e+00 5.0829305e+04 0.0000000e+00 
0.0000000e+00 6.7242391e+04 0.0000000e+00 
0.0000000e+00 -3.5562668e+03 0.0000000e+00 
0.0000000e+00 1.8116135e+04 0.0000000e+00 
0.0000000e+00 3.2210217e+04 0.0000000e+00 
0.0000000e+00 4.0192215e+04 0.0000000e+00 
0.0000000e+00 4.3203004e+04 0.0000000e+00 
0.0000000e+00 7.9464422e+04 0.0000000e+00 
0.0000000e+00 3.6849484e+04 0.0000000e+00 
0.0000000e+00 -5.7654492e+03 0.0000000e+00 
0.0000000e+00 -4.3281992e+04 0.0000000e+00 
0.0000000e+00 -7.5700141e+04 0.0000000e+00 
0.0000000e+00 3.8331355e+04 0.0000000e+00 
0.0000000e+00 2.6664969e+04 0.0000000e+00 
0.0000000e+00 2.2416003e+03 0.0000000e+00 
0.0000000e+00 -1.9603324e+04 0.0000000e+00 
0.0000000e+00 -3.4745465e+04 0.0000000e+00 
FORCE 3 30  float
-1.9902207e+04 0.0000000e+00 1.7539668e+04 
-1.9420711e+04 0.0000000e+00 2.1582924e+04 
-1.6434301e+04 0.0000000e+00 2.1852613e+04 
-2.1017664e+04 0.0000000e+00 2.5639857e+04 
-1.2825944e+04 0.0000000e+00 2.8360695e+04 
8.4815225e+03 0.0000000e+00 1.6785361e+04 
1.0507531e+04 0.0000000e+00 6.8818037e+03 
3.0425547e+03 0.0000000e+00 8.5602617e+03 
-2.6571179e+03 0.0000000e+00 1.4998632e+04 
-2.6571179e+03 0.0000000e+00 1.4998632e+04 
3.2500529e+04 0.0000000e+00 1.7801445e+04 
3.2500529e+04 0.0000000e+00 1.7801445e+04 
3.2500529e+04 0.0000000e+00 1.7801445e+04 
2.8060656e+04 0.0000000e+00 2.0264588e+04 
2.3917418e+04 0.0000000e+00 2.0768125e+04 
8.5516865e+03 0.0000000e+00 3.2008271e+04 
9.6163770e+03 0.0000000e+00 2.2172732e+04 
4.8681607e+02 0.0000000e+00 1.3062472e+04 
9.2870197e+02 0.0000000e+00 6.8925269e+03 
8.7113154e+03 0.0000000e+00 6.3444342e+02 
-1.1575333e+04 0.0000000e+00 -2.1307467e+04 
-1.1575333e+04 0.0000000e+00 -2.1307467e+04 
-1.1575333e+04 0.0000000e+00 -2.1307467e+04 
-4.6333364e+03 0.0000000e+00 -1.6209074e+04 
-4.6333364e+03 0.0000000e+00 -1.6209074e+04 
-1.4998632e+04 0.0000000e+00 -2.6571179e+03 
-5.7663799e+03 0.0000000e+00 -9.0092686e+03 
3.5994536e+03 0.0000000e+00 -1.5414101e+04 
-2.9641848e+03 0.0000000e+00 -6.4308247e+03 
6.3444342e+02 0.0000000e+00 -8.7113154e+03 
