# vtk DataFile Version 4.0
vtk output
ASCII
DATASET UNSTRUCTURED_GRID
POINTS 30 float
0.0000000e+00 0.0000000e+00 0.0000000e+00 
0.0000000e+00 0.0000000e+00 8.0000001e-01 
0.0000000e+00 0.0000000e+00 1.6000000e+00 
0.0000000e+00 0.0000000e+00 2.4000001e+00 
0.0000000e+00 0.0000000e+00 3.2000000e+00 
0.0000000e+00 0.0000000e+00 4.0000000e+00 
0.0000000e+00 0.0000000e+00 4.8000002e+00 
0.0000000e+00 0.0000000e+00 5.5999999e+00 
0.0000000e+00 0.0000000e+00 6.4000001e+00 
0.0000000e+00 0.0000000e+00 7.1999998e+00 
0.0000000e+00 0.0000000e+00 8.0000000e+00 
1.0000000e+01 0.0000000e+00 0.0000000e+00 
1.0000000e+01 0.0000000e+00 8.0000001e-01 
1.0000000e+01 0.0000000e+00 1.6000000e+00 
1.0000000e+01 0.0000000e+00 2.4000001e+00 
1.0000000e+01 0.0000000e+00 3.2000000e+00 
1.0000000e+01 0.0000000e+00 4.0000000e+00 
1.0000000e+01 0.0000000e+00 4.8000002e+00 
1.0000000e+01 0.0000000e+00 5.5999999e+00 
1.0000000e+01 0.0000000e+00 6.4000001e+00 
1.0000000e+01 0.0000000e+00 7.1999998e+00 
1.0000000e+01 0.0000000e+00 8.0000000e+00 
2.0000000e+00 0.0000000e+00 4.0000000e+00 
4.0000000e+00 0.0000000e+00 4.0000000e+00 
6.0000000e+00 0.0000000e+00 4.0000000e+00 
8.0000000e+00 0.0000000e+00 4.0000000e+00 
2.0000000e+00 0.0000000e+00 8.0000000e+00 
4.0000000e+00 0.0000000e+00 8.0000000e+00 
6.0000000e+00 0.0000000e+00 8.0000000e+00 
8.0000000e+00 0.0000000e+00 8.0000000e+00 

CELLS 30 90
2 0 1
2 1 2
2 2 3
2 3 4
2 4 5
2 5 6
2 6 7
2 7 8
2 8 9
2 9 10
2 11 12
2 12 13
2 13 14
2 14 15
2 15 16
2 16 17
2 17 18
2 18 19
2 19 20
2 20 21
2 5 22
2 22 23
2 23 24
2 24 25
2 25 16
2 10 26
2 26 27
2 27 28
2 28 29
2 29 21

CELL_TYPES 30
3
3
3
3
3
3
3
3
3
3
3
3
3
3
3
3
3
3
3
3
3
3
3
3
3
3
3
3
3
3
POINT_DATA 30
FIELD FieldData 7
DISPLACEMENT 3 30  float
0.0000000e+00 0.0000000e+00 0.0000000e+00 
2.7173054e-03 0.0000000e+00 7.7903815e-06 
5.3010699e-03 0.0000000e+00 1.3789429e-05 
7.5951279e-03 0.0000000e+00 1.6555938e-05 
9.4674453e-03 0.0000000e+00 1.7747787e-05 
1.0817109e-02 0.0000000e+00 2.2173152e-05 
1.1910694e-02 0.0000000e+00 2.4929299e-05 
1.3050772e-02 0.0000000e+00 2.7685446e-05 
1.4215666e-02 0.0000000e+00 3.0396053e-05 
1.5289990e-02 0.0000000e+00 3.4594828e-05 
1.6039306e-02 0.0000000e+00 3.8793602e-05 
0.0000000e+00 0.0000000e+00 0.0000000e+00 
2.6844360e-03 0.0000000e+00 6.0563993e-06 
5.1848800e-03 0.0000000e+00 8.5495394e-06 
7.4154153e-03 0.0000000e+00 9.4816169e-06 
9.3215117e-03 0.0000000e+00 7.7929662e-06 
1.0848998e-02 0.0000000e+00 9.8660894e-06 
1.2177946e-02 0.0000000e+00 1.4710843e-05 
1.3405573e-02 0.0000000e+00 1.6988879e-05 
1.4460247e-02 0.0000000e+00 2.0051995e-05 
1.5331810e-02 0.0000000e+00 2.0032187e-05 
1.6069861e-02 0.0000000e+00 2.0012380e-05 
1.0819292e-02 0.0000000e+00 -8.7649171e-04 
1.0823645e-02 0.0000000e+00 6.6474418e-04 
1.0827499e-02 0.0000000e+00 2.1158704e-03 
1.0837225e-02 0.0000000e+00 2.1772347e-03 
1.6054537e-02 0.0000000e+00 1.4981467e-04 
1.6061665e-02 0.0000000e+00 1.3438335e-03 
1.6060358e-02 0.0000000e+00 2.0342011e-03 
1.6068272e-02 0.0000000e+00 1.4649158e-03 
ROTATION 3 30  float
0.0000000e+00 3.4229052e-03 0.0000000e+00 
0.0000000e+00 3.3440846e-03 0.0000000e+00 
0.0000000e+00 3.0797687e-03 0.0000000e+00 
0.0000000e+00 2.6286745e-03 0.0000000e+00 
0.0000000e+00 2.0294399e-03 0.0000000e+00 
0.0000000e+00 1.3359953e-03 0.0000000e+00 
0.0000000e+00 1.3970034e-03 0.0000000e+00 
0.0000000e+00 1.4522288e-03 0.0000000e+00 
0.0000000e+00 1.4377276e-03 0.0000000e+00 
0.0000000e+00 1.1939289e-03 0.0000000e+00 
0.0000000e+00 6.2520581e-04 0.0000000e+00 
0.0000000e+00 3.3988096e-03 0.0000000e+00 
0.0000000e+00 3.2690163e-03 0.0000000e+00 
0.0000000e+00 2.9684263e-03 0.0000000e+00 
0.0000000e+00 2.5984494e-03 0.0000000e+00 
0.0000000e+00 2.1501454e-03 0.0000000e+00 
0.0000000e+00 1.6769047e-03 0.0000000e+00 
0.0000000e+00 1.6187418e-03 0.0000000e+00 
0.0000000e+00 1.4352824e-03 0.0000000e+00 
0.0000000e+00 1.1987578e-03 0.0000000e+00 
0.0000000e+00 9.9307997e-04 0.0000000e+00 
0.0000000e+00 8.6497248e-04 0.0000000e+00 
0.0000000e+00 -3.4459619e-04 0.0000000e+00 
0.0000000e+00 -9.2146709e-04 0.0000000e+00 
0.0000000e+00 -4.5807846e-04 0.0000000e+00 
0.0000000e+00 4.8504499e-04 0.0000000e+00 
0.0000000e+00 -5.0296169e-04 0.0000000e+00 
0.0000000e+00 -5.7091896e-04 0.0000000e+00 
0.0000000e+00 -3.9941879e-05 0.0000000e+00 
0.0000000e+00 5.4906309e-04 0.0000000e+00 
REACTION 3 30  float
-7.7589004e+03 -0.0000000e+00 -2.0449750e+04 
8.0035534e-11 -0.0000000e+00 -1.8189894e-12 
1.1696102e-09 -0.0000000e+00 -1.8189894e-12 
-1.5388650e-09 -0.0000000e+00 7.2759576e-12 
-1.8826540e-09 -0.0000000e+00 -1.2732926e-11 
-1.9208528e-09 -0.0000000e+00 -4.4929038e-10 
3.3760443e-09 -0.0000000e+00 -5.8207661e-10 
-2.3683242e-09 -0.0000000e+00 -7.2759576e-12 
3.2723619e-09 -0.0000000e+00 -2.9103830e-11 
-2.9103830e-10 -0.0000000e+00 1.4551915e-11 
8.1490725e-10 -0.0000000e+00 -3.6379788e-12 
-1.2776528e+04 -0.0000000e+00 -1.5898049e+04 
-3.6379788e-12 -0.0000000e+00 2.1827873e-11 
1.9626896e-09 -0.0000000e+00 -2.0918378e-11 
-2.7648639e-10 -0.0000000e+00 5.4569682e-11 
-2.8412614e-09 -0.0000000e+00 -4.0017767e-11 
-3.7598511e-09 -0.0000000e+00 -2.6902853e-09 
7.7307050e-10 -0.0000000e+00 3.6379788e-12 
9.8407327e-10 -0.0000000e+00 -1.2732926e-11 
-4.7839421e-10 -0.0000000e+00 -1.4415491e-09 
-5.8207661e-10 -0.0000000e+00 -0.0000000e+00 
1.6680133e-09 -0.0000000e+00 1.7098500e-10 
9.2950359e-10 -0.0000000e+00 1.2569217e-09 
1.1477823e-09 -0.0000000e+00 1.2732926e-10 
5.9662852e-10 -0.0000000e+00 1.7989805e-09 
2.3646862e-10 -0.0000000e+00 -1.3460522e-10 
3.5724952e-09 -0.0000000e+00 3.0013325e-11 
-4.3073669e-09 -0.0000000e+00 -1.2278178e-11 
-4.1400199e-09 -0.0000000e+00 7.7625373e-10 
4.1136445e-09 -0.0000000e+00 2.0236257e-11 
REACTION_MOMENT 3 30  float
-0.0000000e+00 1.1641532e-10 -0.0000000e+00 
-0.0000000e+00 1.4551915e-10 -0.0000000e+00 
-0.0000000e+00 -0.0000000e+00 -0.0000000e+00 
-0.0000000e+00 -7.8580342e-10 -0.0000000e+00 
-0.0000000e+00 3.2159733e-09 -0.0000000e+00 
-0.0000000e+00 4.4383341e-10 -0.0000000e+00 
-0.0000000e+00 9.1677066e-10 -0.0000000e+00 
-0.0000000e+00 1.1350494e-09 -0.0000000e+00 
-0.0000000e+00 -1.3533281e-09 -0.0000000e+00 
-0.0000000e+00 6.4028427e-10 -0.0000000e+00 
-0.0000000e+00 -8.5128704e-10 -0.0000000e+00 
-0.0000000e+00 -8.7311491e-11 -0.0000000e+00 
-0.0000000e+00 -3.4924597e-10 -0.0000000e+00 
-0.0000000e+00 -8.7311491e-11 -0.0000000e+00 
-0.0000000e+00 5.2386895e-10 -0.0000000e+00 
-0.0000000e+00 -1.1641532e-10 -0.0000000e+00 
-0.0000000e+00 -2.9103830e-11 -0.0000000e+00 
-0.0000000e+00 -2.1827873e-10 -0.0000000e+00 
-0.0000000e+00 1.1641532e-09 -0.0000000e+00 
-0.0000000e+00 7.1304385e-10 -0.0000000e+00 
-0.0000000e+00 1.0913936e-09 -0.0000000e+00 
-0.0000000e+00 9.5315045e-10 -0.0000000e+00 
-0.0000000e+00 2.9103830e-10 -0.0000000e+00 
-0.0000000e+00 6.7302608e-11 -0.0000000e+00 
-0.0000000e+00 -2.6011548e-10 -0.0000000e+00 
-0.0000000e+00 -6.1845640e-11 -0.0000000e+00 
-0.0000000e+00 2.1827873e-11 -0.0000000e+00 
-0.0000000e+00 -1.3642421e-11 -0.0000000e+00 
-0.0000000e+00 -5.4569682e-12 -0.0000000e+00 
-0.0000000e+00 1.8189894e-11 -0.0000000e+00 
VOLUME_ACCELERATION 3 30  float
0.0000000e+00 0.0000000e+00 0.0000000e+00 
0.0000000e+00 0.0000000e+00 0.0000000e+00 
0.0000000e+00 0.0000000e+00 0.0000000e+00 
0.0000000e+00 0.0000000e+00 0.0000000e+00 
0.0000000e+00 0.0000000e+00 0.0000000e+00 
0.0000000e+00 0.0000000e+00 0.0000000e+00 
0.0000000e+00 0.0000000e+00 0.0000000e+00 
0.0000000e+00 0.0000000e+00 0.0000000e+00 
0.0000000e+00 0.0000000e+00 0.0000000e+00 
0.0000000e+00 0.0000000e+00 0.0000000e+00 
0.0000000e+00 0.0000000e+00 0.0000000e+00 
0.0000000e+00 0.0000000e+00 0.0000000e+00 
0.0000000e+00 0.0000000e+00 0.0000000e+00 
0.0000000e+00 0.0000000e+00 0.0000000e+00 
0.0000000e+00 0.0000000e+00 0.0000000e+00 
0.0000000e+00 0.0000000e+00 0.0000000e+00 
0.0000000e+00 0.0000000e+00 0.0000000e+00 
0.0000000e+00 0.0000000e+00 0.0000000e+00 
0.0000000e+00 0.0000000e+00 0.0000000e+00 
0.0000000e+00 0.0000000e+00 0.0000000e+00 
0.0000000e+00 0.0000000e+00 0.0000000e+00 
0.0000000e+00 0.0000000e+00 0.0000000e+00 
0.0000000e+00 0.0000000e+00 0.0000000e+00 
0.0000000e+00 0.0000000e+00 0.0000000e+00 
0.0000000e+00 0.0000000e+00 0.0000000e+00 
0.0000000e+00 0.0000000e+00 0.0000000e+00 
0.0000000e+00 0.0000000e+00 0.0000000e+00 
0.0000000e+00 0.0000000e+00 0.0000000e+00 
0.0000000e+00 0.0000000e+00 0.0000000e+00 
0.0000000e+00 0.0000000e+00 0.0000000e+00 
POINT_LOAD 3 30  float
0.0000000e+00 0.0000000e+00 0.0000000e+00 
-2.7418965e+03 0.0000000e+00 4.7022515e+03 
2.6155969e+03 0.0000000e+00 8.4854102e+03 
1.1878495e+03 0.0000000e+00 4.1334863e+03 
4.1208838e+03 0.0000000e+00 -8.4879795e+03 
0.0000000e+00 0.0000000e+00 0.0000000e+00 
0.0000000e+00 0.0000000e+00 0.0000000e+00 
-6.2944785e+03 0.0000000e+00 1.1954664e+02 
-9.4132783e+03 0.0000000e+00 -3.9064409e+03 
0.0000000e+00 0.0000000e+00 0.0000000e+00 
0.0000000e+00 0.0000000e+00 0.0000000e+00 
0.0000000e+00 0.0000000e+00 0.0000000e+00 
8.7402803e+03 0.0000000e+00 9.3535557e+03 
1.2421921e+03 0.0000000e+00 4.0977920e+03 
-2.1221973e+03 0.0000000e+00 6.8794077e+03 
7.3777910e+03 0.0000000e+00 -9.8746543e+03 
2.0080116e+03 0.0000000e+00 -7.5315786e+03 
3.4494751e+03 0.0000000e+00 6.7376348e+03 
3.6607732e+03 0.0000000e+00 -2.0608379e+03 
4.5993340e+03 0.0000000e+00 8.0926753e+03 
0.0000000e+00 0.0000000e+00 0.0000000e+00 
-2.1499060e+03 0.0000000e+00 -1.5105001e+03 
-2.2790227e+03 0.0000000e+00 -8.6202129e+03 
5.2478302e+02 0.0000000e+00 9.6197256e+03 
-6.1673535e+03 0.0000000e+00 -7.9146271e+02 
-2.1477751e+03 0.0000000e+00 4.4296914e+03 
8.5068301e+03 0.0000000e+00 5.3452534e+03 
8.8589570e+03 0.0000000e+00 1.9198416e+03 
-9.6829424e+03 0.0000000e+00 6.5994360e+03 
6.6415229e+03 0.0000000e+00 -1.3842428e+03 
POINT_MOMENT 3 30  float
0.0000000e+00 0.0000000e+00 0.0000000e+00 
0.0000000e+00 0.0000000e+00 0.0000000e+00 
0.0000000e+00 0.0000000e+00 0.0000000e+00 
0.0000000e+00 0.0000000e+00 0.0000000e+00 
0.0000000e+00 0.0000000e+00 0.0000000e+00 
0.0000000e+00 0.0000000e+00 0.0000000e+00 
0.0000000e+00 0.0000000e+00 0.0000000e+00 
0.0000000e+00 0.0000000e+00 0.0000000e+00 
0.0000000e+00 0.0000000e+00 0.0000000e+00 
0.0000000e+00 0.0000000e+00 0.0000000e+00 
0.0000000e+00 0.0000000e+00 0.0000000e+00 
0.0000000e+00 0.0000000e+00 0.0000000e+00 
0.0000000e+00 0.0000000e+00 0.0000000e+00 
0.0000000e+00 0.0000000e+00 0.0000000e+00 
0.0000000e+00 0.0000000e+00 0.0000000e+00 
0.0000000e+00 0.0000000e+00 0.0000000e+00 
0.0000000e+00 0.0000000e+00 0.0000000e+00 
0.0000000e+00 0.0000000e+00 0.0000000e+00 
0.0000000e+00 0.0000000e+00 0.0000000e+00 
0.0000000e+00 0.0000000e+00 0.0000000e+00 
0.0000000e+00 0.0000000e+00 0.0000000e+00 
0.0000000e+00 0.0000000e+00 0.0000000e+00 
0.0000000e+00 0.0000000e+00 0.0000000e+00 
0.0000000e+00 0.0000000e+00 0.0000000e+00 
0.0000000e+00 0.0000000e+00 0.0000000e+00 
0.0000000e+00 0.0000000e+00 0.0000000e+00 
0.0000000e+00 0.0000000e+00 0.0000000e+00 
0.0000000e+00 0.0000000e+00 0.0000000e+00 
0.0000000e+00 0.0000000e+00 0.0000000e+00 
0.0000000e+00 0.0000000e+00 0.0000000e+00 
CELL_DATA 30
FIELD FieldData 9
YOUNG_MODULUS 1 30  float
2.1000000e+11
2.1000000e+11
2.1000000e+11
2.1000000e+11
2.1000000e+11
2.1000000e+11
2.1000000e+11
2.1000000e+11
2.1000000e+11
2.1000000e+11
2.1000000e+11
2.1000000e+11
2.1000000e+11
2.1000000e+11
2.1000000e+11
2.1000000e+11
2.1000000e+11
2.1000000e+11
2.1000000e+11
2.1000000e+11
2.1000000e+11
2.1000000e+11
2.1000000e+11
2.1000000e+11
2.1000000e+11
2.1000000e+11
2.1000000e+11
2.1000000e+11
2.1000000e+11
2.1000000e+11
DENSITY 1 30  float
7.8500000e+03
7.8500000e+03
7.8500000e+03
7.8500000e+03
7.8500000e+03
7.8500000e+03
7.8500000e+03
7.8500000e+03
7.8500000e+03
7.8500000e+03
7.8500000e+03
7.8500000e+03
7.8500000e+03
7.8500000e+03
7.8500000e+03
7.8500000e+03
7.8500000e+03
7.8500000e+03
7.8500000e+03
7.8500000e+03
7.8500000e+03
7.8500000e+03
7.8500000e+03
7.8500000e+03
7.8500000e+03
7.8500000e+03
7.8500000e+03
7.8500000e+03
7.8500000e+03
7.8500000e+03
CROSS_AREA 1 30  float
9.9999998e-03
9.9999998e-03
9.9999998e-03
9.9999998e-03
9.9999998e-03
9.9999998e-03
9.9999998e-03
9.9999998e-03
9.9999998e-03
9.9999998e-03
9.9999998e-03
9.9999998e-03
9.9999998e-03
9.9999998e-03
9.9999998e-03
9.9999998e-03
9.9999998e-03
9.9999998e-03
9.9999998e-03
9.9999998e-03
9.9999998e-03
9.9999998e-03
9.9999998e-03
9.9999998e-03
9.9999998e-03
9.9999998e-03
9.9999998e-03
9.9999998e-03
9.9999998e-03
9.9999998e-03
I22 1 30  float
1.5000001e-04
1.5000001e-04
1.5000001e-04
1.5000001e-04
1.5000001e-04
1.5000001e-04
1.5000001e-04
1.5000001e-04
1.5000001e-04
1.5000001e-04
1.5000001e-04
1.5000001e-04
1.5000001e-04
1.5000001e-04
1.5000001e-04
1.5000001e-04
1.5000001e-04
1.5000001e-04
1.5000001e-04
1.5000001e-04
1.5000001e-04
1.5000001e-04
1.5000001e-04
1.5000001e-04
1.5000001e-04
1.5000001e-04
1.5000001e-04
1.5000001e-04
1.5000001e-04
1.5000001e-04
I33 1 30  float
1.5000001e-04
1.5000001e-04
1.5000001e-04
1.5000001e-04
1.5000001e-04
1.5000001e-04
1.5000001e-04
1.5000001e-04
1.5000001e-04
1.5000001e-04
1.5000001e-04
1.5000001e-04
1.5000001e-04
1.5000001e-04
1.5000001e-04
1.5000001e-04
1.5000001e-04
1.5000001e-04
1.5000001e-04
1.5000001e-04
1.5000001e-04
1.5000001e-04
1.5000001e-04
1.5000001e-04
1.5000001e-04
1.5000001e-04
1.5000001e-04
1.5000001e-04
1.5000001e-04
1.5000001e-04
TORSIONAL_INERTIA 1 30  float
3.0000001e-04
3.0000001e-04
3.0000001e-04
3.0000001e-04
3.0000001e-04
3.0000001e-04
3.0000001e-04
3.0000001e-04
3.0000001e-04
3.0000001e-04
3.0000001e-04
3.0000001e-04
3.0000001e-04
3.0000001e-04
3.0000001e-04
3.0000001e-04
3.0000001e-04
3.0000001e-04
3.0000001e-04
3.0000001e-04
3.0000001e-04
3.0000001e-04
3.0000001e-04
3.0000001e-04
3.0000001e-04
3.0000001e-04
3.0000001e-04
3.0000001e-04
3.0000001e-04
3.0000001e-04
POISSON_RATIO 1 30  float
3.0000001e-01
3.0000001e-01
3.0000001e-01
3.0000001e-01
3.0000001e-01
3.0000001e-01
3.0000001e-01
3.0000001e-01
3.0000001e-01
3.0000001e-01
3.0000001e-01
3.0000001e-01
3.0000001e-01
3.0000001e-01
3.0000001e-01
3.0000001e-01
3.0000001e-01
3.0000001e-01
3.0000001e-01
3.0000001e-01
3.0000001e-01
3.0000001e-01
3.0000001e-01
3.0000001e-01
3.0000001e-01
3.0000001e-01
3.0000001e-01
3.0000001e-01
3.0000001e-01
3.0000001e-01
MOMENT 3 30  float
0.0000000e+00 -3.1035601e+03 0.0000000e+00 
0.0000000e+00 -1.0407438e+04 0.0000000e+00 
0.0000000e+00 -1.7761838e+04 0.0000000e+00 
0.0000000e+00 -2.3594857e+04 0.0000000e+00 
0.0000000e+00 -2.7304385e+04 0.0000000e+00 
0.0000000e+00 2.4021926e+03 0.0000000e+00 
0.0000000e+00 2.1744995e+03 0.0000000e+00 
0.0000000e+00 -5.7098480e+02 0.0000000e+00 
0.0000000e+00 -9.5995723e+03 0.0000000e+00 
0.0000000e+00 -2.2393471e+04 0.0000000e+00 
0.0000000e+00 -5.1106113e+03 0.0000000e+00 
0.0000000e+00 -1.1835723e+04 0.0000000e+00 
0.0000000e+00 -1.4567845e+04 0.0000000e+00 
0.0000000e+00 -1.7651969e+04 0.0000000e+00 
0.0000000e+00 -1.8633855e+04 0.0000000e+00 
0.0000000e+00 -2.2901663e+03 0.0000000e+00 
0.0000000e+00 -7.2237119e+03 0.0000000e+00 
0.0000000e+00 -9.3131582e+03 0.0000000e+00 
0.0000000e+00 -8.0985620e+03 0.0000000e+00 
0.0000000e+00 -5.0442324e+03 0.0000000e+00 
0.0000000e+00 -2.6469316e+04 0.0000000e+00 
0.0000000e+00 -9.0857168e+03 0.0000000e+00 
0.0000000e+00 7.2983706e+03 0.0000000e+00 
0.0000000e+00 1.4854194e+04 0.0000000e+00 
0.0000000e+00 1.8771791e+04 0.0000000e+00 
0.0000000e+00 -1.7768639e+04 0.0000000e+00 
0.0000000e+00 -1.0703271e+03 0.0000000e+00 
0.0000000e+00 8.3628887e+03 0.0000000e+00 
0.0000000e+00 9.2768281e+03 0.0000000e+00 
0.0000000e+00 4.9755732e+03 0.0000000e+00 
FORCE 3 30  float
2.0449750e+04 0.0000000e+00 -7.7589004e+03 
1.5747499e+04 0.0000000e+00 -1.0500797e+04 
7.2620884e+03 0.0000000e+00 -7.8851997e+03 
3.1286021e+03 0.0000000e+00 -6.6973501e+03 
1.1616581e+04 0.0000000e+00 -2.5764663e+03 
7.2348877e+03 0.0000000e+00 -2.8461618e+02 
7.2348877e+03 0.0000000e+00 -2.8461618e+02 
7.1153413e+03 0.0000000e+00 -6.5790947e+03 
1.1021782e+04 0.0000000e+00 -1.5992373e+04 
1.1021782e+04 0.0000000e+00 -1.5992373e+04 
1.5898049e+04 0.0000000e+00 -1.2776528e+04 
6.5444932e+03 0.0000000e+00 -4.0362485e+03 
2.4467012e+03 0.0000000e+00 -2.7940564e+03 
-4.4327065e+03 0.0000000e+00 -4.9162539e+03 
5.4419473e+03 0.0000000e+00 2.4615369e+03 
1.2717479e+04 0.0000000e+00 -7.8916699e+03 
5.9798433e+03 0.0000000e+00 -4.4421948e+03 
8.0406812e+03 0.0000000e+00 -7.8142157e+02 
-5.1994267e+01 0.0000000e+00 3.8179124e+03 
-5.1994267e+01 0.0000000e+00 3.8179124e+03 
2.2918501e+03 0.0000000e+00 4.3816934e+03 
4.5708726e+03 0.0000000e+00 1.3001906e+04 
4.0460898e+03 0.0000000e+00 3.3821807e+03 
1.0213443e+04 0.0000000e+00 4.1736436e+03 
1.2361219e+04 0.0000000e+00 -2.5604782e+02 
1.5992373e+04 0.0000000e+00 1.1021782e+04 
7.4855435e+03 0.0000000e+00 5.6765288e+03 
-1.3734131e+03 0.0000000e+00 3.7566873e+03 
8.3095293e+03 0.0000000e+00 -2.8427485e+03 
1.6680062e+03 0.0000000e+00 -1.4585059e+03 
