# vtk DataFile Version 4.0
vtk output
ASCII
DATASET UNSTRUCTURED_GRID
POINTS 212 float
0.0000000e+00 0.0000000e+00 0.0000000e+00 
0.0000000e+00 0.0000000e+00 2.5000000e-01 
0.0000000e+00 0.0000000e+00 5.0000000e-01 
0.0000000e+00 0.0000000e+00 7.5000000e-01 
0.0000000e+00 0.0000000e+00 1.0000000e+00 
0.0000000e+00 0.0000000e+00 1.2500000e+00 
0.0000000e+00 0.0000000e+00 1.5000000e+00 
0.0000000e+00 0.0000000e+00 1.7500000e+00 
0.0000000e+00 0.0000000e+00 2.0000000e+00 
0.0000000e+00 0.0000000e+00 2.2500000e+00 
0.0000000e+00 0.0000000e+00 2.5000000e+00 
0.0000000e+00 0.0000000e+00 2.7500000e+00 
0.0000000e+00 0.0000000e+00 3.0000000e+00 
0.0000000e+00 0.0000000e+00 3.2500000e+00 
0.0000000e+00 0.0000000e+00 3.5000000e+00 
0.0000000e+00 0.0000000e+00 3.7500000e+00 
0.0000000e+00 0.0000000e+00 4.0000000e+00 
0.0000000e+00 0.0000000e+00 4.2500000e+00 
0.0000000e+00 0.0000000e+00 4.5000000e+00 
0.0000000e+00 0.0000000e+00 4.7500000e+00 
0.0000000e+00 0.0000000e+00 5.0000000e+00 
0.0000000e+00 0.0000000e+00 5.2500000e+00 
0.0000000e+00 0.0000000e+00 5.5000000e+00 
0.0000000e+00 0.0000000e+00 5.7500000e+00 
0.0000000e+00 0.0000000e+00 6.0000000e+00 
0.0000000e+00 0.0000000e+00 6.2500000e+00 
0.0000000e+00 0.0000000e+00 6.5000000e+00 
0.0000000e+00 0.0000000e+00 6.7500000e+00 
0.0000000e+00 0.0000000e+00 7.0000000e+00 
0.0000000e+00 0.0000000e+00 7.2500000e+00 
0.0000000e+00 0.0000000e+00 7.5000000e+00 
0.0000000e+00 0.0000000e+00 7.7500000e+00 
0.0000000e+00 0.0000000e+00 8.0000000e+00 
0.0000000e+00 0.0000000e+00 8.2500000e+00 
0.0000000e+00 0.0000000e+00 8.5000000e+00 
0.0000000e+00 0.0000000e+00 8.7500000e+00 
0.0000000e+00 0.0000000e+00 9.0000000e+00 
0.0000000e+00 0.0000000e+00 9.2500000e+00 
0.0000000e+00 0.0000000e+00 9.5000000e+00 
0.0000000e+00 0.0000000e+00 9.7500000e+00 
0.0000000e+00 0.0000000e+00 1.0000000e+01 
0.0000000e+00 0.0000000e+00 1.0250000e+01 
0.0000000e+00 0.0000000e+00 1.0500000e+01 
0.0000000e+00 0.0000000e+00 1.0750000e+01 
0.0000000e+00 0.0000000e+00 1.1000000e+01 
0.0000000e+00 0.0000000e+00 1.1250000e+01 
0.0000000e+00 0.0000000e+00 1.1500000e+01 
0.0000000e+00 0.0000000e+00 1.1750000e+01 
0.0000000e+00 0.0000000e+00 1.2000000e+01 
0.0000000e+00 0.0000000e+00 1.2250000e+01 
0.0000000e+00 0.0000000e+00 1.2500000e+01 
0.0000000e+00 0.0000000e+00 1.2750000e+01 
0.0000000e+00 0.0000000e+00 1.3000000e+01 
0.0000000e+00 0.0000000e+00 1.3250000e+01 
0.0000000e+00 0.0000000e+00 1.3500000e+01 
0.0000000e+00 0.0000000e+00 1.3750000e+01 
0.0000000e+00 0.0000000e+00 1.4000000e+01 
0.0000000e+00 0.0000000e+00 1.4250000e+01 
0.0000000e+00 0.0000000e+00 1.4500000e+01 
0.0000000e+00 0.0000000e+00 1.4750000e+01 
0.0000000e+00 0.0000000e+00 1.5000000e+01 
0.0000000e+00 0.0000000e+00 1.5250000e+01 
0.0000000e+00 0.0000000e+00 1.5500000e+01 
0.0000000e+00 0.0000000e+00 1.5750000e+01 
0.0000000e+00 0.0000000e+00 1.6000000e+01 
0.0000000e+00 0.0000000e+00 1.6250000e+01 
0.0000000e+00 0.0000000e+00 1.6500000e+01 
0.0000000e+00 0.0000000e+00 1.6750000e+01 
0.0000000e+00 0.0000000e+00 1.7000000e+01 
0.0000000e+00 0.0000000e+00 1.7250000e+01 
0.0000000e+00 0.0000000e+00 1.7500000e+01 
0.0000000e+00 0.0000000e+00 1.7750000e+01 
0.0000000e+00 0.0000000e+00 1.8000000e+01 
5.0000000e-01 0.0000000e+00 3.0000000e+00 
5.0000000e-01 0.0000000e+00 6.0000000e+00 
5.0000000e-01 0.0000000e+00 9.0000000e+00 
5.0000000e-01 0.0000000e+00 1.2000000e+01 
5.0000000e-01 0.0000000e+00 1.5000000e+01 
5.0000000e-01 0.0000000e+00 1.8000000e+01 
1.0000000e+00 0.0000000e+00 3.0000000e+00 
1.0000000e+00 0.0000000e+00 6.0000000e+00 
1.0000000e+00 0.0000000e+00 9.0000000e+00 
1.0000000e+00 0.0000000e+00 1.2000000e+01 
1.0000000e+00 0.0000000e+00 1.5000000e+01 
1.0000000e+00 0.0000000e+00 1.8000000e+01 
1.5000000e+00 0.0000000e+00 3.0000000e+00 
1.5000000e+00 0.0000000e+00 6.0000000e+00 
1.5000000e+00 0.0000000e+00 9.0000000e+00 
1.5000000e+00 0.0000000e+00 1.2000000e+01 
1.5000000e+00 0.0000000e+00 1.5000000e+01 
1.5000000e+00 0.0000000e+00 1.8000000e+01 
2.0000000e+00 0.0000000e+00 3.0000000e+00 
2.0000000e+00 0.0000000e+00 6.0000000e+00 
2.0000000e+00 0.0000000e+00 9.0000000e+00 
2.0000000e+00 0.0000000e+00 1.2000000e+01 
2.0000000e+00 0.0000000e+00 1.5000000e+01 
2.0000000e+00 0.0000000e+00 1.8000000e+01 
2.5000000e+00 0.0000000e+00 3.0000000e+00 
2.5000000e+00 0.0000000e+00 6.0000000e+00 
2.5000000e+00 0.0000000e+00 9.0000000e+00 
2.5000000e+00 0.0000000e+00 1.2000000e+01 
2.5000000e+00 0.0000000e+00 1.5000000e+01 
2.5000000e+00 0.0000000e+00 1.8000000e+01 
3.0000000e+00 0.0000000e+00 3.0000000e+00 
3.0000000e+00 0.0000000e+00 6.0000000e+00 
3.0000000e+00 0.0000000e+00 9.0000000e+00 
3.0000000e+00 0.0000000e+00 1.2000000e+01 
3.0000000e+00 0.0000000e+00 1.5000000e+01 
3.0000000e+00 0.0000000e+00 1.8000000e+01 
3.5000000e+00 0.0000000e+00 3.0000000e+00 
3.5000000e+00 0.0000000e+00 6.0000000e+00 
3.5000000e+00 0.0000000e+00 9.0000000e+00 
3.5000000e+00 0.0000000e+00 1.2000000e+01 
3.5000000e+00 0.0000000e+00 1.5000000e+01 
3.5000000e+00 0.0000000e+00 1.8000000e+01 
4.0000000e+00 0.0000000e+00 3.0000000e+00 
4.0000000e+00 0.0000000e+00 6.0000000e+00 
4.0000000e+00 0.0000000e+00 9.0000000e+00 
4.0000000e+00 0.0000000e+00 1.2000000e+01 
4.0000000e+00 0.0000000e+00 1.5000000e+01 
4.0000000e+00 0.0000000e+00 1.8000000e+01 
4.5000000e+00 0.0000000e+00 3.0000000e+00 
4.5000000e+00 0.0000000e+00 6.0000000e+00 
4.5000000e+00 0.0000000e+00 9.0000000e+00 
4.5000000e+00 0.0000000e+00 1.2000000e+01 
4.5000000e+00 0.0000000e+00 1.5000000e+01 
4.5000000e+00 0.0000000e+00 1.8000000e+01 
5.0000000e+00 0.0000000e+00 3.0000000e+00 
5.0000000e+00 0.0000000e+00 6.0000000e+00 
5.0000000e+00 0.0000000e+00 9.0000000e+00 
5.0000000e+00 0.0000000e+00 1.2000000e+01 
5.0000000e+00 0.0000000e+00 1.5000000e+01 
5.0000000e+00 0.0000000e+00 1.8000000e+01 
5.5000000e+00 0.0000000e+00 3.0000000e+00 
5.5000000e+00 0.0000000e+00 6.0000000e+00 
5.5000000e+00 0.0000000e+00 9.0000000e+00 
5.5000000e+00 0.0000000e+00 1.2000000e+01 
5.5000000e+00 0.0000000e+00 1.5000000e+01 
5.5000000e+00 0.0000000e+00 1.8000000e+01 
6.0000000e+00 0.0000000e+00 0.0000000e+00 
6.0000000e+00 0.0000000e+00 2.5000000e-01 
6.0000000e+00 0.0000000e+00 5.0000000e-01 
6.0000000e+00 0.0000000e+00 7.5000000e-01 
6.0000000e+00 0.0000000e+00 1.0000000e+00 
6.0000000e+00 0.0000000e+00 1.2500000e+00 
6.0000000e+00 0.0000000e+00 1.5000000e+00 
6.0000000e+00 0.0000000e+00 1.7500000e+00 
6.0000000e+00 0.0000000e+00 2.0000000e+00 
6.0000000e+00 0.0000000e+00 2.2500000e+00 
6.0000000e+00 0.0000000e+00 2.5000000e+00 
6.0000000e+00 0.0000000e+00 2.7500000e+00 
6.0000000e+00 0.0000000e+00 3.0000000e+00 
6.0000000e+00 0.0000000e+00 3.2500000e+00 
6.0000000e+00 0.0000000e+00 3.5000000e+00 
6.0000000e+00 0.0000000e+00 3.7500000e+00 
6.0000000e+00 0.0000000e+00 4.0000000e+00 
6.0000000e+00 0.0000000e+00 4.2500000e+00 
6.0000000e+00 0.0000000e+00 4.5000000e+00 
6.0000000e+00 0.0000000e+00 4.7500000e+00 
6.0000000e+00 0.0000000e+00 5.0000000e+00 
6.0000000e+00 0.0000000e+00 5.2500000e+00 
6.0000000e+00 0.0000000e+00 5.5000000e+00 
6.0000000e+00 0.0000000e+00 5.7500000e+00 
6.0000000e+00 0.0000000e+00 6.0000000e+00 
6.0000000e+00 0.0000000e+00 6.2500000e+00 
6.0000000e+00 0.0000000e+00 6.5000000e+00 
6.0000000e+00 0.0000000e+00 6.7500000e+00 
6.0000000e+00 0.0000000e+00 7.0000000e+00 
6.0000000e+00 0.0000000e+00 7.2500000e+00 
6.0000000e+00 0.0000000e+00 7.5000000e+00 
6.0000000e+00 0.0000000e+00 7.7500000e+00 
6.0000000e+00 0.0000000e+00 8.0000000e+00 
6.0000000e+00 0.0000000e+00 8.2500000e+00 
6.0000000e+00 0.0000000e+00 8.5000000e+00 
6.0000000e+00 0.0000000e+00 8.7500000e+00 
6.0000000e+00 0.0000000e+00 9.0000000e+00 
6.0000000e+00 0.0000000e+00 9.2500000e+00 
6.0000000e+00 0.0000000e+00 9.5000000e+00 
6.0000000e+00 0.0000000e+00 9.7500000e+00 
6.0000000e+00 0.0000000e+00 1.0000000e+01 
6.0000000e+00 0.0000000e+00 1.0250000e+01 
6.0000000e+00 0.0000000e+00 1.0500000e+01 
6.0000000e+00 0.0000000e+00 1.0750000e+01 
6.0000000e+00 0.0000000e+00 1.1000000e+01 
6.0000000e+00 0.0000000e+00 1.1250000e+01 
6.0000000e+00 0.0000000e+00 1.1500000e+01 
6.0000000e+00 0.0000000e+00 1.1750000e+01 
6.0000000e+00 0.0000000e+00 1.2000000e+01 
6.0000000e+00 0.0000000e+00 1.2250000e+01 
6.0000000e+00 0.0000000e+00 1.2500000e+01 
6.0000000e+00 0.0000000e+00 1.2750000e+01 
6.0000000e+00 0.0000000e+00 1.3000000e+01 
6.0000000e+00 0.0000000e+00 1.3250000e+01 
6.0000000e+00 0.0000000e+00 1.3500000e+01 
6.0000000e+00 0.0000000e+00 1.3750000e+01 
6.0000000e+00 0.0000000e+00 1.4000000e+01 
6.0000000e+00 0.0000000e+00 1.4250000e+01 
6.0000000e+00 0.0000000e+00 1.4500000e+01 
6.0000000e+00 0.0000000e+00 1.4750000e+01 
6.0000000e+00 0.0000000e+00 1.5000000e+01 
6.0000000e+00 0.0000000e+00 1.5250000e+01 
6.0000000e+00 0.0000000e+00 1.5500000e+01 
6.0000000e+00 0.0000000e+00 1.5750000e+01 
6.0000000e+00 0.0000000e+00 1.6000000e+01 
6.0000000e+00 0.0000000e+00 1.6250000e+01 
6.0000000e+00 0.0000000e+00 1.6500000e+01 
6.0000000e+00 0.0000000e+00 1.6750000e+01 
6.0000000e+00 0.0000000e+00 1.7000000e+01 
6.0000000e+00 0.0000000e+00 1.7250000e+01 
6.0000000e+00 0.0000000e+00 1.7500000e+01 
6.0000000e+00 0.0000000e+00 1.7750000e+01 
6.0000000e+00 0.0000000e+00 1.8000000e+01 

CELLS 216 648
2 0 1
2 1 2
2 2 3
2 3 4
2 4 5
2 5 6
2 6 7
2 7 8
2 8 9
2 9 10
2 10 11
2 11 12
2 12 13
2 13 14
2 14 15
2 15 16
2 16 17
2 17 18
2 18 19
2 19 20
2 20 21
2 21 22
2 22 23
2 23 24
2 24 25
2 25 26
2 26 27
2 27 28
2 28 29
2 29 30
2 30 31
2 31 32
2 32 33
2 33 34
2 34 35
2 35 36
2 36 37
2 37 38
2 38 39
2 39 40
2 40 41
2 41 42
2 42 43
2 43 44
2 44 45
2 45 46
2 46 47
2 47 48
2 48 49
2 49 50
2 50 51
2 51 52
2 52 53
2 53 54
2 54 55
2 55 56
2 56 57
2 57 58
2 58 59
2 59 60
2 60 61
2 61 62
2 62 63
2 63 64
2 64 65
2 65 66
2 66 67
2 67 68
2 68 69
2 69 70
2 70 71
2 71 72
2 139 140
2 140 141
2 141 142
2 142 143
2 143 144
2 144 145
2 145 146
2 146 147
2 147 148
2 148 149
2 149 150
2 150 151
2 151 152
2 152 153
2 153 154
2 154 155
2 155 156
2 156 157
2 157 158
2 158 159
2 159 160
2 160 161
2 161 162
2 162 163
2 163 164
2 164 165
2 165 166
2 166 167
2 167 168
2 168 169
2 169 170
2 170 171
2 171 172
2 172 173
2 173 174
2 174 175
2 175 176
2 176 177
2 177 178
2 178 179
2 179 180
2 180 181
2 181 182
2 182 183
2 183 184
2 184 185
2 185 186
2 186 187
2 187 188
2 188 189
2 189 190
2 190 191
2 191 192
2 192 193
2 193 194
2 194 195
2 195 196
2 196 197
2 197 198
2 198 199
2 199 200
2 200 201
2 201 202
2 202 203
2 203 204
2 204 205
2 205 206
2 206 207
2 207 208
2 208 209
2 209 210
2 210 211
2 12 73
2 73 79
2 79 85
2 85 91
2 91 97
2 97 103
2 103 109
2 109 115
2 115 121
2 121 127
2 127 133
2 133 151
2 24 74
2 74 80
2 80 86
2 86 92
2 92 98
2 98 104
2 104 110
2 110 116
2 116 122
2 122 128
2 128 134
2 134 163
2 36 75
2 75 81
2 81 87
2 87 93
2 93 99
2 99 105
2 105 111
2 111 117
2 117 123
2 123 129
2 129 135
2 135 175
2 48 76
2 76 82
2 82 88
2 88 94
2 94 100
2 100 106
2 106 112
2 112 118
2 118 124
2 124 130
2 130 136
2 136 187
2 60 77
2 77 83
2 83 89
2 89 95
2 95 101
2 101 107
2 107 113
2 113 119
2 119 125
2 125 131
2 131 137
2 137 199
2 72 78
2 78 84
2 84 90
2 90 96
2 96 102
2 102 108
2 108 114
2 114 120
2 120 126
2 126 132
2 132 138
2 138 211

CELL_TYPES 216
3
3
3
3
3
3
3
3
3
3
3
3
3
3
3
3
3
3
3
3
3
3
3
3
3
3
3
3
3
3
3
3
3
3
3
3
3
3
3
3
3
3
3
3
3
3
3
3
3
3
3
3
3
3
3
3
3
3
3
3
3
3
3
3
3
3
3
3
3
3
3
3
3
3
3
3
3
3
3
3
3
3
3
3
3
3
3
3
3
3
3
3
3
3
3
3
3
3
3
3
3
3
3
3
3
3
3
3
3
3
3
3
3
3
3
3
3
3
3
3
3
3
3
3
3
3
3
3
3
3
3
3
3
3
3
3
3
3
3
3
3
3
3
3
3
3
3
3
3
3
3
3
3
3
3
3
3
3
3
3
3
3
3
3
3
3
3
3
3
3
3
3
3
3
3
3
3
3
3
3
3
3
3
3
3
3
3
3
3
3
3
3
3
3
3
3
3
3
3
3
3
3
3
3
3
3
3
3
3
3
3
3
3
3
3
3
POINT_DATA 212
FIELD FieldData 8
DISPLACEMENT 3 212  float
0.0000000e+00 0.0000000e+00 0.0000000e+00 
-8.5259788e-05 0.0000000e+00 -7.9099473e-06 
-1.6694922e-04 0.0000000e+00 -1.5765763e-05 
-2.4149795e-04 0.0000000e+00 -2.3567447e-05 
-3.0533562e-04 0.0000000e+00 -3.1315001e-05 
-3.5489185e-04 0.0000000e+00 -3.9008421e-05 
-3.8659631e-04 0.0000000e+00 -4.6647714e-05 
-3.9687866e-04 0.0000000e+00 -5.4232871e-05 
-3.8216851e-04 0.0000000e+00 -6.1763902e-05 
-3.3889551e-04 0.0000000e+00 -6.9240799e-05 
-2.6348932e-04 0.0000000e+00 -7.6663564e-05 
-1.5237959e-04 0.0000000e+00 -8.4032195e-05 
-1.9959650e-06 0.0000000e+00 -9.1346701e-05 
1.3339130e-04 0.0000000e+00 -9.7933807e-05 
2.0497642e-04 0.0000000e+00 -1.0446679e-04 
2.2452655e-04 0.0000000e+00 -1.1094564e-04 
2.0380884e-04 0.0000000e+00 -1.1737036e-04 
1.5459047e-04 0.0000000e+00 -1.2374095e-04 
8.8638546e-05 0.0000000e+00 -1.3005739e-04 
1.7720242e-05 0.0000000e+00 -1.3631972e-04 
-4.6397297e-05 0.0000000e+00 -1.4252792e-04 
-9.1946924e-05 0.0000000e+00 -1.4868198e-04 
-1.0716149e-04 0.0000000e+00 -1.5478191e-04 
-8.0273843e-05 0.0000000e+00 -1.6082771e-04 
4.8316940e-07 0.0000000e+00 -1.6681937e-04 
8.4856023e-05 0.0000000e+00 -1.7208364e-04 
1.2126839e-04 0.0000000e+00 -1.7729380e-04 
1.1950319e-04 0.0000000e+00 -1.8244980e-04 
8.9343353e-05 0.0000000e+00 -1.8755169e-04 
4.0571806e-05 0.0000000e+00 -1.9259944e-04 
-1.7028528e-05 0.0000000e+00 -1.9759306e-04 
-7.3674717e-05 0.0000000e+00 -2.0253255e-04 
-1.1958384e-04 0.0000000e+00 -2.0741791e-04 
-1.4497298e-04 0.0000000e+00 -2.1224913e-04 
-1.4005919e-04 0.0000000e+00 -2.1702623e-04 
-9.5059549e-05 0.0000000e+00 -2.2174919e-04 
-1.9113696e-07 0.0000000e+00 -2.2641802e-04 
9.3246897e-05 0.0000000e+00 -2.3035947e-04 
1.3447872e-04 0.0000000e+00 -2.3424678e-04 
1.3407216e-04 0.0000000e+00 -2.3807996e-04 
1.0259514e-04 0.0000000e+00 -2.4185900e-04 
5.0615472e-05 0.0000000e+00 -2.4558391e-04 
-1.1298956e-05 0.0000000e+00 -2.4925469e-04 
-7.2580282e-05 0.0000000e+00 -2.5287134e-04 
-1.2266064e-04 0.0000000e+00 -2.5643388e-04 
-1.5097216e-04 0.0000000e+00 -2.5994226e-04 
-1.4694699e-04 0.0000000e+00 -2.6339651e-04 
-1.0001725e-04 0.0000000e+00 -2.6679665e-04 
3.8491157e-07 0.0000000e+00 -2.7014266e-04 
1.0366757e-04 0.0000000e+00 -2.7276124e-04 
1.5818499e-04 0.0000000e+00 -2.7532573e-04 
1.7292435e-04 0.0000000e+00 -2.7783608e-04 
1.5687276e-04 0.0000000e+00 -2.8029227e-04 
1.1901742e-04 0.0000000e+00 -2.8269435e-04 
6.8345449e-05 0.0000000e+00 -2.8504230e-04 
1.3844029e-05 0.0000000e+00 -2.8733612e-04 
-3.5499696e-05 0.0000000e+00 -2.8957581e-04 
-7.0698567e-05 0.0000000e+00 -2.9176136e-04 
-8.2765437e-05 0.0000000e+00 -2.9389278e-04 
-6.2713138e-05 0.0000000e+00 -2.9597009e-04 
-1.5545216e-06 0.0000000e+00 -2.9799325e-04 
4.7950485e-05 0.0000000e+00 -2.9928901e-04 
3.7297905e-05 0.0000000e+00 -3.0053066e-04 
-1.8141180e-05 0.0000000e+00 -3.0171816e-04 
-1.0299568e-04 0.0000000e+00 -3.0285152e-04 
-2.0189454e-04 0.0000000e+00 -3.0393078e-04 
-2.9946663e-04 0.0000000e+00 -3.0495590e-04 
-3.8034091e-04 0.0000000e+00 -3.0592686e-04 
-4.2914628e-04 0.0000000e+00 -3.0684372e-04 
-4.3051166e-04 0.0000000e+00 -3.0770645e-04 
-3.6906597e-04 0.0000000e+00 -3.0851504e-04 
-2.2943814e-04 0.0000000e+00 -3.0926950e-04 
3.7429440e-06 0.0000000e+00 -3.0996982e-04 
-1.6633043e-06 0.0000000e+00 -6.2826544e-04 
4.0264118e-07 0.0000000e+00 -5.9447763e-04 
-1.5928080e-07 0.0000000e+00 -6.7506736e-04 
3.2075965e-07 0.0000000e+00 -7.3272025e-04 
-1.2954347e-06 0.0000000e+00 -6.7632279e-04 
3.1191200e-06 0.0000000e+00 -1.0556515e-03 
-1.3306434e-06 0.0000000e+00 -1.3993464e-03 
3.2211295e-07 0.0000000e+00 -1.2761636e-03 
-1.2742464e-07 0.0000000e+00 -1.3739279e-03 
2.5660773e-07 0.0000000e+00 -1.4429766e-03 
-1.0363477e-06 0.0000000e+00 -1.3176489e-03 
2.4952960e-06 0.0000000e+00 -1.9975384e-03 
-9.9798251e-07 0.0000000e+00 -2.2055192e-03 
2.4158473e-07 0.0000000e+00 -2.0128072e-03 
-9.5568474e-08 0.0000000e+00 -2.1239293e-03 
1.9245579e-07 0.0000000e+00 -2.2018414e-03 
-7.7726082e-07 0.0000000e+00 -2.0229013e-03 
1.8714720e-06 0.0000000e+00 -2.9365604e-03 
-6.6532169e-07 0.0000000e+00 -2.8919517e-03 
1.6105648e-07 0.0000000e+00 -2.6495757e-03 
-6.3712314e-08 0.0000000e+00 -2.7702393e-03 
1.2830387e-07 0.0000000e+00 -2.8544825e-03 
-5.1817386e-07 0.0000000e+00 -2.6372478e-03 
1.2476480e-06 0.0000000e+00 -3.7178851e-03 
-3.3266085e-07 0.0000000e+00 -3.3480490e-03 
8.0528245e-08 0.0000000e+00 -3.0758746e-03 
-3.1856153e-08 0.0000000e+00 -3.2022633e-03 
6.4151934e-08 0.0000000e+00 -3.2903049e-03 
-2.5908693e-07 0.0000000e+00 -3.0500935e-03 
6.2382401e-07 0.0000000e+00 -4.2309179e-03 
3.4377480e-15 0.0000000e+00 -3.5074544e-03 
5.5427646e-15 0.0000000e+00 -3.2253473e-03 
7.4155795e-15 0.0000000e+00 -3.3536442e-03 
9.3003557e-15 0.0000000e+00 -3.4429519e-03 
1.0901362e-14 0.0000000e+00 -3.1950816e-03 
1.1789253e-14 0.0000000e+00 -4.4093016e-03 
3.3266085e-07 0.0000000e+00 -3.3480490e-03 
-8.0528231e-08 0.0000000e+00 -3.0758746e-03 
3.1856167e-08 0.0000000e+00 -3.2022633e-03 
-6.4151919e-08 0.0000000e+00 -3.2903049e-03 
2.5908696e-07 0.0000000e+00 -3.0500935e-03 
-6.2382401e-07 0.0000000e+00 -4.2309179e-03 
6.6532169e-07 0.0000000e+00 -2.8919517e-03 
-1.6105646e-07 0.0000000e+00 -2.6495757e-03 
6.3712328e-08 0.0000000e+00 -2.7702393e-03 
-1.2830385e-07 0.0000000e+00 -2.8544825e-03 
5.1817392e-07 0.0000000e+00 -2.6372478e-03 
-1.2476480e-06 0.0000000e+00 -3.7178851e-03 
9.9798251e-07 0.0000000e+00 -2.2055192e-03 
-2.4158470e-07 0.0000000e+00 -2.0128072e-03 
9.5568488e-08 0.0000000e+00 -2.1239293e-03 
-1.9245577e-07 0.0000000e+00 -2.2018414e-03 
7.7726082e-07 0.0000000e+00 -2.0229013e-03 
-1.8714720e-06 0.0000000e+00 -2.9365604e-03 
1.3306434e-06 0.0000000e+00 -1.3993464e-03 
-3.2211295e-07 0.0000000e+00 -1.2761636e-03 
1.2742466e-07 0.0000000e+00 -1.3739279e-03 
-2.5660771e-07 0.0000000e+00 -1.4429766e-03 
1.0363478e-06 0.0000000e+00 -1.3176489e-03 
-2.4952960e-06 0.0000000e+00 -1.9975384e-03 
1.6633043e-06 0.0000000e+00 -6.2826544e-04 
-4.0264118e-07 0.0000000e+00 -5.9447763e-04 
1.5928082e-07 0.0000000e+00 -6.7506736e-04 
-3.2075963e-07 0.0000000e+00 -7.3272025e-04 
1.2954347e-06 0.0000000e+00 -6.7632279e-04 
-3.1191200e-06 0.0000000e+00 -1.0556515e-03 
0.0000000e+00 0.0000000e+00 0.0000000e+00 
8.5259788e-05 0.0000000e+00 -7.9099473e-06 
1.6694922e-04 0.0000000e+00 -1.5765763e-05 
2.4149795e-04 0.0000000e+00 -2.3567447e-05 
3.0533562e-04 0.0000000e+00 -3.1315001e-05 
3.5489185e-04 0.0000000e+00 -3.9008421e-05 
3.8659631e-04 0.0000000e+00 -4.6647714e-05 
3.9687866e-04 0.0000000e+00 -5.4232871e-05 
3.8216851e-04 0.0000000e+00 -6.1763902e-05 
3.3889551e-04 0.0000000e+00 -6.9240799e-05 
2.6348932e-04 0.0000000e+00 -7.6663564e-05 
1.5237959e-04 0.0000000e+00 -8.4032195e-05 
1.9959650e-06 0.0000000e+00 -9.1346701e-05 
-1.3339130e-04 0.0000000e+00 -9.7933807e-05 
-2.0497642e-04 0.0000000e+00 -1.0446679e-04 
-2.2452655e-04 0.0000000e+00 -1.1094564e-04 
-2.0380884e-04 0.0000000e+00 -1.1737036e-04 
-1.5459047e-04 0.0000000e+00 -1.2374095e-04 
-8.8638546e-05 0.0000000e+00 -1.3005739e-04 
-1.7720242e-05 0.0000000e+00 -1.3631972e-04 
4.6397297e-05 0.0000000e+00 -1.4252792e-04 
9.1946924e-05 0.0000000e+00 -1.4868198e-04 
1.0716149e-04 0.0000000e+00 -1.5478191e-04 
8.0273843e-05 0.0000000e+00 -1.6082771e-04 
-4.8316940e-07 0.0000000e+00 -1.6681937e-04 
-8.4856023e-05 0.0000000e+00 -1.7208364e-04 
-1.2126839e-04 0.0000000e+00 -1.7729380e-04 
-1.1950319e-04 0.0000000e+00 -1.8244980e-04 
-8.9343353e-05 0.0000000e+00 -1.8755169e-04 
-4.0571806e-05 0.0000000e+00 -1.9259944e-04 
1.7028528e-05 0.0000000e+00 -1.9759306e-04 
7.3674717e-05 0.0000000e+00 -2.0253255e-04 
1.1958384e-04 0.0000000e+00 -2.0741791e-04 
1.4497298e-04 0.0000000e+00 -2.1224913e-04 
1.4005919e-04 0.0000000e+00 -2.1702623e-04 
9.5059549e-05 0.0000000e+00 -2.2174919e-04 
1.9113698e-07 0.0000000e+00 -2.2641802e-04 
-9.3246897e-05 0.0000000e+00 -2.3035947e-04 
-1.3447872e-04 0.0000000e+00 -2.3424678e-04 
-1.3407216e-04 0.0000000e+00 -2.3807996e-04 
-1.0259514e-04 0.0000000e+00 -2.4185900e-04 
-5.0615472e-05 0.0000000e+00 -2.4558391e-04 
1.1298956e-05 0.0000000e+00 -2.4925469e-04 
7.2580282e-05 0.0000000e+00 -2.5287134e-04 
1.2266064e-04 0.0000000e+00 -2.5643388e-04 
1.5097216e-04 0.0000000e+00 -2.5994226e-04 
1.4694699e-04 0.0000000e+00 -2.6339651e-04 
1.0001725e-04 0.0000000e+00 -2.6679665e-04 
-3.8491154e-07 0.0000000e+00 -2.7014266e-04 
-1.0366757e-04 0.0000000e+00 -2.7276124e-04 
-1.5818499e-04 0.0000000e+00 -2.7532573e-04 
-1.7292435e-04 0.0000000e+00 -2.7783608e-04 
-1.5687276e-04 0.0000000e+00 -2.8029227e-04 
-1.1901742e-04 0.0000000e+00 -2.8269435e-04 
-6.8345449e-05 0.0000000e+00 -2.8504230e-04 
-1.3844029e-05 0.0000000e+00 -2.8733612e-04 
3.5499696e-05 0.0000000e+00 -2.8957581e-04 
7.0698567e-05 0.0000000e+00 -2.9176136e-04 
8.2765437e-05 0.0000000e+00 -2.9389278e-04 
6.2713138e-05 0.0000000e+00 -2.9597009e-04 
1.5545216e-06 0.0000000e+00 -2.9799325e-04 
-4.7950485e-05 0.0000000e+00 -2.9928901e-04 
-3.7297905e-05 0.0000000e+00 -3.0053066e-04 
1.8141180e-05 0.0000000e+00 -3.0171816e-04 
1.0299568e-04 0.0000000e+00 -3.0285152e-04 
2.0189454e-04 0.0000000e+00 -3.0393078e-04 
2.9946663e-04 0.0000000e+00 -3.0495590e-04 
3.8034091e-04 0.0000000e+00 -3.0592686e-04 
4.2914628e-04 0.0000000e+00 -3.0684372e-04 
4.3051166e-04 0.0000000e+00 -3.0770645e-04 
3.6906597e-04 0.0000000e+00 -3.0851504e-04 
2.2943814e-04 0.0000000e+00 -3.0926950e-04 
-3.7429440e-06 0.0000000e+00 -3.0996982e-04 
ROTATION 3 212  float
0.0000000e+00 -3.4341938e-04 0.0000000e+00 
0.0000000e+00 -3.3627870e-04 0.0000000e+00 
0.0000000e+00 -3.1485656e-04 0.0000000e+00 
0.0000000e+00 -2.7915300e-04 0.0000000e+00 
0.0000000e+00 -2.2916803e-04 0.0000000e+00 
0.0000000e+00 -1.6490165e-04 0.0000000e+00 
0.0000000e+00 -8.6353837e-05 0.0000000e+00 
0.0000000e+00 6.4753881e-06 0.0000000e+00 
0.0000000e+00 1.1358604e-04 0.0000000e+00 
0.0000000e+00 2.3497810e-04 0.0000000e+00 
0.0000000e+00 3.7065160e-04 0.0000000e+00 
0.0000000e+00 5.2060647e-04 0.0000000e+00 
0.0000000e+00 6.8484282e-04 0.0000000e+00 
0.0000000e+00 4.0609998e-04 0.0000000e+00 
0.0000000e+00 1.7442575e-04 0.0000000e+00 
0.0000000e+00 -1.0179890e-05 0.0000000e+00 
0.0000000e+00 -1.4771693e-04 0.0000000e+00 
0.0000000e+00 -2.3818537e-04 0.0000000e+00 
0.0000000e+00 -2.8158521e-04 0.0000000e+00 
0.0000000e+00 -2.7791646e-04 0.0000000e+00 
0.0000000e+00 -2.2717910e-04 0.0000000e+00 
0.0000000e+00 -1.2937315e-04 0.0000000e+00 
0.0000000e+00 1.5501402e-05 0.0000000e+00 
0.0000000e+00 2.0744455e-04 0.0000000e+00 
0.0000000e+00 4.4645631e-04 0.0000000e+00 
0.0000000e+00 2.3504849e-04 0.0000000e+00 
0.0000000e+00 6.2772378e-05 0.0000000e+00 
0.0000000e+00 -7.0372022e-05 0.0000000e+00 
0.0000000e+00 -1.6438472e-04 0.0000000e+00 
0.0000000e+00 -2.1926571e-04 0.0000000e+00 
0.0000000e+00 -2.3501500e-04 0.0000000e+00 
0.0000000e+00 -2.1163258e-04 0.0000000e+00 
0.0000000e+00 -1.4911845e-04 0.0000000e+00 
0.0000000e+00 -4.7472629e-05 0.0000000e+00 
0.0000000e+00 9.3304901e-05 0.0000000e+00 
0.0000000e+00 2.7321413e-04 0.0000000e+00 
0.0000000e+00 4.9225509e-04 0.0000000e+00 
0.0000000e+00 2.6229446e-04 0.0000000e+00 
0.0000000e+00 7.4605297e-05 0.0000000e+00 
0.0000000e+00 -7.0812406e-05 0.0000000e+00 
0.0000000e+00 -1.7395864e-04 0.0000000e+00 
0.0000000e+00 -2.3483342e-04 0.0000000e+00 
0.0000000e+00 -2.5343674e-04 0.0000000e+00 
0.0000000e+00 -2.2976860e-04 0.0000000e+00 
0.0000000e+00 -1.6382901e-04 0.0000000e+00 
0.0000000e+00 -5.5617948e-05 0.0000000e+00 
0.0000000e+00 9.4864576e-05 0.0000000e+00 
0.0000000e+00 2.8761855e-04 0.0000000e+00 
0.0000000e+00 5.2264397e-04 0.0000000e+00 
0.0000000e+00 3.0960873e-04 0.0000000e+00 
0.0000000e+00 1.3252211e-04 0.0000000e+00 
0.0000000e+00 -8.6159062e-06 0.0000000e+00 
0.0000000e+00 -1.1380530e-04 0.0000000e+00 
0.0000000e+00 -1.8304607e-04 0.0000000e+00 
0.0000000e+00 -2.1633822e-04 0.0000000e+00 
0.0000000e+00 -2.1368173e-04 0.0000000e+00 
0.0000000e+00 -1.7507664e-04 0.0000000e+00 
0.0000000e+00 -1.0052291e-04 0.0000000e+00 
0.0000000e+00 9.9794270e-06 0.0000000e+00 
0.0000000e+00 1.5643040e-04 0.0000000e+00 
0.0000000e+00 3.3882997e-04 0.0000000e+00 
0.0000000e+00 6.7457469e-05 0.0000000e+00 
0.0000000e+00 -1.4243071e-04 0.0000000e+00 
0.0000000e+00 -2.9083458e-04 0.0000000e+00 
0.0000000e+00 -3.7775410e-04 0.0000000e+00 
0.0000000e+00 -4.0318927e-04 0.0000000e+00 
0.0000000e+00 -3.6714016e-04 0.0000000e+00 
0.0000000e+00 -2.6960668e-04 0.0000000e+00 
0.0000000e+00 -1.1058890e-04 0.0000000e+00 
0.0000000e+00 1.0991323e-04 0.0000000e+00 
0.0000000e+00 3.9189967e-04 0.0000000e+00 
0.0000000e+00 7.3537044e-04 0.0000000e+00 
0.0000000e+00 1.1403256e-03 0.0000000e+00 
0.0000000e+00 1.3817294e-03 0.0000000e+00 
0.0000000e+00 1.1830740e-03 0.0000000e+00 
0.0000000e+00 1.2212397e-03 0.0000000e+00 
0.0000000e+00 1.2465637e-03 0.0000000e+00 
0.0000000e+00 1.0933854e-03 0.0000000e+00 
0.0000000e+00 1.7612984e-03 0.0000000e+00 
0.0000000e+00 1.6362376e-03 0.0000000e+00 
0.0000000e+00 1.4773133e-03 0.0000000e+00 
0.0000000e+00 1.5078458e-03 0.0000000e+00 
0.0000000e+00 1.5281051e-03 0.0000000e+00 
0.0000000e+00 1.4055624e-03 0.0000000e+00 
0.0000000e+00 1.9398928e-03 0.0000000e+00 
0.0000000e+00 1.5368431e-03 0.0000000e+00 
0.0000000e+00 1.4176499e-03 0.0000000e+00 
0.0000000e+00 1.4405493e-03 0.0000000e+00 
0.0000000e+00 1.4557437e-03 0.0000000e+00 
0.0000000e+00 1.3638367e-03 0.0000000e+00 
0.0000000e+00 1.7645844e-03 0.0000000e+00 
0.0000000e+00 1.1720215e-03 0.0000000e+00 
0.0000000e+00 1.0925594e-03 0.0000000e+00 
0.0000000e+00 1.1078257e-03 0.0000000e+00 
0.0000000e+00 1.1179553e-03 0.0000000e+00 
0.0000000e+00 1.0566839e-03 0.0000000e+00 
0.0000000e+00 1.3238491e-03 0.0000000e+00 
0.0000000e+00 6.3024863e-04 0.0000000e+00 
0.0000000e+00 5.9051753e-04 0.0000000e+00 
0.0000000e+00 5.9815065e-04 0.0000000e+00 
0.0000000e+00 6.0321548e-04 0.0000000e+00 
0.0000000e+00 5.7257980e-04 0.0000000e+00 
0.0000000e+00 7.0616242e-04 0.0000000e+00 
0.0000000e+00 -3.2631425e-16 0.0000000e+00 
0.0000000e+00 -2.3405789e-16 0.0000000e+00 
0.0000000e+00 -2.2551561e-16 0.0000000e+00 
0.0000000e+00 -2.5797619e-16 0.0000000e+00 
0.0000000e+00 -1.8109587e-16 0.0000000e+00 
0.0000000e+00 -5.0733356e-17 0.0000000e+00 
0.0000000e+00 -6.3024863e-04 0.0000000e+00 
0.0000000e+00 -5.9051753e-04 0.0000000e+00 
0.0000000e+00 -5.9815065e-04 0.0000000e+00 
0.0000000e+00 -6.0321548e-04 0.0000000e+00 
0.0000000e+00 -5.7257980e-04 0.0000000e+00 
0.0000000e+00 -7.0616242e-04 0.0000000e+00 
0.0000000e+00 -1.1720215e-03 0.0000000e+00 
0.0000000e+00 -1.0925594e-03 0.0000000e+00 
0.0000000e+00 -1.1078257e-03 0.0000000e+00 
0.0000000e+00 -1.1179553e-03 0.0000000e+00 
0.0000000e+00 -1.0566839e-03 0.0000000e+00 
0.0000000e+00 -1.3238491e-03 0.0000000e+00 
0.0000000e+00 -1.5368431e-03 0.0000000e+00 
0.0000000e+00 -1.4176499e-03 0.0000000e+00 
0.0000000e+00 -1.4405493e-03 0.0000000e+00 
0.0000000e+00 -1.4557437e-03 0.0000000e+00 
0.0000000e+00 -1.3638367e-03 0.0000000e+00 
0.0000000e+00 -1.7645844e-03 0.0000000e+00 
0.0000000e+00 -1.6362376e-03 0.0000000e+00 
0.0000000e+00 -1.4773133e-03 0.0000000e+00 
0.0000000e+00 -1.5078458e-03 0.0000000e+00 
0.0000000e+00 -1.5281051e-03 0.0000000e+00 
0.0000000e+00 -1.4055624e-03 0.0000000e+00 
0.0000000e+00 -1.9398928e-03 0.0000000e+00 
0.0000000e+00 -1.3817294e-03 0.0000000e+00 
0.0000000e+00 -1.1830740e-03 0.0000000e+00 
0.0000000e+00 -1.2212397e-03 0.0000000e+00 
0.0000000e+00 -1.2465637e-03 0.0000000e+00 
0.0000000e+00 -1.0933854e-03 0.0000000e+00 
0.0000000e+00 -1.7612984e-03 0.0000000e+00 
0.0000000e+00 3.4341938e-04 0.0000000e+00 
0.0000000e+00 3.3627870e-04 0.0000000e+00 
0.0000000e+00 3.1485656e-04 0.0000000e+00 
0.0000000e+00 2.7915300e-04 0.0000000e+00 
0.0000000e+00 2.2916803e-04 0.0000000e+00 
0.0000000e+00 1.6490165e-04 0.0000000e+00 
0.0000000e+00 8.6353837e-05 0.0000000e+00 
0.0000000e+00 -6.4753881e-06 0.0000000e+00 
0.0000000e+00 -1.1358604e-04 0.0000000e+00 
0.0000000e+00 -2.3497810e-04 0.0000000e+00 
0.0000000e+00 -3.7065160e-04 0.0000000e+00 
0.0000000e+00 -5.2060647e-04 0.0000000e+00 
0.0000000e+00 -6.8484282e-04 0.0000000e+00 
0.0000000e+00 -4.0609998e-04 0.0000000e+00 
0.0000000e+00 -1.7442575e-04 0.0000000e+00 
0.0000000e+00 1.0179890e-05 0.0000000e+00 
0.0000000e+00 1.4771693e-04 0.0000000e+00 
0.0000000e+00 2.3818537e-04 0.0000000e+00 
0.0000000e+00 2.8158521e-04 0.0000000e+00 
0.0000000e+00 2.7791646e-04 0.0000000e+00 
0.0000000e+00 2.2717910e-04 0.0000000e+00 
0.0000000e+00 1.2937315e-04 0.0000000e+00 
0.0000000e+00 -1.5501402e-05 0.0000000e+00 
0.0000000e+00 -2.0744455e-04 0.0000000e+00 
0.0000000e+00 -4.4645631e-04 0.0000000e+00 
0.0000000e+00 -2.3504849e-04 0.0000000e+00 
0.0000000e+00 -6.2772378e-05 0.0000000e+00 
0.0000000e+00 7.0372022e-05 0.0000000e+00 
0.0000000e+00 1.6438472e-04 0.0000000e+00 
0.0000000e+00 2.1926571e-04 0.0000000e+00 
0.0000000e+00 2.3501500e-04 0.0000000e+00 
0.0000000e+00 2.1163258e-04 0.0000000e+00 
0.0000000e+00 1.4911845e-04 0.0000000e+00 
0.0000000e+00 4.7472629e-05 0.0000000e+00 
0.0000000e+00 -9.3304901e-05 0.0000000e+00 
0.0000000e+00 -2.7321413e-04 0.0000000e+00 
0.0000000e+00 -4.9225509e-04 0.0000000e+00 
0.0000000e+00 -2.6229446e-04 0.0000000e+00 
0.0000000e+00 -7.4605297e-05 0.0000000e+00 
0.0000000e+00 7.0812406e-05 0.0000000e+00 
0.0000000e+00 1.7395864e-04 0.0000000e+00 
0.0000000e+00 2.3483342e-04 0.0000000e+00 
0.0000000e+00 2.5343674e-04 0.0000000e+00 
0.0000000e+00 2.2976860e-04 0.0000000e+00 
0.0000000e+00 1.6382901e-04 0.0000000e+00 
0.0000000e+00 5.5617948e-05 0.0000000e+00 
0.0000000e+00 -9.4864576e-05 0.0000000e+00 
0.0000000e+00 -2.8761855e-04 0.0000000e+00 
0.0000000e+00 -5.2264397e-04 0.0000000e+00 
0.0000000e+00 -3.0960873e-04 0.0000000e+00 
0.0000000e+00 -1.3252211e-04 0.0000000e+00 
0.0000000e+00 8.6159062e-06 0.0000000e+00 
0.0000000e+00 1.1380530e-04 0.0000000e+00 
0.0000000e+00 1.8304607e-04 0.0000000e+00 
0.0000000e+00 2.1633822e-04 0.0000000e+00 
0.0000000e+00 2.1368173e-04 0.0000000e+00 
0.0000000e+00 1.7507664e-04 0.0000000e+00 
0.0000000e+00 1.0052291e-04 0.0000000e+00 
0.0000000e+00 -9.9794270e-06 0.0000000e+00 
0.0000000e+00 -1.5643040e-04 0.0000000e+00 
0.0000000e+00 -3.3882997e-04 0.0000000e+00 
0.0000000e+00 -6.7457469e-05 0.0000000e+00 
0.0000000e+00 1.4243071e-04 0.0000000e+00 
0.0000000e+00 2.9083458e-04 0.0000000e+00 
0.0000000e+00 3.7775410e-04 0.0000000e+00 