# vtk DataFile Version 4.0
vtk output
ASCII
DATASET UNSTRUCTURED_GRID
POINTS 32 float
0.0000000e+00 0.0000000e+00 0.0000000e+00 
0.0000000e+00 0.0000000e+00 1.5000000e+00 
0.0000000e+00 0.0000000e+00 3.0000000e+00 
0.0000000e+00 0.0000000e+00 4.5000000e+00 
0.0000000e+00 0.0000000e+00 6.0000000e+00 
0.0000000e+00 0.0000000e+00 7.5000000e+00 
0.0000000e+00 0.0000000e+00 9.0000000e+00 
0.0000000e+00 0.0000000e+00 1.0500000e+01 
0.0000000e+00 0.0000000e+00 1.2000000e+01 
0.0000000e+00 0.0000000e+00 1.3500000e+01 
0.0000000e+00 0.0000000e+00 1.5000000e+01 
0.0000000e+00 0.0000000e+00 1.6500000e+01 
0.0000000e+00 0.0000000e+00 1.8000000e+01 
3.0000000e+00 0.0000000e+00 3.0000000e+00 
3.0000000e+00 0.0000000e+00 6.0000000e+00 
3.0000000e+00 0.0000000e+00 9.0000000e+00 
3.0000000e+00 0.0000000e+00 1.2000000e+01 
3.0000000e+00 0.0000000e+00 1.5000000e+01 
3.0000000e+00 0.0000000e+00 1.8000000e+01 
6.0000000e+00 0.0000000e+00 0.0000000e+00 
6.0000000e+00 0.0000000e+00 1.5000000e+00 
6.0000000e+00 0.0000000e+00 3.0000000e+00 
6.0000000e+00 0.0000000e+00 4.5000000e+00 
6.0000000e+00 0.0000000e+00 6.0000000e+00 
6.0000000e+00 0.0000000e+00 7.5000000e+00 
6.0000000e+00 0.0000000e+00 9.0000000e+00 
6.0000000e+00 0.0000000e+00 1.0500000e+01 
6.0000000e+00 0.0000000e+00 1.2000000e+01 
6.0000000e+00 0.0000000e+00 1.3500000e+01 
6.0000000e+00 0.0000000e+00 1.5000000e+01 
6.0000000e+00 0.0000000e+00 1.6500000e+01 
6.0000000e+00 0.0000000e+00 1.8000000e+01 

CELLS 36 108
2 0 1
2 1 2
2 2 3
2 3 4
2 4 5
2 5 6
2 6 7
2 7 8
2 8 9
2 9 10
2 10 11
2 11 12
2 19 20
2 20 21
2 21 22
2 22 23
2 23 24
2 24 25
2 25 26
2 26 27
2 27 28
2 28 29
2 29 30
2 30 31
2 2 13
2 13 21
2 4 14
2 14 23
2 6 15
2 15 25
2 8 16
2 16 27
2 10 17
2 17 29
2 12 18
2 18 31

CELL_TYPES 36
3
3
3
3
3
3
3
3
3
3
3
3
3
3
3
3
3
3
3
3
3
3
3
3
3
3
3
3
3
3
3
3
3
3
3
3
POINT_DATA 32
FIELD FieldData 8
DISPLACEMENT 3 32  float
0.0000000e+00 0.0000000e+00 0.0000000e+00 
-2.8431544e-04 0.0000000e+00 -2.0489740e-04 
-8.5630554e-06 0.0000000e+00 -4.0113067e-04 
6.1107225e-05 0.0000000e+00 -5.7115650e-04 
1.9963111e-06 0.0000000e+00 -7.3251815e-04 
-1.1281348e-05 0.0000000e+00 -8.6767244e-04 
-7.4557568e-07 0.0000000e+00 -9.9416252e-04 
-7.3084698e-06 0.0000000e+00 -1.0944452e-03 
1.5561885e-06 0.0000000e+00 -1.1860637e-03 
4.6127294e-05 0.0000000e+00 -1.2514748e-03 
-6.5989739e-06 0.0000000e+00 -1.3082217e-03 
-2.1409802e-04 0.0000000e+00 -1.3387613e-03 
1.6145797e-05 0.0000000e+00 -1.3606367e-03 
9.0904362e-18 0.0000000e+00 -2.8716002e-03 
1.4613361e-17 0.0000000e+00 -2.9454255e-03 
1.8406398e-17 0.0000000e+00 -3.2546965e-03 
1.9970756e-17 0.0000000e+00 -3.4774530e-03 
1.9761113e-17 0.0000000e+00 -3.4050161e-03 
1.8381182e-17 0.0000000e+00 -4.3329168e-03 
0.0000000e+00 0.0000000e+00 0.0000000e+00 
2.8431544e-04 0.0000000e+00 -2.0489740e-04 
8.5630554e-06 0.0000000e+00 -4.0113067e-04 
-6.1107225e-05 0.0000000e+00 -5.7115650e-04 
-1.9963111e-06 0.0000000e+00 -7.3251815e-04 
1.1281348e-05 0.0000000e+00 -8.6767244e-04 
7.4557568e-07 0.0000000e+00 -9.9416252e-04 
7.3084698e-06 0.0000000e+00 -1.0944452e-03 
-1.5561885e-06 0.0000000e+00 -1.1860637e-03 
-4.6127294e-05 0.0000000e+00 -1.2514748e-03 
6.5989739e-06 0.0000000e+00 -1.3082217e-03 
2.1409802e-04 0.0000000e+00 -1.3387613e-03 
-1.6145797e-05 0.0000000e+00 -1.3606367e-03 
ROTATION 3 32  float
0.0000000e+00 -2.5177337e-04 0.0000000e+00 
0.0000000e+00 -6.5084110e-05 0.0000000e+00 
0.0000000e+00 4.9498369e-04 0.0000000e+00 
0.0000000e+00 -1.9928510e-04 0.0000000e+00 
0.0000000e+00 3.2327545e-04 0.0000000e+00 
0.0000000e+00 -1.7094647e-04 0.0000000e+00 
0.0000000e+00 3.5502668e-04 0.0000000e+00 
0.0000000e+00 -1.8150498e-04 0.0000000e+00 
0.0000000e+00 3.7559675e-04 0.0000000e+00 
0.0000000e+00 -1.5944350e-04 0.0000000e+00 
0.0000000e+00 2.4586692e-04 0.0000000e+00 
0.0000000e+00 -2.5747536e-04 0.0000000e+00 
0.0000000e+00 8.2952407e-04 0.0000000e+00 
0.0000000e+00 -9.4930494e-19 0.0000000e+00 
0.0000000e+00 -8.8692218e-19 0.0000000e+00 
0.0000000e+00 -7.6021900e-19 0.0000000e+00 
0.0000000e+00 -7.9420304e-19 0.0000000e+00 
0.0000000e+00 -8.0120590e-19 0.0000000e+00 
0.0000000e+00 -9.4336040e-19 0.0000000e+00 
0.0000000e+00 2.5177337e-04 0.0000000e+00 
0.0000000e+00 6.5084110e-05 0.0000000e+00 
0.0000000e+00 -4.9498369e-04 0.0000000e+00 
0.0000000e+00 1.9928510e-04 0.0000000e+00 
0.0000000e+00 -3.2327545e-04 0.0000000e+00 
0.0000000e+00 1.7094647e-04 0.0000000e+00 
0.0000000e+00 -3.5502668e-04 0.0000000e+00 
0.0000000e+00 1.8150498e-04 0.0000000e+00 
0.0000000e+00 -3.7559675e-04 0.0000000e+00 
0.0000000e+00 1.5944350e-04 0.0000000e+00 
0.0000000e+00 -2.4586692e-04 0.0000000e+00 
0.0000000e+00 2.5747536e-04 0.0000000e+00 
0.0000000e+00 -8.2952407e-04 0.0000000e+00 
REACTION 3 32  float
1.1167367e+03 -0.0000000e+00 1.2327757e+05 
1.5916157e-12 -0.0000000e+00 -6.8248934e-01 
4.5474735e-13 -0.0000000e+00 -6.0668933e-01 
-1.8189894e-12 -0.0000000e+00 -5.6389618e-01 
-3.4106051e-13 -0.0000000e+00 -5.0659317e-01 
1.3642421e-12 -0.0000000e+00 -4.4522327e-01 
1.7053026e-13 -0.0000000e+00 -3.8313296e-01 
-9.0949470e-13 -0.0000000e+00 -3.2654589e-01 
2.2737368e-13 -0.0000000e+00 -2.6837945e-01 
5.0022209e-12 -0.0000000e+00 -2.0786580e-01 
6.8212103e-13 -0.0000000e+00 -1.3587302e-01 
9.0949470e-13 -0.0000000e+00 -8.9136548e-02 
-1.8189894e-12 -0.0000000e+00 -6.2472422e-02 
-9.0949470e-13 -0.0000000e+00 3.3008788e-02 
-0.0000000e+00 -0.0000000e+00 -4.0662116e-03 
-0.0000000e+00 -0.0000000e+00 5.5033080e-03 
-7.3896445e-13 -0.0000000e+00 -2.3467683e-03 
1.8189894e-12 -0.0000000e+00 2.5261488e-02 
1.8189894e-12 -0.0000000e+00 -5.0557155e-02 
-1.1167367e+03 -0.0000000e+00 1.2327757e+05 
1.1368684e-12 -0.0000000e+00 -6.8248934e-01 
-0.0000000e+00 -0.0000000e+00 -6.0668933e-01 
-1.3642421e-12 -0.0000000e+00 -5.6389618e-01 
1.7053026e-12 -0.0000000e+00 -5.0659317e-01 
9.0949470e-13 -0.0000000e+00 -4.4522327e-01 
2.8421709e-13 -0.0000000e+00 -3.8313296e-01 
9.0949470e-13 -0.0000000e+00 -3.2654589e-01 
-1.7621460e-12 -0.0000000e+00 -2.6837945e-01 
-9.0949470e-13 -0.0000000e+00 -2.0786580e-01 
-2.2737368e-13 -0.0000000e+00 -1.3587302e-01 
-1.8189894e-12 -0.0000000e+00 -8.9136548e-02 
-0.0000000e+00 -0.0000000e+00 -6.2472422e-02 
REACTION_MOMENT 3 32  float
-0.0000000e+00 1.2093382e-01 -0.0000000e+00 
-0.0000000e+00 -2.3822601e-01 -0.0000000e+00 
-0.0000000e+00 7.2220512e-02 -0.0000000e+00 
-0.0000000e+00 5.4778609e-02 -0.0000000e+00 
-0.0000000e+00 -1.6793093e-02 -0.0000000e+00 
-0.0000000e+00 -1.0129559e-02 -0.0000000e+00 
-0.0000000e+00 5.2800537e-03 -0.0000000e+00 
-0.0000000e+00 -6.5626176e-03 -0.0000000e+00 
-0.0000000e+00 -1.3285704e-02 -0.0000000e+00 
-0.0000000e+00 4.1389503e-02 -0.0000000e+00 
-0.0000000e+00 5.3988278e-02 -0.0000000e+00 
-0.0000000e+00 -1.8621653e-01 -0.0000000e+00 
-0.0000000e+00 1.2416781e-01 -0.0000000e+00 
-0.0000000e+00 -1.8189894e-12 -0.0000000e+00 
-0.0000000e+00 1.8189894e-12 -0.0000000e+00 
-0.0000000e+00 -1.8189894e-12 -0.0000000e+00 
-0.0000000e+00 1.8189894e-12 -0.0000000e+00 
-0.0000000e+00 -0.0000000e+00 -0.0000000e+00 
-0.0000000e+00 -0.0000000e+00 -0.0000000e+00 
-0.0000000e+00 -1.2093382e-01 -0.0000000e+00 
-0.0000000e+00 2.3822601e-01 -0.0000000e+00 
-0.0000000e+00 -7.2220512e-02 -0.0000000e+00 
-0.0000000e+00 -5.4778609e-02 -0.0000000e+00 
-0.0000000e+00 1.6793093e-02 -0.0000000e+00 
-0.0000000e+00 1.0129559e-02 -0.0000000e+00 
-0.0000000e+00 -5.2800537e-03 -0.0000000e+00 
-0.0000000e+00 6.5626176e-03 -0.0000000e+00 
-0.0000000e+00 1.3285704e-02 -0.0000000e+00 
-0.0000000e+00 -4.1389503e-02 -0.0000000e+00 
-0.0000000e+00 -5.3988278e-02 -0.0000000e+00 
-0.0000000e+00 1.8621653e-01 -0.0000000e+00 
-0.0000000e+00 -1.2416781e-01 -0.0000000e+00 
VOLUME_ACCELERATION 3 32  float
0.0000000e+00 0.0000000e+00 -9.8100004e+00 
0.0000000e+00 0.0000000e+00 -9.8100004e+00 
0.0000000e+00 0.0000000e+00 -9.8100004e+00 
0.0000000e+00 0.0000000e+00 -9.8100004e+00 
0.0000000e+00 0.0000000e+00 -9.8100004e+00 
0.0000000e+00 0.0000000e+00 -9.8100004e+00 
0.0000000e+00 0.0000000e+00 -9.8100004e+00 
0.0000000e+00 0.0000000e+00 -9.8100004e+00 
0.0000000e+00 0.0000000e+00 -9.8100004e+00 
0.0000000e+00 0.0000000e+00 -9.8100004e+00 
0.0000000e+00 0.0000000e+00 -9.8100004e+00 
0.0000000e+00 0.0000000e+00 -9.8100004e+00 
0.0000000e+00 0.0000000e+00 -9.8100004e+00 
0.0000000e+00 0.0000000e+00 -9.8100004e+00 
0.0000000e+00 0.0000000e+00 -9.8100004e+00 
0.0000000e+00 0.0000000e+00 -9.8100004e+00 
0.0000000e+00 0.0000000e+00 -9.8100004e+00 
0.0000000e+00 0.0000000e+00 -9.8100004e+00 
0.0000000e+00 0.0000000e+00 -9.8100004e+00 
0.0000000e+00 0.0000000e+00 -9.8100004e+00 
0.0000000e+00 0.0000000e+00 -9.8100004e+00 
0.0000000e+00 0.0000000e+00 -9.8100004e+00 
0.0000000e+00 0.0000000e+00 -9.8100004e+00 
0.0000000e+00 0.0000000e+00 -9.8100004e+00 
0.0000000e+00 0.0000000e+00 -9.8100004e+00 
0.0000000e+00 0.0000000e+00 -9.8100004e+00 
0.0000000e+00 0.0000000e+00 -9.8100004e+00 
0.0000000e+00 0.0000000e+00 -9.8100004e+00 
0.0000000e+00 0.0000000e+00 -9.8100004e+00 
0.0000000e+00 0.0000000e+00 -9.8100004e+00 
0.0000000e+00 0.0000000e+00 -9.8100004e+00 
0.0000000e+00 0.0000000e+00 -9.8100004e+00 
LINE_LOAD 3 32  float
0.0000000e+00 0.0000000e+00 0.0000000e+00 
0.0000000e+00 0.0000000e+00 0.0000000e+00 
0.0000000e+00 0.0000000e+00 -4.2229706e+01 
0.0000000e+00 0.0000000e+00 0.0000000e+00 
0.0000000e+00 0.0000000e+00 -4.2229706e+01 
0.0000000e+00 0.0000000e+00 0.0000000e+00 
0.0000000e+00 0.0000000e+00 -4.2229706e+01 
0.0000000e+00 0.0000000e+00 0.0000000e+00 
0.0000000e+00 0.0000000e+00 -4.2229706e+01 
0.0000000e+00 0.0000000e+00 0.0000000e+00 
0.0000000e+00 0.0000000e+00 -4.2229706e+01 
0.0000000e+00 0.0000000e+00 0.0000000e+00 
0.0000000e+00 0.0000000e+00 -4.2229706e+01 
0.0000000e+00 0.0000000e+00 -4.2229706e+01 
0.0000000e+00 0.0000000e+00 -4.2229706e+01 
0.0000000e+00 0.0000000e+00 -4.2229706e+01 
0.0000000e+00 0.0000000e+00 -4.2229706e+01 
0.0000000e+00 0.0000000e+00 -4.2229706e+01 
0.0000000e+00 0.0000000e+00 -4.2229706e+01 
0.0000000e+00 0.0000000e+00 0.0000000e+00 
0.0000000e+00 0.0000000e+00 0.0000000e+00 
0.0000000e+00 0.0000000e+00 -4.2229706e+01 
0.0000000e+00 0.0000000e+00 0.0000000e+00 
0.0000000e+00 0.0000000e+00 -4.2229706e+01 
0.0000000e+00 0.0000000e+00 0.0000000e+00 
0.0000000e+00 0.0000000e+00 -4.2229706e+01 
0.0000000e+00 0.0000000e+00 0.0000000e+00 
0.0000000e+00 0.0000000e+00 -4.2229706e+01 
0.0000000e+00 0.0000000e+00 0.0000000e+00 
0.0000000e+00 0.0000000e+00 -4.2229706e+01 
0.0000000e+00 0.0000000e+00 0.0000000e+00 
0.0000000e+00 0.0000000e+00 -4.2229706e+01 
POINT_LOAD 3 32  float
0.0000000e+00 0.0000000e+00 0.0000000e+00 
0.0000000e+00 0.0000000e+00 0.0000000e+00 
0.0000000e+00 0.0000000e+00 0.0000000e+00 
0.0000000e+00 0.0000000e+00 0.0000000e+00 
0.0000000e+00 0.0000000e+00 0.0000000e+00 
0.0000000e+00 0.0000000e+00 0.0000000e+00 
0.0000000e+00 0.0000000e+00 0.0000000e+00 
0.0000000e+00 0.0000000e+00 0.0000000e+00 
0.0000000e+00 0.0000000e+00 0.0000000e+00 
0.0000000e+00 0.0000000e+00 0.0000000e+00 
0.0000000e+00 0.0000000e+00 0.0000000e+00 
0.0000000e+00 0.0000000e+00 0.0000000e+00 
0.0000000e+00 0.0000000e+00 0.0000000e+00 
0.0000000e+00 0.0000000e+00 0.0000000e+00 
0.0000000e+00 0.0000000e+00 0.0000000e+00 
0.0000000e+00 0.0000000e+00 0.0000000e+00 
0.0000000e+00 0.0000000e+00 0.0000000e+00 
0.0000000e+00 0.0000000e+00 0.0000000e+00 
0.0000000e+00 0.0000000e+00 0.0000000e+00 
0.0000000e+00 0.0000000e+00 0.0000000e+00 
0.0000000e+00 0.0000000e+00 0.0000000e+00 
0.0000000e+00 0.0000000e+00 0.0000000e+00 
0.0000000e+00 0.0000000e+00 0.0000000e+00 
0.0000000e+00 0.0000000e+00 0.0000000e+00 
0.0000000e+00 0.0000000e+00 0.0000000e+00 
0.0000000e+00 0.0000000e+00 0.0000000e+00 
0.0000000e+00 0.0000000e+00 0.0000000e+00 
0.0000000e+00 0.0000000e+00 0.0000000e+00 
0.0000000e+00 0.0000000e+00 0.0000000e+00 
0.0000000e+00 0.0000000e+00 0.0000000e+00 
0.0000000e+00 0.0000000e+00 0.0000000e+00 
0.0000000e+00 0.0000000e+00 0.0000000e+00 
POINT_MOMENT 3 32  float
0.0000000e+00 0.0000000e+00 0.0000000e+00 
0.0000000e+00 0.0000000e+00 0.0000000e+00 
0.0000000e+00 0.0000000e+00 0.0000000e+00 
0.0000000e+00 0.0000000e+00 0.0000000e+00 
0.0000000e+00 0.0000000e+00 0.0000000e+00 
0.0000000e+00 0.0000000e+00 0.0000000e+00 
0.0000000e+00 0.0000000e+00 0.0000000e+00 
0.0000000e+00 0.0000000e+00 0.0000000e+00 
0.0000000e+00 0.0000000e+00 0.0000000e+00 
0.0000000e+00 0.0000000e+00 0.0000000e+00 
0.0000000e+00 0.0000000e+00 0.0000000e+00 
0.0000000e+00 0.0000000e+00 0.0000000e+00 
0.0000000e+00 0.0000000e+00 0.0000000e+00 
0.0000000e+00 0.0000000e+00 0.0000000e+00 
0.0000000e+00 0.0000000e+00 0.0000000e+00 
0.0000000e+00 0.0000000e+00 0.0000000e+00 
0.0000000e+00 0.0000000e+00 0.0000000e+00 
0.0000000e+00 0.0000000e+00 0.0000000e+00 
0.0000000e+00 0.0000000e+00 0.0000000e+00 
0.0000000e+00 0.0000000e+00 0.0000000e+00 
0.0000000e+00 0.0000000e+00 0.0000000e+00 
0.0000000e+00 0.0000000e+00 0.0000000e+00 
0.0000000e+00 0.0000000e+00 0.0000000e+00 
0.0000000e+00 0.0000000e+00 0.0000000e+00 
0.0000000e+00 0.0000000e+00 0.0000000e+00 
0.0000000e+00 0.0000000e+00 0.0000000e+00 
0.0000000e+00 0.0000000e+00 0.0000000e+00 
0.0000000e+00 0.0000000e+00 0.0000000e+00 
0.0000000e+00 0.0000000e+00 0.0000000e+00 
0.0000000e+00 0.0000000e+00 0.0000000e+00 
0.0000000e+00 0.0000000e+00 0.0000000e+00 
0.0000000e+00 0.0000000e+00 0.0000000e+00 
CELL_DATA 36
FIELD FieldData 9
YOUNG_MODULUS 1 36  float
1.9998421e+10
1.9998421e+10
1.9998421e+10
1.9998421e+10
1.9998421e+10
1.9998421e+10
1.9998421e+10
1.9998421e+10
1.9998421e+10
1.9998421e+10
1.9998421e+10
1.9998421e+10
1.9998421e+10
1.9998421e+10
1.9998421e+10
1.9998421e+10
1.9998421e+10
1.9998421e+10
1.9998421e+10
1.9998421e+10
1.9998421e+10
1.9998421e+10
1.9998421e+10
1.9998421e+10
1.9998421e+10
1.9998421e+10
1.9998421e+10
1.9998421e+10
1.9998421e+10
1.9998421e+10
1.9998421e+10
1.9998421e+10
1.9998421e+10
1.9998421e+10
1.9998421e+10
1.9998421e+10
DENSITY 1 36  float
7.8500000e+03
7.8500000e+03
7.8500000e+03
7.8500000e+03
7.8500000e+03
7.8500000e+03
7.8500000e+03
7.8500000e+03
7.8500000e+03
7.8500000e+03
7.8500000e+03
7.8500000e+03
7.8500000e+03
7.8500000e+03
7.8500000e+03
7.8500000e+03
7.8500000e+03
7.8500000e+03
7.8500000e+03
7.8500000e+03
7.8500000e+03
7.8500000e+03
7.8500000e+03
7.8500000e+03
7.8500000e+03
7.8500000e+03
7.8500000e+03
7.8500000e+03
7.8500000e+03
7.8500000e+03
7.8500000e+03
7.8500000e+03
7.8500000e+03
7.8500000e+03
7.8500000e+03
7.8500000e+03
CROSS_AREA 1 36  float
4.4193458e-02
4.4193458e-02
4.4193458e-02
4.4193458e-02
4.4193458e-02
4.4193458e-02
4.4193458e-02
4.4193458e-02
4.4193458e-02
4.4193458e-02
4.4193458e-02
4.4193458e-02
4.4193458e-02
4.4193458e-02
4.4193458e-02
4.4193458e-02
4.4193458e-02
4.4193458e-02
4.4193458e-02
4.4193458e-02
4.4193458e-02
4.4193458e-02
4.4193458e-02
4.4193458e-02
4.4193458e-02
4.4193458e-02
4.4193458e-02
4.4193458e-02
4.4193458e-02
4.4193458e-02
4.4193458e-02
4.4193458e-02
4.4193458e-02
4.4193458e-02
4.4193458e-02
4.4193458e-02
I22 1 36  float
3.3650247e-04
3.3650247e-04
3.3650247e-04
3.3650247e-04
3.3650247e-04
3.3650247e-04
3.3650247e-04
3.3650247e-04
3.3650247e-04
3.3650247e-04
3.3650247e-04
3.3650247e-04
3.3650247e-04
3.3650247e-04
3.3650247e-04
3.3650247e-04
3.3650247e-04
3.3650247e-04
3.3650247e-04
3.3650247e-04
3.3650247e-04
3.3650247e-04
3.3650247e-04
3.3650247e-04
3.3650247e-04
3.3650247e-04
3.3650247e-04
3.3650247e-04
3.3650247e-04
3.3650247e-04
3.3650247e-04
3.3650247e-04
3.3650247e-04
3.3650247e-04
3.3650247e-04
3.3650247e-04
I33 1 36  float
9.9999997e-06
9.9999997e-06
9.9999997e-06
9.9999997e-06
9.9999997e-06
9.9999997e-06
9.9999997e-06
9.9999997e-06
9.9999997e-06
9.9999997e-06
9.9999997e-06
9.9999997e-06
9.9999997e-06
9.9999997e-06
9.9999997e-06
9.9999997e-06
9.9999997e-06
9.9999997e-06
9.9999997e-06
9.9999997e-06
9.9999997e-06
9.9999997e-06
9.9999997e-06
9.9999997e-06
9.9999997e-06
9.9999997e-06
9.9999997e-06
9.9999997e-06
9.9999997e-06
9.9999997e-06
9.9999997e-06
9.9999997e-06
9.9999997e-06
9.9999997e-06
9.9999997e-06
9.9999997e-06
TORSIONAL_INERTIA 1 36  float
5.2234659e-06
5.2234659e-06
5.2234659e-06
5.2234659e-06
5.2234659e-06
5.2234659e-06
5.2234659e-06
5.2234659e-06
5.2234659e-06
5.2234659e-06
5.2234659e-06
5.2234659e-06
5.2234659e-06
5.2234659e-06
5.2234659e-06
5.2234659e-06
5.2234659e-06
5.2234659e-06
5.2234659e-06
5.2234659e-06
5.2234659e-06
5.2234659e-06
5.2234659e-06
5.2234659e-06
5.2234659e-06
5.2234659e-06
5.2234659e-06
5.2234659e-06
5.2234659e-06
5.2234659e-06
5.2234659e-06
5.2234659e-06
5.2234659e-06
5.2234659e-06
5.2234659e-06
5.2234659e-06
POISSON_RATIO 1 36  float
3.0000001e-01
3.0000001e-01
3.0000001e-01
3.0000001e-01
3.0000001e-01
3.0000001e-01
3.0000001e-01
3.0000001e-01
3.0000001e-01
3.0000001e-01
3.0000001e-01
3.0000001e-01
3.0000001e-01
3.0000001e-01
3.0000001e-01
3.0000001e-01
3.0000001e-01
3.0000001e-01
3.0000001e-01
3.0000001e-01
3.0000001e-01
3.0000001e-01
3.0000001e-01
3.0000001e-01
3.0000001e-01
3.0000001e-01
3.0000001e-01
3.0000001e-01
3.0000001e-01
3.0000001e-01
3.0000001e-01
3.0000001e-01
3.0000001e-01
3.0000001e-01
3.0000001e-01
3.0000001e-01
MOMENT 3 36  float
0.0000000e+00 8.3755255e+02 0.0000000e+00 
0.0000000e+00 2.5126577e+03 0.0000000e+00 
0.0000000e+00 -3.1147297e+03 0.0000000e+00 
0.0000000e+00 2.3443872e+03 0.0000000e+00 
0.0000000e+00 -2.2172502e+03 0.0000000e+00 
0.0000000e+00 2.3596973e+03 0.0000000e+00 
0.0000000e+00 -2.4070664e+03 0.0000000e+00 
0.0000000e+00 2.4993508e+03 0.0000000e+00 
0.0000000e+00 -2.4003755e+03 0.0000000e+00 
0.0000000e+00 1.8183625e+03 0.0000000e+00 
0.0000000e+00 -2.2581675e+03 0.0000000e+00 
0.0000000e+00 4.8766553e+03 0.0000000e+00 
0.0000000e+00 -8.3755255e+02 0.0000000e+00 
0.0000000e+00 -2.5126577e+03 0.0000000e+00 
0.0000000e+00 3.1147297e+03 0.0000000e+00 
0.0000000e+00 -2.3443872e+03 0.0000000e+00 
0.0000000e+00 2.2172502e+03 0.0000000e+00 
0.0000000e+00 -2.3596973e+03 0.0000000e+00 
0.0000000e+00 2.4070664e+03 0.0000000e+00 
0.0000000e+00 -2.4993508e+03 0.0000000e+00 
0.0000000e+00 2.4003755e+03 0.0000000e+00 
0.0000000e+00 -1.8183625e+03 0.0000000e+00 
0.0000000e+00 2.2581675e+03 0.0000000e+00 
0.0000000e+00 -4.8766553e+03 0.0000000e+00 
0.0000000e+00 -1.1103340e+03 0.0000000e+00 
0.0000000e+00 -1.1103340e+03 0.0000000e+00 
0.0000000e+00 -7.2516266e+02 0.0000000e+00 
0.0000000e+00 -7.2516266e+02 0.0000000e+00 
0.0000000e+00 -7.9638617e+02 0.0000000e+00 
0.0000000e+00 -7.9638617e+02 0.0000000e+00 
0.0000000e+00 -8.4252838e+02 0.0000000e+00 
0.0000000e+00 -8.4252838e+02 0.0000000e+00 
0.0000000e+00 -5.5152197e+02 0.0000000e+00 
0.0000000e+00 -5.5152197e+02 0.0000000e+00 
0.0000000e+00 -1.8607659e+03 0.0000000e+00 
0.0000000e+00 -1.8607659e+03 0.0000000e+00 
FORCE 3 36  float
-1.2072547e+05 0.0000000e+00 1.1167367e+03 
-1.1562056e+05 0.0000000e+00 1.1167367e+03 
-1.0017915e+05 0.0000000e+00 3.6394111e+03 
-9.5074242e+04 0.0000000e+00 3.6394111e+03 
-7.9632828e+04 0.0000000e+00 3.0512983e+03 
-7.4527922e+04 0.0000000e+00 3.0512983e+03 
-5.9086508e+04 0.0000000e+00 3.2709448e+03 
-5.3981598e+04 0.0000000e+00 3.2709448e+03 
-3.8540188e+04 0.0000000e+00 2.8124919e+03 
-3.3435277e+04 0.0000000e+00 2.8124919e+03 
-1.7993867e+04 0.0000000e+00 4.7565483e+03 
-1.2888959e+04 0.0000000e+00 4.7565483e+03 
-1.2072547e+05 0.0000000e+00 -1.1167367e+03 
-1.1562056e+05 0.0000000e+00 -1.1167367e+03 
-1.0017915e+05 0.0000000e+00 -3.6394111e+03 
-9.5074242e+04 0.0000000e+00 -3.6394111e+03 
-7.9632828e+04 0.0000000e+00 -3.0512983e+03 
-7.4527922e+04 0.0000000e+00 -3.0512983e+03 
-5.9086508e+04 0.0000000e+00 -3.2709448e+03 
-5.3981598e+04 0.0000000e+00 -3.2709448e+03 
-3.8540188e+04 0.0000000e+00 -2.8124919e+03 
-3.3435277e+04 0.0000000e+00 -2.8124919e+03 
-1.7993867e+04 0.0000000e+00 -4.7565483e+03 
-1.2888959e+04 0.0000000e+00 -4.7565483e+03 
2.5226746e+03 0.0000000e+00 -5.1682524e+03 
2.5226746e+03 0.0000000e+00 5.1682524e+03 
-5.8811285e+02 0.0000000e+00 -5.1682524e+03 
-5.8811285e+02 0.0000000e+00 5.1682524e+03 
2.1964644e+02 0.0000000e+00 -5.1682524e+03 
2.1964644e+02 0.0000000e+00 5.1682524e+03 
-4.5845282e+02 0.0000000e+00 -5.1682524e+03 
-4.5845282e+02 0.0000000e+00 5.1682524e+03 
1.9440564e+03 0.0000000e+00 -5.1682524e+03 
1.9440564e+03 0.0000000e+00 5.1682524e+03 
-4.7565483e+03 0.0000000e+00 -5.1682524e+03 
-4.7565483e+03 0.0000000e+00 5.1682524e+03 
