# vtk DataFile Version 4.0
vtk output
ASCII
DATASET UNSTRUCTURED_GRID
POINTS 212 float
0.0000000e+00 0.0000000e+00 0.0000000e+00 
0.0000000e+00 0.0000000e+00 2.5000000e-01 
0.0000000e+00 0.0000000e+00 5.0000000e-01 
0.0000000e+00 0.0000000e+00 7.5000000e-01 
0.0000000e+00 0.0000000e+00 1.0000000e+00 
0.0000000e+00 0.0000000e+00 1.2500000e+00 
0.0000000e+00 0.0000000e+00 1.5000000e+00 
0.0000000e+00 0.0000000e+00 1.7500000e+00 
0.0000000e+00 0.0000000e+00 2.0000000e+00 
0.0000000e+00 0.0000000e+00 2.2500000e+00 
0.0000000e+00 0.0000000e+00 2.5000000e+00 
0.0000000e+00 0.0000000e+00 2.7500000e+00 
0.0000000e+00 0.0000000e+00 3.0000000e+00 
0.0000000e+00 0.0000000e+00 3.2500000e+00 
0.0000000e+00 0.0000000e+00 3.5000000e+00 
0.0000000e+00 0.0000000e+00 3.7500000e+00 
0.0000000e+00 0.0000000e+00 4.0000000e+00 
0.0000000e+00 0.0000000e+00 4.2500000e+00 
0.0000000e+00 0.0000000e+00 4.5000000e+00 
0.0000000e+00 0.0000000e+00 4.7500000e+00 
0.0000000e+00 0.0000000e+00 5.0000000e+00 
0.0000000e+00 0.0000000e+00 5.2500000e+00 
0.0000000e+00 0.0000000e+00 5.5000000e+00 
0.0000000e+00 0.0000000e+00 5.7500000e+00 
0.0000000e+00 0.0000000e+00 6.0000000e+00 
0.0000000e+00 0.0000000e+00 6.2500000e+00 
0.0000000e+00 0.0000000e+00 6.5000000e+00 
0.0000000e+00 0.0000000e+00 6.7500000e+00 
0.0000000e+00 0.0000000e+00 7.0000000e+00 
0.0000000e+00 0.0000000e+00 7.2500000e+00 
0.0000000e+00 0.0000000e+00 7.5000000e+00 
0.0000000e+00 0.0000000e+00 7.7500000e+00 
0.0000000e+00 0.0000000e+00 8.0000000e+00 
0.0000000e+00 0.0000000e+00 8.2500000e+00 
0.0000000e+00 0.0000000e+00 8.5000000e+00 
0.0000000e+00 0.0000000e+00 8.7500000e+00 
0.0000000e+00 0.0000000e+00 9.0000000e+00 
0.0000000e+00 0.0000000e+00 9.2500000e+00 
0.0000000e+00 0.0000000e+00 9.5000000e+00 
0.0000000e+00 0.0000000e+00 9.7500000e+00 
0.0000000e+00 0.0000000e+00 1.0000000e+01 
0.0000000e+00 0.0000000e+00 1.0250000e+01 
0.0000000e+00 0.0000000e+00 1.0500000e+01 
0.0000000e+00 0.0000000e+00 1.0750000e+01 
0.0000000e+00 0.0000000e+00 1.1000000e+01 
0.0000000e+00 0.0000000e+00 1.1250000e+01 
0.0000000e+00 0.0000000e+00 1.1500000e+01 
0.0000000e+00 0.0000000e+00 1.1750000e+01 
0.0000000e+00 0.0000000e+00 1.2000000e+01 
0.0000000e+00 0.0000000e+00 1.2250000e+01 
0.0000000e+00 0.0000000e+00 1.2500000e+01 
0.0000000e+00 0.0000000e+00 1.2750000e+01 
0.0000000e+00 0.0000000e+00 1.3000000e+01 
0.0000000e+00 0.0000000e+00 1.3250000e+01 
0.0000000e+00 0.0000000e+00 1.3500000e+01 
0.0000000e+00 0.0000000e+00 1.3750000e+01 
0.0000000e+00 0.0000000e+00 1.4000000e+01 
0.0000000e+00 0.0000000e+00 1.4250000e+01 
0.0000000e+00 0.0000000e+00 1.4500000e+01 
0.0000000e+00 0.0000000e+00 1.4750000e+01 
0.0000000e+00 0.0000000e+00 1.5000000e+01 
0.0000000e+00 0.0000000e+00 1.5250000e+01 
0.0000000e+00 0.0000000e+00 1.5500000e+01 
0.0000000e+00 0.0000000e+00 1.5750000e+01 
0.0000000e+00 0.0000000e+00 1.6000000e+01 
0.0000000e+00 0.0000000e+00 1.6250000e+01 
0.0000000e+00 0.0000000e+00 1.6500000e+01 
0.0000000e+00 0.0000000e+00 1.6750000e+01 
0.0000000e+00 0.0000000e+00 1.7000000e+01 
0.0000000e+00 0.0000000e+00 1.7250000e+01 
0.0000000e+00 0.0000000e+00 1.7500000e+01 
0.0000000e+00 0.0000000e+00 1.7750000e+01 
0.0000000e+00 0.0000000e+00 1.8000000e+01 
5.0000000e-01 0.0000000e+00 3.0000000e+00 
5.0000000e-01 0.0000000e+00 6.0000000e+00 
5.0000000e-01 0.0000000e+00 9.0000000e+00 
5.0000000e-01 0.0000000e+00 1.2000000e+01 
5.0000000e-01 0.0000000e+00 1.5000000e+01 
5.0000000e-01 0.0000000e+00 1.8000000e+01 
1.0000000e+00 0.0000000e+00 3.0000000e+00 
1.0000000e+00 0.0000000e+00 6.0000000e+00 
1.0000000e+00 0.0000000e+00 9.0000000e+00 
1.0000000e+00 0.0000000e+00 1.2000000e+01 
1.0000000e+00 0.0000000e+00 1.5000000e+01 
1.0000000e+00 0.0000000e+00 1.8000000e+01 
1.5000000e+00 0.0000000e+00 3.0000000e+00 
1.5000000e+00 0.0000000e+00 6.0000000e+00 
1.5000000e+00 0.0000000e+00 9.0000000e+00 
1.5000000e+00 0.0000000e+00 1.2000000e+01 
1.5000000e+00 0.0000000e+00 1.5000000e+01 
1.5000000e+00 0.0000000e+00 1.8000000e+01 
2.0000000e+00 0.0000000e+00 3.0000000e+00 
2.0000000e+00 0.0000000e+00 6.0000000e+00 
2.0000000e+00 0.0000000e+00 9.0000000e+00 
2.0000000e+00 0.0000000e+00 1.2000000e+01 
2.0000000e+00 0.0000000e+00 1.5000000e+01 
2.0000000e+00 0.0000000e+00 1.8000000e+01 
2.5000000e+00 0.0000000e+00 3.0000000e+00 
2.5000000e+00 0.0000000e+00 6.0000000e+00 
2.5000000e+00 0.0000000e+00 9.0000000e+00 
2.5000000e+00 0.0000000e+00 1.2000000e+01 
2.5000000e+00 0.0000000e+00 1.5000000e+01 
2.5000000e+00 0.0000000e+00 1.8000000e+01 
3.0000000e+00 0.0000000e+00 3.0000000e+00 
3.0000000e+00 0.0000000e+00 6.0000000e+00 
3.0000000e+00 0.0000000e+00 9.0000000e+00 
3.0000000e+00 0.0000000e+00 1.2000000e+01 
3.0000000e+00 0.0000000e+00 1.5000000e+01 
3.0000000e+00 0.0000000e+00 1.8000000e+01 
3.5000000e+00 0.0000000e+00 3.0000000e+00 
3.5000000e+00 0.0000000e+00 6.0000000e+00 
3.5000000e+00 0.0000000e+00 9.0000000e+00 
3.5000000e+00 0.0000000e+00 1.2000000e+01 
3.5000000e+00 0.0000000e+00 1.5000000e+01 
3.5000000e+00 0.0000000e+00 1.8000000e+01 
4.0000000e+00 0.0000000e+00 3.0000000e+00 
4.0000000e+00 0.0000000e+00 6.0000000e+00 
4.0000000e+00 0.0000000e+00 9.0000000e+00 
4.0000000e+00 0.0000000e+00 1.2000000e+01 
4.0000000e+00 0.0000000e+00 1.5000000e+01 
4.0000000e+00 0.0000000e+00 1.8000000e+01 
4.5000000e+00 0.0000000e+00 3.0000000e+00 
4.5000000e+00 0.0000000e+00 6.0000000e+00 
4.5000000e+00 0.0000000e+00 9.0000000e+00 
4.5000000e+00 0.0000000e+00 1.2000000e+01 
4.5000000e+00 0.0000000e+00 1.5000000e+01 
4.5000000e+00 0.0000000e+00 1.8000000e+01 
5.0000000e+00 0.0000000e+00 3.0000000e+00 
5.0000000e+00 0.0000000e+00 6.0000000e+00 
5.0000000e+00 0.0000000e+00 9.0000000e+00 
5.0000000e+00 0.0000000e+00 1.2000000e+01 
5.0000000e+00 0.0000000e+00 1.5000000e+01 
5.0000000e+00 0.0000000e+00 1.8000000e+01 
5.5000000e+00 0.0000000e+00 3.0000000e+00 
5.5000000e+00 0.0000000e+00 6.0000000e+00 
5.5000000e+00 0.0000000e+00 9.0000000e+00 
5.5000000e+00 0.0000000e+00 1.2000000e+01 
5.5000000e+00 0.0000000e+00 1.5000000e+01 
5.5000000e+00 0.0000000e+00 1.8000000e+01 
6.0000000e+00 0.0000000e+00 0.0000000e+00 
6.0000000e+00 0.0000000e+00 2.5000000e-01 
6.0000000e+00 0.0000000e+00 5.0000000e-01 
6.0000000e+00 0.0000000e+00 7.5000000e-01 
6.0000000e+00 0.0000000e+00 1.0000000e+00 
6.0000000e+00 0.0000000e+00 1.2500000e+00 
6.0000000e+00 0.0000000e+00 1.5000000e+00 
6.0000000e+00 0.0000000e+00 1.7500000e+00 
6.0000000e+00 0.0000000e+00 2.0000000e+00 
6.0000000e+00 0.0000000e+00 2.2500000e+00 
6.0000000e+00 0.0000000e+00 2.5000000e+00 
6.0000000e+00 0.0000000e+00 2.7500000e+00 
6.0000000e+00 0.0000000e+00 3.0000000e+00 
6.0000000e+00 0.0000000e+00 3.2500000e+00 
6.0000000e+00 0.0000000e+00 3.5000000e+00 
6.0000000e+00 0.0000000e+00 3.7500000e+00 
6.0000000e+00 0.0000000e+00 4.0000000e+00 
6.0000000e+00 0.0000000e+00 4.2500000e+00 
6.0000000e+00 0.0000000e+00 4.5000000e+00 
6.0000000e+00 0.0000000e+00 4.7500000e+00 
6.0000000e+00 0.0000000e+00 5.0000000e+00 
6.0000000e+00 0.0000000e+00 5.2500000e+00 
6.0000000e+00 0.0000000e+00 5.5000000e+00 
6.0000000e+00 0.0000000e+00 5.7500000e+00 
6.0000000e+00 0.0000000e+00 6.0000000e+00 
6.0000000e+00 0.0000000e+00 6.2500000e+00 
6.0000000e+00 0.0000000e+00 6.5000000e+00 
6.0000000e+00 0.0000000e+00 6.7500000e+00 
6.0000000e+00 0.0000000e+00 7.0000000e+00 
6.0000000e+00 0.0000000e+00 7.2500000e+00 
6.0000000e+00 0.0000000e+00 7.5000000e+00 
6.0000000e+00 0.0000000e+00 7.7500000e+00 
6.0000000e+00 0.0000000e+00 8.0000000e+00 
6.0000000e+00 0.0000000e+00 8.2500000e+00 
6.0000000e+00 0.0000000e+00 8.5000000e+00 
6.0000000e+00 0.0000000e+00 8.7500000e+00 
6.0000000e+00 0.0000000e+00 9.0000000e+00 
6.0000000e+00 0.0000000e+00 9.2500000e+00 
6.0000000e+00 0.0000000e+00 9.5000000e+00 
6.0000000e+00 0.0000000e+00 9.7500000e+00 
6.0000000e+00 0.0000000e+00 1.0000000e+01 
6.0000000e+00 0.0000000e+00 1.0250000e+01 
6.0000000e+00 0.0000000e+00 1.0500000e+01 
6.0000000e+00 0.0000000e+00 1.0750000e+01 
6.0000000e+00 0.0000000e+00 1.1000000e+01 
6.0000000e+00 0.0000000e+00 1.1250000e+01 
6.0000000e+00 0.0000000e+00 1.1500000e+01 
6.0000000e+00 0.0000000e+00 1.1750000e+01 
6.0000000e+00 0.0000000e+00 1.2000000e+01 
6.0000000e+00 0.0000000e+00 1.2250000e+01 
6.0000000e+00 0.0000000e+00 1.2500000e+01 
6.0000000e+00 0.0000000e+00 1.2750000e+01 
6.0000000e+00 0.0000000e+00 1.3000000e+01 
6.0000000e+00 0.0000000e+00 1.3250000e+01 
6.0000000e+00 0.0000000e+00 1.3500000e+01 
6.0000000e+00 0.0000000e+00 1.3750000e+01 
6.0000000e+00 0.0000000e+00 1.4000000e+01 
6.0000000e+00 0.0000000e+00 1.4250000e+01 
6.0000000e+00 0.0000000e+00 1.4500000e+01 
6.0000000e+00 0.0000000e+00 1.4750000e+01 
6.0000000e+00 0.0000000e+00 1.5000000e+01 
6.0000000e+00 0.0000000e+00 1.5250000e+01 
6.0000000e+00 0.0000000e+00 1.5500000e+01 
6.0000000e+00 0.0000000e+00 1.5750000e+01 
6.0000000e+00 0.0000000e+00 1.6000000e+01 
6.0000000e+00 0.0000000e+00 1.6250000e+01 
6.0000000e+00 0.0000000e+00 1.6500000e+01 
6.0000000e+00 0.0000000e+00 1.6750000e+01 
6.0000000e+00 0.0000000e+00 1.7000000e+01 
6.0000000e+00 0.0000000e+00 1.7250000e+01 
6.0000000e+00 0.0000000e+00 1.7500000e+01 
6.0000000e+00 0.0000000e+00 1.7750000e+01 
6.0000000e+00 0.0000000e+00 1.8000000e+01 

CELLS 216 648
2 0 1
2 1 2
2 2 3
2 3 4
2 4 5
2 5 6
2 6 7
2 7 8
2 8 9
2 9 10
2 10 11
2 11 12
2 12 13
2 13 14
2 14 15
2 15 16
2 16 17
2 17 18
2 18 19
2 19 20
2 20 21
2 21 22
2 22 23
2 23 24
2 24 25
2 25 26
2 26 27
2 27 28
2 28 29
2 29 30
2 30 31
2 31 32
2 32 33
2 33 34
2 34 35
2 35 36
2 36 37
2 37 38
2 38 39
2 39 40
2 40 41
2 41 42
2 42 43
2 43 44
2 44 45
2 45 46
2 46 47
2 47 48
2 48 49
2 49 50
2 50 51
2 51 52
2 52 53
2 53 54
2 54 55
2 55 56
2 56 57
2 57 58
2 58 59
2 59 60
2 60 61
2 61 62
2 62 63
2 63 64
2 64 65
2 65 66
2 66 67
2 67 68
2 68 69
2 69 70
2 70 71
2 71 72
2 139 140
2 140 141
2 141 142
2 142 143
2 143 144
2 144 145
2 145 146
2 146 147
2 147 148
2 148 149
2 149 150
2 150 151
2 151 152
2 152 153
2 153 154
2 154 155
2 155 156
2 156 157
2 157 158
2 158 159
2 159 160
2 160 161
2 161 162
2 162 163
2 163 164
2 164 165
2 165 166
2 166 167
2 167 168
2 168 169
2 169 170
2 170 171
2 171 172
2 172 173
2 173 174
2 174 175
2 175 176
2 176 177
2 177 178
2 178 179
2 179 180
2 180 181
2 181 182
2 182 183
2 183 184
2 184 185
2 185 186
2 186 187
2 187 188
2 188 189
2 189 190
2 190 191
2 191 192
2 192 193
2 193 194
2 194 195
2 195 196
2 196 197
2 197 198
2 198 199
2 199 200
2 200 201
2 201 202
2 202 203
2 203 204
2 204 205
2 205 206
2 206 207
2 207 208
2 208 209
2 209 210
2 210 211
2 12 73
2 73 79
2 79 85
2 85 91
2 91 97
2 97 103
2 103 109
2 109 115
2 115 121
2 121 127
2 127 133
2 133 151
2 24 74
2 74 80
2 80 86
2 86 92
2 92 98
2 98 104
2 104 110
2 110 116
2 116 122
2 122 128
2 128 134
2 134 163
2 36 75
2 75 81
2 81 87
2 87 93
2 93 99
2 99 105
2 105 111
2 111 117
2 117 123
2 123 129
2 129 135
2 135 175
2 48 76
2 76 82
2 82 88
2 88 94
2 94 100
2 100 106
2 106 112
2 112 118
2 118 124
2 124 130
2 130 136
2 136 187
2 60 77
2 77 83
2 83 89
2 89 95
2 95 101
2 101 107
2 107 113
2 113 119
2 119 125
2 125 131
2 131 137
2 137 199
2 72 78
2 78 84
2 84 90
2 90 96
2 96 102
2 102 108
2 108 114
2 114 120
2 120 126
2 126 132
2 132 138
2 138 211

CELL_TYPES 216
3
3
3
3
3
3
3
3
3
3
3
3
3
3
3
3
3
3
3
3
3
3
3
3
3
3
3
3
3
3
3
3
3
3
3
3
3
3
3
3
3
3
3
3
3
3
3
3
3
3
3
3
3
3
3
3
3
3
3
3
3
3
3
3
3
3
3
3
3
3
3
3
3
3
3
3
3
3
3
3
3
3
3
3
3
3
3
3
3
3
3
3
3
3
3
3
3
3
3
3
3
3
3
3
3
3
3
3
3
3
3
3
3
3
3
3
3
3
3
3
3
3
3
3
3
3
3
3
3
3
3
3
3
3
3
3
3
3
3
3
3
3
3
3
3
3
3
3
3
3
3
3
3
3
3
3
3
3
3
3
3
3
3
3
3
3
3
3
3
3
3
3
3
3
3
3
3
3
3
3
3
3
3
3
3
3
3
3
3
3
3
3
3
3
3
3
3
3
3
3
3
3
3
3
3
3
3
3
3
3
3
3
3
3
3
3
POINT_DATA 212
FIELD FieldData 8
DISPLACEMENT 3 212  float
0.0000000e+00 0.0000000e+00 0.0000000e+00 
-5.1391660e-05 0.0000000e+00 -9.0921021e-06 
-1.0063498e-04 0.0000000e+00 -1.8121504e-05 
-1.4558161e-04 0.0000000e+00 -2.7088205e-05 
-1.8408321e-04 0.0000000e+00 -3.5992205e-05 
-2.1399144e-04 0.0000000e+00 -4.4833505e-05 
-2.3315795e-04 0.0000000e+00 -5.3612104e-05 
-2.3943439e-04 0.0000000e+00 -6.2328007e-05 
-2.3067243e-04 0.0000000e+00 -7.0981201e-05 
-2.0472374e-04 0.0000000e+00 -7.9571706e-05 
-1.5943994e-04 0.0000000e+00 -8.8099499e-05 
-9.2672701e-05 0.0000000e+00 -9.6564596e-05 
-2.2736908e-06 0.0000000e+00 -1.0496700e-04 
7.9144993e-05 0.0000000e+00 -1.1253852e-04 
1.2224968e-04 0.0000000e+00 -1.2004735e-04 
1.3410636e-04 0.0000000e+00 -1.2749348e-04 
1.2178106e-04 0.0000000e+00 -1.3487690e-04 
9.2339746e-05 0.0000000e+00 -1.4219762e-04 
5.2848445e-05 0.0000000e+00 -1.4945565e-04 
1.0373144e-05 0.0000000e+00 -1.5665097e-04 
-2.8020155e-05 0.0000000e+00 -1.6378360e-04 
-5.5265449e-05 0.0000000e+00 -1.7085353e-04 
-6.4296742e-05 0.0000000e+00 -1.7786074e-04 
-4.8048027e-05 0.0000000e+00 -1.8480526e-04 
5.4668897e-07 0.0000000e+00 -1.9168708e-04 
5.1284282e-05 0.0000000e+00 -1.9773805e-04 
7.3173353e-05 0.0000000e+00 -2.0372629e-04 
7.2097500e-05 0.0000000e+00 -2.0965184e-04 
5.3940312e-05 0.0000000e+00 -2.1551469e-04 
2.4585383e-05 0.0000000e+00 -2.2131484e-04 
-1.0083696e-05 0.0000000e+00 -2.2705230e-04 
-4.4183333e-05 0.0000000e+00 -2.3272703e-04 
-7.1829927e-05 0.0000000e+00 -2.3833908e-04 
-8.7139895e-05 0.0000000e+00 -2.4388844e-04 
-8.4229643e-05 0.0000000e+00 -2.4937509e-04 
-5.7215573e-05 0.0000000e+00 -2.5479903e-04 
-2.1409652e-07 0.0000000e+00 -2.6016028e-04 
5.5948221e-05 0.0000000e+00 -2.6469067e-04 
8.0753525e-05 0.0000000e+00 -2.6915834e-04 
8.0548452e-05 0.0000000e+00 -2.7356332e-04 
6.1679668e-05 0.0000000e+00 -2.7790558e-04 
3.0493820e-05 0.0000000e+00 -2.8218515e-04 
-6.6624398e-06 0.0000000e+00 -2.8640204e-04 
-4.3442462e-05 0.0000000e+00 -2.9055620e-04 
-7.3499592e-05 0.0000000e+00 -2.9464767e-04 
-9.0487170e-05 0.0000000e+00 -2.9867643e-04 
-8.8058565e-05 0.0000000e+00 -3.0264253e-04 
-5.9867103e-05 0.0000000e+00 -3.0654590e-04 
4.3385344e-07 0.0000000e+00 -3.1038656e-04 
6.2435356e-05 0.0000000e+00 -3.1339636e-04 
9.5102863e-05 0.0000000e+00 -3.1634347e-04 
1.0384467e-04 0.0000000e+00 -3.1922787e-04 
9.4069073e-05 0.0000000e+00 -3.2204957e-04 
7.1184360e-05 0.0000000e+00 -3.2480856e-04 
4.0598821e-05 0.0000000e+00 -3.2750485e-04 
7.7207460e-06 0.0000000e+00 -3.3013846e-04 
-2.2041571e-05 0.0000000e+00 -3.3270934e-04 
-4.3279841e-05 0.0000000e+00 -3.3521754e-04 
-5.0585772e-05 0.0000000e+00 -3.3766305e-04 
-3.8551072e-05 0.0000000e+00 -3.4004584e-04 
-1.7674512e-06 0.0000000e+00 -3.4236594e-04 
2.8065022e-05 0.0000000e+00 -3.4385515e-04 
2.1794765e-05 0.0000000e+00 -3.4528170e-04 
-1.1347191e-05 0.0000000e+00 -3.4664551e-04 
-6.2129824e-05 0.0000000e+00 -3.4794662e-04 
-1.2132210e-04 0.0000000e+00 -3.4918505e-04 
-1.7969300e-04 0.0000000e+00 -3.5036079e-04 
-2.2801150e-04 0.0000000e+00 -3.5147381e-04 
-2.5704657e-04 0.0000000e+00 -3.5252413e-04 
-2.5756718e-04 0.0000000e+00 -3.5351174e-04 
-2.2034231e-04 0.0000000e+00 -3.5443666e-04 
-1.3614094e-04 0.0000000e+00 -3.5529889e-04 
4.2679881e-06 0.0000000e+00 -3.5609840e-04 
-1.8947424e-06 0.0000000e+00 -4.2769659e-04 
4.5557414e-07 0.0000000e+00 -4.4876875e-04 
-1.7841377e-07 0.0000000e+00 -5.2976969e-04 
3.6154455e-07 0.0000000e+00 -5.8827328e-04 
-1.4728761e-06 0.0000000e+00 -5.6981691e-04 
3.5566568e-06 0.0000000e+00 -8.0470229e-04 
-1.5157939e-06 0.0000000e+00 -8.9112076e-04 
3.6445931e-07 0.0000000e+00 -8.5848098e-04 
-1.4273101e-07 0.0000000e+00 -9.4973191e-04 
2.8923563e-07 0.0000000e+00 -1.0150078e-03 
-1.1783009e-06 0.0000000e+00 -9.5528580e-04 
2.8453255e-06 0.0000000e+00 -1.3711145e-03 
-1.1368454e-06 0.0000000e+00 -1.3756159e-03 
2.7334448e-07 0.0000000e+00 -1.3012001e-03 
-1.0704826e-07 0.0000000e+00 -1.4004234e-03 
2.1692672e-07 0.0000000e+00 -1.4709666e-03 
-8.8372559e-07 0.0000000e+00 -1.3791490e-03 
2.1339940e-06 0.0000000e+00 -1.9357114e-03 
-7.5789694e-07 0.0000000e+00 -1.7881414e-03 
1.8222966e-07 0.0000000e+00 -1.6838857e-03 
-7.1365506e-08 0.0000000e+00 -1.7888033e-03 
1.4461781e-07 0.0000000e+00 -1.8631089e-03 
-5.8915043e-07 0.0000000e+00 -1.7483662e-03 
1.4226628e-06 0.0000000e+00 -2.4054525e-03 
-3.7894847e-07 0.0000000e+00 -2.0622397e-03 
9.1114828e-08 0.0000000e+00 -1.9400801e-03 
-3.5682749e-08 0.0000000e+00 -2.0484144e-03 
7.2308914e-08 0.0000000e+00 -2.1249773e-03 
-2.9457519e-07 0.0000000e+00 -1.9964795e-03 
7.1133138e-07 0.0000000e+00 -2.7138800e-03 
1.4244523e-15 0.0000000e+00 -2.1580365e-03 
2.3955072e-15 0.0000000e+00 -2.0299086e-03 
3.1391839e-15 0.0000000e+00 -2.1393818e-03 
3.8177346e-15 0.0000000e+00 -2.2166974e-03 
4.3962569e-15 0.0000000e+00 -2.0836142e-03 
4.7597915e-15 0.0000000e+00 -2.8211200e-03 
3.7894847e-07 0.0000000e+00 -2.0622397e-03 
-9.1114821e-08 0.0000000e+00 -1.9400801e-03 
3.5682756e-08 0.0000000e+00 -2.0484144e-03 
-7.2308900e-08 0.0000000e+00 -2.1249773e-03 
2.9457522e-07 0.0000000e+00 -1.9964795e-03 
-7.1133138e-07 0.0000000e+00 -2.7138800e-03 
7.5789694e-07 0.0000000e+00 -1.7881414e-03 
-1.8222966e-07 0.0000000e+00 -1.6838857e-03 
7.1365513e-08 0.0000000e+00 -1.7888033e-03 
-1.4461781e-07 0.0000000e+00 -1.8631089e-03 
5.8915043e-07 0.0000000e+00 -1.7483662e-03 
-1.4226628e-06 0.0000000e+00 -2.4054525e-03 
1.1368454e-06 0.0000000e+00 -1.3756159e-03 
-2.7334448e-07 0.0000000e+00 -1.3012001e-03 
1.0704827e-07 0.0000000e+00 -1.4004234e-03 
-2.1692672e-07 0.0000000e+00 -1.4709666e-03 
8.8372565e-07 0.0000000e+00 -1.3791490e-03 
-2.1339940e-06 0.0000000e+00 -1.9357114e-03 
1.5157939e-06 0.0000000e+00 -8.9112076e-04 
-3.6445931e-07 0.0000000e+00 -8.5848098e-04 
1.4273103e-07 0.0000000e+00 -9.4973191e-04 
-2.8923563e-07 0.0000000e+00 -1.0150078e-03 
1.1783009e-06 0.0000000e+00 -9.5528580e-04 
-2.8453255e-06 0.0000000e+00 -1.3711145e-03 
1.8947424e-06 0.0000000e+00 -4.2769659e-04 
-4.5557414e-07 0.0000000e+00 -4.4876875e-04 
1.7841377e-07 0.0000000e+00 -5.2976969e-04 
-3.6154452e-07 0.0000000e+00 -5.8827328e-04 
1.4728761e-06 0.0000000e+00 -5.6981691e-04 
-3.5566568e-06 0.0000000e+00 -8.0470229e-04 
0.0000000e+00 0.0000000e+00 0.0000000e+00 
5.1391660e-05 0.0000000e+00 -9.0921021e-06 
1.0063498e-04 0.0000000e+00 -1.8121504e-05 
1.4558161e-04 0.0000000e+00 -2.7088205e-05 
1.8408321e-04 0.0000000e+00 -3.5992205e-05 
2.1399144e-04 0.0000000e+00 -4.4833505e-05 
2.3315795e-04 0.0000000e+00 -5.3612104e-05 
2.3943439e-04 0.0000000e+00 -6.2328007e-05 
2.3067243e-04 0.0000000e+00 -7.0981201e-05 
2.0472374e-04 0.0000000e+00 -7.9571706e-05 
1.5943994e-04 0.0000000e+00 -8.8099499e-05 
9.2672701e-05 0.0000000e+00 -9.6564596e-05 
2.2736908e-06 0.0000000e+00 -1.0496700e-04 
-7.9144993e-05 0.0000000e+00 -1.1253852e-04 
-1.2224968e-04 0.0000000e+00 -1.2004735e-04 
-1.3410636e-04 0.0000000e+00 -1.2749348e-04 
-1.2178106e-04 0.0000000e+00 -1.3487690e-04 
-9.2339746e-05 0.0000000e+00 -1.4219762e-04 
-5.2848445e-05 0.0000000e+00 -1.4945565e-04 
-1.0373144e-05 0.0000000e+00 -1.5665097e-04 
2.8020155e-05 0.0000000e+00 -1.6378360e-04 
5.5265449e-05 0.0000000e+00 -1.7085353e-04 
6.4296742e-05 0.0000000e+00 -1.7786074e-04 
4.8048027e-05 0.0000000e+00 -1.8480526e-04 
-5.4668897e-07 0.0000000e+00 -1.9168708e-04 
-5.1284282e-05 0.0000000e+00 -1.9773805e-04 
-7.3173353e-05 0.0000000e+00 -2.0372629e-04 
-7.2097500e-05 0.0000000e+00 -2.0965184e-04 
-5.3940312e-05 0.0000000e+00 -2.1551469e-04 
-2.4585383e-05 0.0000000e+00 -2.2131484e-04 
1.0083696e-05 0.0000000e+00 -2.2705230e-04 
4.4183333e-05 0.0000000e+00 -2.3272703e-04 
7.1829927e-05 0.0000000e+00 -2.3833908e-04 
8.7139895e-05 0.0000000e+00 -2.4388844e-04 
8.4229643e-05 0.0000000e+00 -2.4937509e-04 
5.7215573e-05 0.0000000e+00 -2.5479903e-04 
2.1409653e-07 0.0000000e+00 -2.6016028e-04 
-5.5948221e-05 0.0000000e+00 -2.6469067e-04 
-8.0753525e-05 0.0000000e+00 -2.6915834e-04 
-8.0548452e-05 0.0000000e+00 -2.7356332e-04 
-6.1679668e-05 0.0000000e+00 -2.7790558e-04 
-3.0493820e-05 0.0000000e+00 -2.8218515e-04 
6.6624398e-06 0.0000000e+00 -2.8640204e-04 
4.3442462e-05 0.0000000e+00 -2.9055620e-04 
7.3499592e-05 0.0000000e+00 -2.9464767e-04 
9.0487170e-05 0.0000000e+00 -2.9867643e-04 
8.8058565e-05 0.0000000e+00 -3.0264253e-04 
5.9867103e-05 0.0000000e+00 -3.0654590e-04 
-4.3385344e-07 0.0000000e+00 -3.1038656e-04 
-6.2435356e-05 0.0000000e+00 -3.1339636e-04 
-9.5102863e-05 0.0000000e+00 -3.1634347e-04 
-1.0384467e-04 0.0000000e+00 -3.1922787e-04 
-9.4069073e-05 0.0000000e+00 -3.2204957e-04 
-7.1184360e-05 0.0000000e+00 -3.2480856e-04 
-4.0598821e-05 0.0000000e+00 -3.2750485e-04 
-7.7207460e-06 0.0000000e+00 -3.3013846e-04 
2.2041571e-05 0.0000000e+00 -3.3270934e-04 
4.3279841e-05 0.0000000e+00 -3.3521754e-04 
5.0585772e-05 0.0000000e+00 -3.3766305e-04 
3.8551072e-05 0.0000000e+00 -3.4004584e-04 
1.7674512e-06 0.0000000e+00 -3.4236594e-04 
-2.8065022e-05 0.0000000e+00 -3.4385515e-04 
-2.1794765e-05 0.0000000e+00 -3.4528170e-04 
1.1347191e-05 0.0000000e+00 -3.4664551e-04 
6.2129824e-05 0.0000000e+00 -3.4794662e-04 
1.2132210e-04 0.0000000e+00 -3.4918505e-04 
1.7969300e-04 0.0000000e+00 -3.5036079e-04 
2.2801150e-04 0.0000000e+00 -3.5147381e-04 
2.5704657e-04 0.0000000e+00 -3.5252413e-04 
2.5756718e-04 0.0000000e+00 -3.5351174e-04 
2.2034231e-04 0.0000000e+00 -3.5443666e-04 
1.3614094e-04 0.0000000e+00 -3.5529889e-04 
-4.2679881e-06 0.0000000e+00 -3.5609840e-04 
ROTATION 3 212  float
0.0000000e+00 -2.0699887e-04 0.0000000e+00 
0.0000000e+00 -2.0270218e-04 0.0000000e+00 
0.0000000e+00 -1.8981213e-04 0.0000000e+00 
0.0000000e+00 -1.6832870e-04 0.0000000e+00 
0.0000000e+00 -1.3825188e-04 0.0000000e+00 
0.0000000e+00 -9.9581695e-05 0.0000000e+00 
0.0000000e+00 -5.2318141e-05 0.0000000e+00 
0.0000000e+00 3.5387900e-06 0.0000000e+00 
0.0000000e+00 6.7989095e-05 0.0000000e+00 
0.0000000e+00 1.4103278e-04 0.0000000e+00 
0.0000000e+00 2.2266983e-04 0.0000000e+00 
0.0000000e+00 3.1290026e-04 0.0000000e+00 
0.0000000e+00 4.1172406e-04 0.0000000e+00 
0.0000000e+00 2.4433606e-04 0.0000000e+00 
0.0000000e+00 1.0521208e-04 0.0000000e+00 
0.0000000e+00 -5.6479107e-06 0.0000000e+00 
0.0000000e+00 -8.8243898e-05 0.0000000e+00 
0.0000000e+00 -1.4257588e-04 0.0000000e+00 
0.0000000e+00 -1.6864388e-04 0.0000000e+00 
0.0000000e+00 -1.6644786e-04 0.0000000e+00 
0.0000000e+00 -1.3598785e-04 0.0000000e+00 
0.0000000e+00 -7.7263838e-05 0.0000000e+00 
0.0000000e+00 9.7241764e-06 0.0000000e+00 
0.0000000e+00 1.2497618e-04 0.0000000e+00 
0.0000000e+00 2.6849221e-04 0.0000000e+00 
0.0000000e+00 1.4133094e-04 0.0000000e+00 
0.0000000e+00 3.7704045e-05 0.0000000e+00 
0.0000000e+00 -4.2388481e-05 0.0000000e+00 
0.0000000e+00 -9.8946635e-05 0.0000000e+00 
0.0000000e+00 -1.3197042e-04 0.0000000e+00 
0.0000000e+00 -1.4145982e-04 0.0000000e+00 
0.0000000e+00 -1.2741487e-04 0.0000000e+00 
0.0000000e+00 -8.9835528e-05 0.0000000e+00 
0.0000000e+00 -2.8721824e-05 0.0000000e+00 
0.0000000e+00 5.5926252e-05 0.0000000e+00 
0.0000000e+00 1.6410870e-04 0.0000000e+00 
0.0000000e+00 2.9582551e-04 0.0000000e+00 
0.0000000e+00 1.5770414e-04 0.0000000e+00 
0.0000000e+00 4.4969362e-05 0.0000000e+00 
0.0000000e+00 -4.2378808e-05 0.0000000e+00 
0.0000000e+00 -1.0434037e-04 0.0000000e+00 
0.0000000e+00 -1.4091532e-04 0.0000000e+00 
0.0000000e+00 -1.5210366e-04 0.0000000e+00 
0.0000000e+00 -1.3790540e-04 0.0000000e+00 
0.0000000e+00 -9.8320532e-05 0.0000000e+00 
0.0000000e+00 -3.3349050e-05 0.0000000e+00 
0.0000000e+00 5.7009038e-05 0.0000000e+00 
0.0000000e+00 1.7275373e-04 0.0000000e+00 
0.0000000e+00 3.1388504e-04 0.0000000e+00 
0.0000000e+00 1.8573250e-04 0.0000000e+00 
0.0000000e+00 7.9213110e-05 0.0000000e+00 
0.0000000e+00 -5.6731028e-06 0.0000000e+00 
0.0000000e+00 -6.8926151e-05 0.0000000e+00 
0.0000000e+00 -1.1054604e-04 0.0000000e+00 
0.0000000e+00 -1.3053276e-04 0.0000000e+00 
0.0000000e+00 -1.2888631e-04 0.0000000e+00 
0.0000000e+00 -1.0560670e-04 0.0000000e+00 
0.0000000e+00 -6.0693928e-05 0.0000000e+00 
0.0000000e+00 5.8520109e-06 0.0000000e+00 
0.0000000e+00 9.4031115e-05 0.0000000e+00 
0.0000000e+00 2.0384339e-04 0.0000000e+00 
0.0000000e+00 4.0970419e-05 0.0000000e+00 
0.0000000e+00 -8.4978441e-05 0.0000000e+00 
0.0000000e+00 -1.7400320e-04 0.0000000e+00 
0.0000000e+00 -2.2610385e-04 0.0000000e+00 
0.0000000e+00 -2.4128039e-04 0.0000000e+00 
0.0000000e+00 -2.1953283e-04 0.0000000e+00 
0.0000000e+00 -1.6086115e-04 0.0000000e+00 
0.0000000e+00 -6.5265376e-05 0.0000000e+00 
0.0000000e+00 6.7254507e-05 0.0000000e+00 
0.0000000e+00 2.3669850e-04 0.0000000e+00 
0.0000000e+00 4.4306659e-04 0.0000000e+00 
0.0000000e+00 6.8635878e-04 0.0000000e+00 
0.0000000e+00 8.3045883e-04 0.0000000e+00 
0.0000000e+00 7.1109895e-04 0.0000000e+00 
0.0000000e+00 7.3387672e-04 0.0000000e+00 
0.0000000e+00 7.4892631e-04 0.0000000e+00 
0.0000000e+00 6.5722491e-04 0.0000000e+00 
0.0000000e+00 1.0593211e-03 0.0000000e+00 
0.0000000e+00 9.8336337e-04 0.0000000e+00 
0.0000000e+00 8.8787545e-04 0.0000000e+00 
0.0000000e+00 9.0609764e-04 0.0000000e+00 
0.0000000e+00 9.1813732e-04 0.0000000e+00 
0.0000000e+00 8.4477622e-04 0.0000000e+00 
0.0000000e+00 1.1664531e-03 0.0000000e+00 
0.0000000e+00 9.2360366e-04 0.0000000e+00 
0.0000000e+00 8.5198774e-04 0.0000000e+00 
0.0000000e+00 8.6565438e-04 0.0000000e+00 
0.0000000e+00 8.7468413e-04 0.0000000e+00 
0.0000000e+00 8.1966334e-04 0.0000000e+00 
0.0000000e+00 1.0609210e-03 0.0000000e+00 
0.0000000e+00 7.0434588e-04 0.0000000e+00 
0.0000000e+00 6.5660191e-04 0.0000000e+00 
0.0000000e+00 6.6571299e-04 0.0000000e+00 
0.0000000e+00 6.7173282e-04 0.0000000e+00 
0.0000000e+00 6.3505227e-04 0.0000000e+00 
0.0000000e+00 7.9589075e-04 0.0000000e+00 
0.0000000e+00 3.7875594e-04 0.0000000e+00 
0.0000000e+00 3.5488399e-04 0.0000000e+00 
0.0000000e+00 3.5943952e-04 0.0000000e+00 
0.0000000e+00 3.6244944e-04 0.0000000e+00 
0.0000000e+00 3.4410917e-04 0.0000000e+00 
0.0000000e+00 4.2452841e-04 0.0000000e+00 
0.0000000e+00 -1.6450061e-16 0.0000000e+00 
0.0000000e+00 -1.1844044e-16 0.0000000e+00 
0.0000000e+00 -6.1852232e-17 0.0000000e+00 
0.0000000e+00 -9.2120345e-17 0.0000000e+00 
0.0000000e+00 -6.5800246e-17 0.0000000e+00 
0.0000000e+00 -4.5214165e-17 0.0000000e+00 
0.0000000e+00 -3.7875594e-04 0.0000000e+00 
0.0000000e+00 -3.5488399e-04 0.0000000e+00 
0.0000000e+00 -3.5943952e-04 0.0000000e+00 
0.0000000e+00 -3.6244944e-04 0.0000000e+00 
0.0000000e+00 -3.4410917e-04 0.0000000e+00 
0.0000000e+00 -4.2452841e-04 0.0000000e+00 
0.0000000e+00 -7.0434588e-04 0.0000000e+00 
0.0000000e+00 -6.5660191e-04 0.0000000e+00 
0.0000000e+00 -6.6571299e-04 0.0000000e+00 
0.0000000e+00 -6.7173282e-04 0.0000000e+00 
0.0000000e+00 -6.3505227e-04 0.0000000e+00 
0.0000000e+00 -7.9589075e-04 0.0000000e+00 
0.0000000e+00 -9.2360366e-04 0.0000000e+00 
0.0000000e+00 -8.5198774e-04 0.0000000e+00 
0.0000000e+00 -8.6565438e-04 0.0000000e+00 
0.0000000e+00 -8.7468413e-04 0.0000000e+00 
0.0000000e+00 -8.1966334e-04 0.0000000e+00 
0.0000000e+00 -1.0609210e-03 0.0000000e+00 
0.0000000e+00 -9.8336337e-04 0.0000000e+00 
0.0000000e+00 -8.8787545e-04 0.0000000e+00 
0.0000000e+00 -9.0609764e-04 0.0000000e+00 
0.0000000e+00 -9.1813732e-04 0.0000000e+00 
0.0000000e+00 -8.4477622e-04 0.0000000e+00 
0.0000000e+00 -1.1664531e-03 0.0000000e+00 
0.0000000e+00 -8.3045883e-04 0.0000000e+00 
0.0000000e+00 -7.1109895e-04 0.0000000e+00 
0.0000000e+00 -7.3387672e-04 0.0000000e+00 
0.0000000e+00 -7.4892631e-04 0.0000000e+00 
0.0000000e+00 -6.5722491e-04 0.0000000e+00 
0.0000000e+00 -1.0593211e-03 0.0000000e+00 
0.0000000e+00 2.0699887e-04 0.0000000e+00 
0.0000000e+00 2.0270218e-04 0.0000000e+00 
0.0000000e+00 1.8981213e-04 0.0000000e+00 
0.0000000e+00 1.6832870e-04 0.0000000e+00 
0.0000000e+00 1.3825188e-04 0.0000000e+00 
0.0000000e+00 9.9581695e-05 0.0000000e+00 
0.0000000e+00 5.2318141e-05 0.0000000e+00 
0.0000000e+00 -3.5387900e-06 0.0000000e+00 
0.0000000e+00 -6.7989095e-05 0.0000000e+00 
0.0000000e+00 -1.4103278e-04 0.0000000e+00 
0.0000000e+00 -2.2266983e-04 0.0000000e+00 
0.0000000e+00 -3.1290026e-04 0.0000000e+00 
0.0000000e+00 -4.1172406e-04 0.0000000e+00 
0.0000000e+00 -2.4433606e-04 0.0000000e+00 
0.0000000e+00 -1.0521208e-04 0.0000000e+00 
0.0000000e+00 5.6479107e-06 0.0000000e+00 
0.0000000e+00 8.8243898e-05 0.0000000e+00 
0.0000000e+00 1.4257588e-04 0.0000000e+00 
0.0000000e+00 1.6864388e-04 0.0000000e+00 
0.0000000e+00 1.6644786e-04 0.0000000e+00 
0.0000000e+00 1.3598785e-04 0.0000000e+00 
0.0000000e+00 7.7263838e-05 0.0000000e+00 
0.0000000e+00 -9.7241764e-06 0.0000000e+00 
0.0000000e+00 -1.2497618e-04 0.0000000e+00 
0.0000000e+00 -2.6849221e-04 0.0000000e+00 
0.0000000e+00 -1.4133094e-04 0.0000000e+00 
0.0000000e+00 -3.7704045e-05 0.0000000e+00 
0.0000000e+00 4.2388481e-05 0.0000000e+00 
0.0000000e+00 9.8946635e-05 0.0000000e+00 
0.0000000e+00 1.3197042e-04 0.0000000e+00 
0.0000000e+00 1.4145982e-04 0.0000000e+00 
0.0000000e+00 1.2741487e-04 0.0000000e+00 
0.0000000e+00 8.9835528e-05 0.0000000e+00 
0.0000000e+00 2.8721824e-05 0.0000000e+00 
0.0000000e+00 -5.5926252e-05 0.0000000e+00 
0.0000000e+00 -1.6410870e-04 0.0000000e+00 
0.0000000e+00 -2.9582551e-04 0.0000000e+00 
0.0000000e+00 -1.5770414e-04 0.0000000e+00 
0.0000000e+00 -4.4969362e-05 0.0000000e+00 
0.0000000e+00 4.2378808e-05 0.0000000e+00 
0.0000000e+00 1.0434037e-04 0.0000000e+00 
0.0000000e+00 1.4091532e-04 0.0000000e+00 
0.0000000e+00 1.5210366e-04 0.0000000e+00 
0.0000000e+00 1.3790540e-04 0.0000000e+00 
0.0000000e+00 9.8320532e-05 0.0000000e+00 
0.0000000e+00 3.3349050e-05 0.0000000e+00 
0.0000000e+00 -5.7009038e-05 0.0000000e+00 
0.0000000e+00 -1.7275373e-04 0.0000000e+00 
0.0000000e+00 -3.1388504e-04 0.0000000e+00 
0.0000000e+00 -1.8573250e-04 0.0000000e+00 
0.0000000e+00 -7.9213110e-05 0.0000000e+00 
0.0000000e+00 5.6731028e-06 0.0000000e+00 
0.0000000e+00 6.8926151e-05 0.0000000e+00 
0.0000000e+00 1.1054604e-04 0.0000000e+00 
0.0000000e+00 1.3053276e-04 0.0000000e+00 
0.0000000e+00 1.2888631e-04 0.0000000e+00 
0.0000000e+00 1.0560670e-04 0.0000000e+00 
0.0000000e+00 6.0693928e-05 0.0000000e+00 
0.0000000e+00 -5.8520109e-06 0.0000000e+00 
0.0000000e+00 -9.4031115e-05 0.0000000e+00 
0.0000000e+00 -2.0384339e-04 0.0000000e+00 
0.0000000e+00 -4.0970419e-05 0.0000000e+00 
0.0000000e+00 8.4978441e-05 0.0000000e+00 
0.0000000e+00 1.7400320e-04 0.0000000e+00 
0.0000000e+00 2.2610385e-04 0.0000000e+00 