# vtk DataFile Version 4.0
vtk output
ASCII
DATASET UNSTRUCTURED_GRID
POINTS 86 float
0.0000000e+00 0.0000000e+00 0.0000000e+00 
0.0000000e+00 0.0000000e+00 6.0000002e-01 
0.0000000e+00 0.0000000e+00 1.2000000e+00 
0.0000000e+00 0.0000000e+00 1.8000000e+00 
0.0000000e+00 0.0000000e+00 2.4000001e+00 
0.0000000e+00 0.0000000e+00 3.0000000e+00 
0.0000000e+00 0.0000000e+00 3.5999999e+00 
0.0000000e+00 0.0000000e+00 4.1999998e+00 
0.0000000e+00 0.0000000e+00 4.8000002e+00 
0.0000000e+00 0.0000000e+00 5.4000001e+00 
0.0000000e+00 0.0000000e+00 6.0000000e+00 
0.0000000e+00 0.0000000e+00 6.5999999e+00 
0.0000000e+00 0.0000000e+00 7.1999998e+00 
0.0000000e+00 0.0000000e+00 7.8000002e+00 
0.0000000e+00 0.0000000e+00 8.3999996e+00 
0.0000000e+00 0.0000000e+00 9.0000000e+00 
0.0000000e+00 0.0000000e+00 9.6000004e+00 
0.0000000e+00 0.0000000e+00 1.0200000e+01 
0.0000000e+00 0.0000000e+00 1.0800000e+01 
0.0000000e+00 0.0000000e+00 1.1400000e+01 
0.0000000e+00 0.0000000e+00 1.2000000e+01 
0.0000000e+00 0.0000000e+00 1.2600000e+01 
0.0000000e+00 0.0000000e+00 1.3200000e+01 
0.0000000e+00 0.0000000e+00 1.3800000e+01 
0.0000000e+00 0.0000000e+00 1.4400000e+01 
0.0000000e+00 0.0000000e+00 1.5000000e+01 
0.0000000e+00 0.0000000e+00 1.5600000e+01 
0.0000000e+00 0.0000000e+00 1.6200001e+01 
0.0000000e+00 0.0000000e+00 1.6799999e+01 
0.0000000e+00 0.0000000e+00 1.7400000e+01 
0.0000000e+00 0.0000000e+00 1.8000000e+01 
6.0000000e+00 0.0000000e+00 0.0000000e+00 
6.0000000e+00 0.0000000e+00 6.0000002e-01 
6.0000000e+00 0.0000000e+00 1.2000000e+00 
6.0000000e+00 0.0000000e+00 1.8000000e+00 
6.0000000e+00 0.0000000e+00 2.4000001e+00 
6.0000000e+00 0.0000000e+00 3.0000000e+00 
6.0000000e+00 0.0000000e+00 3.5999999e+00 
6.0000000e+00 0.0000000e+00 4.1999998e+00 
6.0000000e+00 0.0000000e+00 4.8000002e+00 
6.0000000e+00 0.0000000e+00 5.4000001e+00 
6.0000000e+00 0.0000000e+00 6.0000000e+00 
6.0000000e+00 0.0000000e+00 6.5999999e+00 
6.0000000e+00 0.0000000e+00 7.1999998e+00 
6.0000000e+00 0.0000000e+00 7.8000002e+00 
6.0000000e+00 0.0000000e+00 8.3999996e+00 
6.0000000e+00 0.0000000e+00 9.0000000e+00 
6.0000000e+00 0.0000000e+00 9.6000004e+00 
6.0000000e+00 0.0000000e+00 1.0200000e+01 
6.0000000e+00 0.0000000e+00 1.0800000e+01 
6.0000000e+00 0.0000000e+00 1.1400000e+01 
6.0000000e+00 0.0000000e+00 1.2000000e+01 
6.0000000e+00 0.0000000e+00 1.2600000e+01 
6.0000000e+00 0.0000000e+00 1.3200000e+01 
6.0000000e+00 0.0000000e+00 1.3800000e+01 
6.0000000e+00 0.0000000e+00 1.4400000e+01 
6.0000000e+00 0.0000000e+00 1.5000000e+01 
6.0000000e+00 0.0000000e+00 1.5600000e+01 
6.0000000e+00 0.0000000e+00 1.6200001e+01 
6.0000000e+00 0.0000000e+00 1.6799999e+01 
6.0000000e+00 0.0000000e+00 1.7400000e+01 
6.0000000e+00 0.0000000e+00 1.8000000e+01 
1.2000000e+00 0.0000000e+00 3.0000000e+00 
2.4000001e+00 0.0000000e+00 3.0000000e+00 
3.5999999e+00 0.0000000e+00 3.0000000e+00 
4.8000002e+00 0.0000000e+00 3.0000000e+00 
1.2000000e+00 0.0000000e+00 6.0000000e+00 
2.4000001e+00 0.0000000e+00 6.0000000e+00 
3.5999999e+00 0.0000000e+00 6.0000000e+00 
4.8000002e+00 0.0000000e+00 6.0000000e+00 
1.2000000e+00 0.0000000e+00 9.0000000e+00 
2.4000001e+00 0.0000000e+00 9.0000000e+00 
3.5999999e+00 0.0000000e+00 9.0000000e+00 
4.8000002e+00 0.0000000e+00 9.0000000e+00 
1.2000000e+00 0.0000000e+00 1.2000000e+01 
2.4000001e+00 0.0000000e+00 1.2000000e+01 
3.5999999e+00 0.0000000e+00 1.2000000e+01 
4.8000002e+00 0.0000000e+00 1.2000000e+01 
1.2000000e+00 0.0000000e+00 1.5000000e+01 
2.4000001e+00 0.0000000e+00 1.5000000e+01 
3.5999999e+00 0.0000000e+00 1.5000000e+01 
4.8000002e+00 0.0000000e+00 1.5000000e+01 
1.2000000e+00 0.0000000e+00 1.8000000e+01 
2.4000001e+00 0.0000000e+00 1.8000000e+01 
3.5999999e+00 0.0000000e+00 1.8000000e+01 
4.8000002e+00 0.0000000e+00 1.8000000e+01 

CELLS 90 270
2 0 1
2 1 2
2 2 3
2 3 4
2 4 5
2 5 6
2 6 7
2 7 8
2 8 9
2 9 10
2 10 11
2 11 12
2 12 13
2 13 14
2 14 15
2 15 16
2 16 17
2 17 18
2 18 19
2 19 20
2 20 21
2 21 22
2 22 23
2 23 24
2 24 25
2 25 26
2 26 27
2 27 28
2 28 29
2 29 30
2 31 32
2 32 33
2 33 34
2 34 35
2 35 36
2 36 37
2 37 38
2 38 39
2 39 40
2 40 41
2 41 42
2 42 43
2 43 44
2 44 45
2 45 46
2 46 47
2 47 48
2 48 49
2 49 50
2 50 51
2 51 52
2 52 53
2 53 54
2 54 55
2 55 56
2 56 57
2 57 58
2 58 59
2 59 60
2 60 61
2 5 62
2 62 63
2 63 64
2 64 65
2 65 36
2 10 66
2 66 67
2 67 68
2 68 69
2 69 41
2 15 70
2 70 71
2 71 72
2 72 73
2 73 46
2 20 74
2 74 75
2 75 76
2 76 77
2 77 51
2 25 78
2 78 79
2 79 80
2 80 81
2 81 56
2 30 82
2 82 83
2 83 84
2 84 85
2 85 61

CELL_TYPES 90
3
3
3
3
3
3
3
3
3
3
3
3
3
3
3
3
3
3
3
3
3
3
3
3
3
3
3
3
3
3
3
3
3
3
3
3
3
3
3
3
3
3
3
3
3
3
3
3
3
3
3
3
3
3
3
3
3
3
3
3
3
3
3
3
3
3
3
3
3
3
3
3
3
3
3
3
3
3
3
3
3
3
3
3
3
3
3
3
3
3
POINT_DATA 86
FIELD FieldData 7
DISPLACEMENT 3 86  float
0.0000000e+00 0.0000000e+00 0.0000000e+00 
6.1101567e-02 0.0000000e+00 3.1776000e-03 
1.1957260e-01 0.0000000e+00 6.3552000e-03 
1.7279698e-01 0.0000000e+00 9.5087998e-03 
2.1823056e-01 0.0000000e+00 1.2638400e-02 
2.5341561e-01 0.0000000e+00 1.5744001e-02 
2.8418624e-01 0.0000000e+00 1.7888496e-02 
3.1649309e-01 0.0000000e+00 2.0008992e-02 
3.4818280e-01 0.0000000e+00 2.2105489e-02 
3.7717402e-01 0.0000000e+00 2.4201985e-02 
4.0139982e-01 0.0000000e+00 2.6298482e-02 
4.2411011e-01 0.0000000e+00 2.7761791e-02 
4.4868624e-01 0.0000000e+00 2.9201100e-02 
4.7332308e-01 0.0000000e+00 3.0616408e-02 
4.9630186e-01 0.0000000e+00 3.2007717e-02 
5.1597583e-01 0.0000000e+00 3.3399027e-02 
5.3459656e-01 0.0000000e+00 3.4321897e-02 
5.5458218e-01 0.0000000e+00 3.5220768e-02 
5.7460099e-01 0.0000000e+00 3.6119640e-02 
5.9333539e-01 0.0000000e+00 3.7018515e-02 
6.0946810e-01 0.0000000e+00 3.7917387e-02 
6.2455994e-01 0.0000000e+00 3.8472258e-02 
6.4033413e-01 0.0000000e+00 3.9003126e-02 
6.5578151e-01 0.0000000e+00 3.9509997e-02 
6.6997939e-01 0.0000000e+00 3.9992869e-02 
6.8209130e-01 0.0000000e+00 4.0451739e-02 
6.9310045e-01 0.0000000e+00 4.0665619e-02 
7.0413929e-01 0.0000000e+00 4.0855501e-02 
7.1472496e-01 0.0000000e+00 4.1021384e-02 
7.2444665e-01 0.0000000e+00 4.1187264e-02 
7.3292232e-01 0.0000000e+00 4.1329145e-02 
0.0000000e+00 0.0000000e+00 0.0000000e+00 
6.0925934e-02 0.0000000e+00 -1.7136000e-03 
1.1922640e-01 0.0000000e+00 -3.4512000e-03 
1.7234793e-01 0.0000000e+00 -5.2128001e-03 
2.1780905e-01 0.0000000e+00 -6.9744000e-03 
2.5315711e-01 0.0000000e+00 -8.7599996e-03 
2.8402585e-01 0.0000000e+00 -9.7044967e-03 
3.1627810e-01 0.0000000e+00 -1.0672993e-02 
3.4790564e-01 0.0000000e+00 -1.1641489e-02 
3.7691456e-01 0.0000000e+00 -1.2609986e-02 
4.0131107e-01 0.0000000e+00 -1.3578481e-02 
4.2420256e-01 0.0000000e+00 -1.4009790e-02 
4.4882435e-01 0.0000000e+00 -1.4465099e-02 
4.7343910e-01 0.0000000e+00 -1.4944408e-02 
4.9639601e-01 0.0000000e+00 -1.5447716e-02 
5.1613057e-01 0.0000000e+00 -1.5975025e-02 
5.3487754e-01 0.0000000e+00 -1.6105898e-02 
5.5492103e-01 0.0000000e+00 -1.6260769e-02 
5.7489991e-01 0.0000000e+00 -1.6439641e-02 
5.9353977e-01 0.0000000e+00 -1.6642515e-02 
6.0965240e-01 0.0000000e+00 -1.6869387e-02 
6.2471533e-01 0.0000000e+00 -1.6848257e-02 
6.4031732e-01 0.0000000e+00 -1.6851127e-02 
6.5556675e-01 0.0000000e+00 -1.6877998e-02 
6.6965836e-01 0.0000000e+00 -1.6928868e-02 
6.8187338e-01 0.0000000e+00 -1.7003739e-02 
6.9300324e-01 0.0000000e+00 -1.6953621e-02 
7.0402133e-01 0.0000000e+00 -1.6903501e-02 
7.1456087e-01 0.0000000e+00 -1.6877383e-02 
7.2432703e-01 0.0000000e+00 -1.6875263e-02 
7.3311144e-01 0.0000000e+00 -1.6897146e-02 
2.5344071e-01 0.0000000e+00 -1.4488730e-02 
2.5341779e-01 0.0000000e+00 -6.0115480e-03 
2.5334692e-01 0.0000000e+00 1.4878158e-02 
2.5327602e-01 0.0000000e+00 2.2459004e-02 
4.0144926e-01 0.0000000e+00 2.2168735e-03 
4.0145072e-01 0.0000000e+00 3.0072159e-03 
4.0145218e-01 0.0000000e+00 1.1700906e-02 
4.0140563e-01 0.0000000e+00 1.1559741e-02 
5.1605481e-01 0.0000000e+00 1.1693738e-02 
5.1608574e-01 0.0000000e+00 8.0698617e-03 
5.1611668e-01 0.0000000e+00 1.0303623e-02 
5.1614761e-01 0.0000000e+00 6.2864511e-03 
6.0959136e-01 0.0000000e+00 1.8846298e-02 
6.0966665e-01 0.0000000e+00 1.2714039e-02 
6.0969388e-01 0.0000000e+00 1.0304567e-02 
6.0967314e-01 0.0000000e+00 3.0930401e-03 
6.8214375e-01 0.0000000e+00 2.4636839e-02 
6.8214816e-01 0.0000000e+00 1.6311543e-02 
6.8210459e-01 0.0000000e+00 9.8025491e-03 
6.8201298e-01 0.0000000e+00 1.2775519e-04 
7.3304653e-01 0.0000000e+00 2.8419729e-02 
7.3312277e-01 0.0000000e+00 1.8512087e-02 
7.3315102e-01 0.0000000e+00 8.9024436e-03 
7.3313123e-01 0.0000000e+00 -2.4217756e-03 
ROTATION 3 86  float
0.0000000e+00 1.0256665e-01 0.0000000e+00 
0.0000000e+00 1.0037454e-01 0.0000000e+00 
0.0000000e+00 9.3798213e-02 0.0000000e+00 
0.0000000e+00 8.2909659e-02 0.0000000e+00 
0.0000000e+00 6.7852892e-02 0.0000000e+00 
0.0000000e+00 4.8771899e-02 0.0000000e+00 
0.0000000e+00 5.3174715e-02 0.0000000e+00 
0.0000000e+00 5.3916618e-02 0.0000000e+00 
0.0000000e+00 5.1141601e-02 0.0000000e+00 
0.0000000e+00 4.4921670e-02 0.0000000e+00 
0.0000000e+00 3.5256822e-02 0.0000000e+00 
0.0000000e+00 3.9918799e-02 0.0000000e+00 
0.0000000e+00 4.1500222e-02 0.0000000e+00 
0.0000000e+00 4.0145088e-02 0.0000000e+00 
0.0000000e+00 3.5997398e-02 0.0000000e+00 
0.0000000e+00 2.9129151e-02 0.0000000e+00 
0.0000000e+00 3.2549925e-02 0.0000000e+00 
0.0000000e+00 3.3702970e-02 0.0000000e+00 
0.0000000e+00 3.2660294e-02 0.0000000e+00 
0.0000000e+00 2.9421892e-02 0.0000000e+00 
0.0000000e+00 2.3987764e-02 0.0000000e+00 
0.0000000e+00 2.6014008e-02 0.0000000e+00 
0.0000000e+00 2.6286319e-02 0.0000000e+00 
0.0000000e+00 2.4948699e-02 0.0000000e+00 
0.0000000e+00 2.2145150e-02 0.0000000e+00 
0.0000000e+00 1.8019669e-02 0.0000000e+00 
0.0000000e+00 1.8519426e-02 0.0000000e+00 
0.0000000e+00 1.8142501e-02 0.0000000e+00 
0.0000000e+00 1.7032895e-02 0.0000000e+00 
0.0000000e+00 1.5262606e-02 0.0000000e+00 
0.0000000e+00 1.2903634e-02 0.0000000e+00 
0.0000000e+00 1.0227652e-01 0.0000000e+00 
0.0000000e+00 1.0007663e-01 0.0000000e+00 
0.0000000e+00 9.3548961e-02 0.0000000e+00 
0.0000000e+00 8.2837507e-02 0.0000000e+00 
0.0000000e+00 6.8014279e-02 0.0000000e+00 
0.0000000e+00 4.9151268e-02 0.0000000e+00 
0.0000000e+00 5.3166676e-02 0.0000000e+00 
0.0000000e+00 5.3786997e-02 0.0000000e+00 
0.0000000e+00 5.1084235e-02 0.0000000e+00 
0.0000000e+00 4.5058388e-02 0.0000000e+00 
0.0000000e+00 3.5709459e-02 0.0000000e+00 
0.0000000e+00 4.0088959e-02 0.0000000e+00 
0.0000000e+00 4.1501012e-02 0.0000000e+00 
0.0000000e+00 4.0089626e-02 0.0000000e+00 
0.0000000e+00 3.5998791e-02 0.0000000e+00 
0.0000000e+00 2.9372515e-02 0.0000000e+00 
0.0000000e+00 3.2715410e-02 0.0000000e+00 
0.0000000e+00 3.3718031e-02 0.0000000e+00 
0.0000000e+00 3.2524377e-02 0.0000000e+00 
0.0000000e+00 2.9278448e-02 0.0000000e+00 
0.0000000e+00 2.4124241e-02 0.0000000e+00 
0.0000000e+00 2.5813757e-02 0.0000000e+00 
0.0000000e+00 2.5945202e-02 0.0000000e+00 
0.0000000e+00 2.4662577e-02 0.0000000e+00 
0.0000000e+00 2.2109885e-02 0.0000000e+00 
0.0000000e+00 1.8431121e-02 0.0000000e+00 
0.0000000e+00 1.8562501e-02 0.0000000e+00 
0.0000000e+00 1.8058561e-02 0.0000000e+00 
0.0000000e+00 1.6991304e-02 0.0000000e+00 
0.0000000e+00 1.5504729e-02 0.0000000e+00 
0.0000000e+00 1.3742835e-02 0.0000000e+00 
0.0000000e+00 5.3643971e-03 0.0000000e+00 
0.0000000e+00 -1.5840618e-02 0.0000000e+00 
0.0000000e+00 -1.5419144e-02 0.0000000e+00 
0.0000000e+00 6.3408180e-03 0.0000000e+00 
0.0000000e+00 7.3159435e-03 0.0000000e+00 
0.0000000e+00 -6.2924307e-03 0.0000000e+00 
0.0000000e+00 -5.8563026e-03 0.0000000e+00 
0.0000000e+00 8.3363280e-03 0.0000000e+00 
0.0000000e+00 8.8240718e-03 0.0000000e+00 
0.0000000e+00 -1.1025312e-03 0.0000000e+00 
0.0000000e+00 -9.3865831e-04 0.0000000e+00 
0.0000000e+00 9.3156910e-03 0.0000000e+00 
0.0000000e+00 9.1733886e-03 0.0000000e+00 
0.0000000e+00 2.3270482e-03 0.0000000e+00 
0.0000000e+00 2.8727436e-03 0.0000000e+00 
0.0000000e+00 1.0234475e-02 0.0000000e+00 
0.0000000e+00 9.2224572e-03 0.0000000e+00 
0.0000000e+00 5.4409956e-03 0.0000000e+00 
0.0000000e+00 6.0992860e-03 0.0000000e+00 
0.0000000e+00 1.0621328e-02 0.0000000e+00 
0.0000000e+00 9.0835830e-03 0.0000000e+00 
0.0000000e+00 7.8046778e-03 0.0000000e+00 
0.0000000e+00 8.4909182e-03 0.0000000e+00 
0.0000000e+00 1.0566304e-02 0.0000000e+00 
REACTION 3 86  float
-3.0445972e+01 -0.0000000e+00 -1.3239999e+02 
-4.5474735e-13 -0.0000000e+00 -0.0000000e+00 
-5.9117156e-12 -0.0000000e+00 2.8421709e-14 
-4.0927262e-12 -0.0000000e+00 -1.1368684e-13 
-1.1823431e-11 -0.0000000e+00 -1.7053026e-13 
7.7307050e-12 -0.0000000e+00 2.4158453e-13 
-1.7735147e-11 -0.0000000e+00 4.5474735e-13 
-1.2278178e-11 -0.0000000e+00 -0.0000000e+00 
3.0240699e-11 -0.0000000e+00 2.2737368e-13 
-2.2737368e-13 -0.0000000e+00 1.1368684e-13 
7.9580786e-12 -0.0000000e+00 2.5863756e-12 
5.2295945e-12 -0.0000000e+00 1.5916157e-12 
2.8421709e-11 -0.0000000e+00 2.2737368e-13 
-2.0691004e-11 -0.0000000e+00 4.5474735e-13 
-2.2737368e-13 -0.0000000e+00 2.2737368e-13 
2.7284841e-12 -0.0000000e+00 -4.2632564e-13 
1.3415047e-11 -0.0000000e+00 2.2737368e-13 
-2.1145752e-11 -0.0000000e+00 -0.0000000e+00 
-1.2732926e-11 -0.0000000e+00 2.2737368e-13 
6.1390892e-12 -0.0000000e+00 -0.0000000e+00 
-4.7066351e-11 -0.0000000e+00 -3.3821834e-12 
2.7284841e-12 -0.0000000e+00 1.5916157e-12 
-1.8417268e-11 -0.0000000e+00 6.8212103e-13 
1.1937118e-11 -0.0000000e+00 1.1368684e-12 
-4.2518877e-11 -0.0000000e+00 -4.5474735e-13 
3.8767212e-11 -0.0000000e+00 1.2207124e-11 
1.1709744e-11 -0.0000000e+00 1.3642421e-12 
-4.5929482e-11 -0.0000000e+00 -4.5474735e-13 
1.9667823e-11 -0.0000000e+00 -2.2737368e-13 
-1.7962520e-11 -0.0000000e+00 2.2737368e-13 
-2.2737368e-13 -0.0000000e+00 -5.4001248e-13 
-3.0554028e+01 -0.0000000e+00 7.1400002e+01 
1.3642421e-12 -0.0000000e+00 5.6843419e-14 
-1.3642421e-12 -0.0000000e+00 -1.4210855e-13 
6.3664629e-12 -0.0000000e+00 5.6843419e-14 
-2.5011104e-12 -0.0000000e+00 5.6843419e-14 
-2.0463631e-12 -0.0000000e+00 1.1368684e-13 
-2.4101610e-11 -0.0000000e+00 -5.6843419e-14 
-5.9117156e-12 -0.0000000e+00 -1.7053026e-13 
4.5474735e-13 -0.0000000e+00 -1.1368684e-13 
2.2737368e-13 -0.0000000e+00 -1.1368684e-13 
-2.6602720e-11 -0.0000000e+00 -5.6843419e-14 
5.2295945e-12 -0.0000000e+00 -0.0000000e+00 
-2.7284841e-12 -0.0000000e+00 -2.2737368e-13 
1.0686563e-11 -0.0000000e+00 -1.1368684e-13 
5.8435035e-11 -0.0000000e+00 -1.1368684e-13 
1.3415047e-11 -0.0000000e+00 3.4106051e-13 
-1.6370905e-11 -0.0000000e+00 5.6843419e-13 
-6.1390892e-12 -0.0000000e+00 -3.4106051e-13 
-4.3200998e-11 -0.0000000e+00 -0.0000000e+00 
-7.0485839e-12 -0.0000000e+00 -1.1368684e-13 
5.0931703e-11 -0.0000000e+00 -1.7053026e-13 
1.1823431e-11 -0.0000000e+00 -5.6865623e-13 
-4.8203219e-11 -0.0000000e+00 -2.2759572e-13 
1.2846613e-11 -0.0000000e+00 -0.0000000e+00 
-5.4114935e-11 -0.0000000e+00 -2.2737368e-13 
6.7075234e-12 -0.0000000e+00 4.2632564e-13 
6.2527761e-12 -0.0000000e+00 3.4106051e-13 
-3.9335646e-11 -0.0000000e+00 -1.1390888e-13 
3.9790393e-12 -0.0000000e+00 -2.2204460e-16 
-2.7853497e-11 -0.0000000e+00 1.1346479e-13 
6.0251804e-12 -0.0000000e+00 -2.2204460e-16 
3.6377568e-12 -0.0000000e+00 -5.2580162e-13 
-3.6382009e-12 -0.0000000e+00 2.8421709e-13 
9.0949470e-13 -0.0000000e+00 1.4210855e-14 
-4.5474735e-12 -0.0000000e+00 -1.4210855e-14 
-5.4571903e-12 -0.0000000e+00 -3.4532377e-12 
-0.0000000e+00 -0.0000000e+00 1.0516032e-12 
-1.8192114e-12 -0.0000000e+00 1.2789769e-13 
-1.8192114e-12 -0.0000000e+00 6.5369932e-13 
-1.8192114e-12 -0.0000000e+00 -1.1048940e-12 
-1.8189894e-12 -0.0000000e+00 3.7303494e-13 
-0.0000000e+00 -0.0000000e+00 -1.2079227e-13 
-3.6382009e-12 -0.0000000e+00 -8.8107299e-13 
-3.6382009e-12 -0.0000000e+00 3.1370462e-12 
-2.2204460e-16 -0.0000000e+00 5.2935434e-13 
-1.8192114e-12 -0.0000000e+00 6.5369932e-13 
-0.0000000e+00 -0.0000000e+00 -1.7905677e-12 
-1.8192114e-12 -0.0000000e+00 -1.1212364e-11 
-3.6382009e-12 -0.0000000e+00 3.9079850e-13 
-1.8192114e-12 -0.0000000e+00 1.9184654e-13 
-0.0000000e+00 -0.0000000e+00 -1.8474111e-13 
-2.2204460e-16 -0.0000000e+00 -2.8421709e-14 
-1.8192114e-12 -0.0000000e+00 -0.0000000e+00 
-3.6382009e-12 -0.0000000e+00 -1.4233059e-13 
1.8189894e-12 -0.0000000e+00 2.8421709e-14 
REACTION_MOMENT 3 86  float
-0.0000000e+00 7.0485839e-12 -0.0000000e+00 
-0.0000000e+00 -1.7053026e-12 -0.0000000e+00 
-0.0000000e+00 9.3223207e-12 -0.0000000e+00 
-0.0000000e+00 2.1600499e-12 -0.0000000e+00 
-0.0000000e+00 -1.4210855e-12 -0.0000000e+00 
-0.0000000e+00 2.0889956e-12 -0.0000000e+00 
-0.0000000e+00 9.6633812e-13 -0.0000000e+00 
-0.0000000e+00 -5.3432814e-12 -0.0000000e+00 
-0.0000000e+00 -7.7875484e-12 -0.0000000e+00 
-0.0000000e+00 2.0975222e-11 -0.0000000e+00 
-0.0000000e+00 -1.3415047e-11 -0.0000000e+00 
-0.0000000e+00 1.6711965e-11 -0.0000000e+00 
-0.0000000e+00 2.3476332e-11 -0.0000000e+00 
-0.0000000e+00 1.7053026e-12 -0.0000000e+00 
-0.0000000e+00 -1.7564616e-11 -0.0000000e+00 
-0.0000000e+00 1.5532464e-11 -0.0000000e+00 
-0.0000000e+00 1.3642421e-11 -0.0000000e+00 
-0.0000000e+00 -1.1937118e-12 -0.0000000e+00 
-0.0000000e+00 4.7748472e-12 -0.0000000e+00 
-0.0000000e+00 1.4495072e-12 -0.0000000e+00 
-0.0000000e+00 7.1693762e-12 -0.0000000e+00 
-0.0000000e+00 -2.4527935e-11 -0.0000000e+00 
-0.0000000e+00 -1.8417268e-11 -0.0000000e+00 
-0.0000000e+00 5.9685590e-13 -0.0000000e+00 
-0.0000000e+00 -1.3159251e-11 -0.0000000e+00 
-0.0000000e+00 -3.0517811e-11 -0.0000000e+00 
-0.0000000e+00 6.3664629e-12 -0.0000000e+00 
-0.0000000e+00 5.9685590e-12 -0.0000000e+00 
-0.0000000e+00 -7.6170181e-12 -0.0000000e+00 
-0.0000000e+00 -4.2348347e-12 -0.0000000e+00 
-0.0000000e+00 8.2849283e-12 -0.0000000e+00 
-0.0000000e+00 6.8212103e-13 -0.0000000e+00 
-0.0000000e+00 1.1368684e-13 -0.0000000e+00 
-0.0000000e+00 3.5242920e-12 -0.0000000e+00 
-0.0000000e+00 6.9348971e-12 -0.0000000e+00 
-0.0000000e+00 2.6204816e-11 -0.0000000e+00 
-0.0000000e+00 5.1159077e-12 -0.0000000e+00 
-0.0000000e+00 3.2457592e-11 -0.0000000e+00 
-0.0000000e+00 2.1032065e-12 -0.0000000e+00 
-0.0000000e+00 -1.3642421e-12 -0.0000000e+00 
-0.0000000e+00 5.1159077e-12 -0.0000000e+00 
-0.0000000e+00 7.5033313e-12 -0.0000000e+00 
-0.0000000e+00 6.3664629e-12 -0.0000000e+00 
-0.0000000e+00 -4.6611603e-12 -0.0000000e+00 
-0.0000000e+00 2.5579538e-11 -0.0000000e+00 
-0.0000000e+00 -5.0590643e-12 -0.0000000e+00 
-0.0000000e+00 7.1622708e-12 -0.0000000e+00 
-0.0000000e+00 9.2654773e-12 -0.0000000e+00 
-0.0000000e+00 -8.6401997e-12 -0.0000000e+00 
-0.0000000e+00 -5.0022209e-12 -0.0000000e+00 
-0.0000000e+00 -1.2221335e-11 -0.0000000e+00 
-0.0000000e+00 -9.3791641e-12 -0.0000000e+00 
-0.0000000e+00 7.3612227e-12 -0.0000000e+00 
-0.0000000e+00 -1.9610980e-12 -0.0000000e+00 
-0.0000000e+00 -3.9079850e-11 -0.0000000e+00 
-0.0000000e+00 -1.1851853e-11 -0.0000000e+00 
-0.0000000e+00 -2.8819613e-11 -0.0000000e+00 
-0.0000000e+00 1.6967761e-11 -0.0000000e+00 
-0.0000000e+00 -2.4357405e-11 -0.0000000e+00 
-0.0000000e+00 3.0127012e-12 -0.0000000e+00 
-0.0000000e+00 -2.2197355e-11 -0.0000000e+00 
-0.0000000e+00 -4.8601123e-12 -0.0000000e+00 
-0.0000000e+00 4.8316906e-13 -0.0000000e+00 
-0.0000000e+00 8.5265128e-14 -0.0000000e+00 
-0.0000000e+00 -4.9737992e-14 -0.0000000e+00 
-0.0000000e+00 4.6895821e-13 -0.0000000e+00 
-0.0000000e+00 -1.0444978e-12 -0.0000000e+00 
-0.0000000e+00 -3.3395509e-13 -0.0000000e+00 
-0.0000000e+00 2.2737368e-13 -0.0000000e+00 
-0.0000000e+00 -9.9475983e-14 -0.0000000e+00 
-0.0000000e+00 -1.7799096e-12 -0.0000000e+00 
-0.0000000e+00 -1.5276669e-13 -0.0000000e+00 
-0.0000000e+00 -4.3165471e-13 -0.0000000e+00 
-0.0000000e+00 9.9475983e-14 -0.0000000e+00 
-0.0000000e+00 2.4229507e-12 -0.0000000e+00 
-0.0000000e+00 -8.9350749e-13 -0.0000000e+00 
-0.0000000e+00 4.0145665e-13 -0.0000000e+00 
-0.0000000e+00 -5.6843419e-13 -0.0000000e+00 
-0.0000000e+00 -3.3608671e-12 -0.0000000e+00 
-0.0000000e+00 -3.4106051e-13 -0.0000000e+00 
-0.0000000e+00 7.8159701e-14 -0.0000000e+00 
-0.0000000e+00 3.2684966e-13 -0.0000000e+00 
-0.0000000e+00 -2.8421709e-14 -0.0000000e+00 
-0.0000000e+00 9.9475983e-14 -0.0000000e+00 
-0.0000000e+00 -2.1316282e-14 -0.0000000e+00 
-0.0000000e+00 2.8421709e-14 -0.0000000e+00 
VOLUME_ACCELERATION 3 86  float
0.0000000e+00 0.0000000e+00 0.0000000e+00 
0.0000000e+00 0.0000000e+00 0.0000000e+00 
0.0000000e+00 0.0000000e+00 0.0000000e+00 
0.0000000e+00 0.0000000e+00 0.0000000e+00 
0.0000000e+00 0.0000000e+00 0.0000000e+00 
0.0000000e+00 0.0000000e+00 0.0000000e+00 
0.0000000e+00 0.0000000e+00 0.0000000e+00 
0.0000000e+00 0.0000000e+00 0.0000000e+00 
0.0000000e+00 0.0000000e+00 0.0000000e+00 
0.0000000e+00 0.0000000e+00 0.0000000e+00 
0.0000000e+00 0.0000000e+00 0.0000000e+00 
0.0000000e+00 0.0000000e+00 0.0000000e+00 
0.0000000e+00 0.0000000e+00 0.0000000e+00 
0.0000000e+00 0.0000000e+00 0.0000000e+00 
0.0000000e+00 0.0000000e+00 0.0000000e+00 
0.0000000e+00 0.0000000e+00 0.0000000e+00 
0.0000000e+00 0.0000000e+00 0.0000000e+00 
0.0000000e+00 0.0000000e+00 0.0000000e+00 
0.0000000e+00 0.0000000e+00 0.0000000e+00 
0.0000000e+00 0.0000000e+00 0.0000000e+00 
0.0000000e+00 0.0000000e+00 0.0000000e+00 
0.0000000e+00 0.0000000e+00 0.0000000e+00 
0.0000000e+00 0.0000000e+00 0.0000000e+00 
0.0000000e+00 0.0000000e+00 0.0000000e+00 
0.0000000e+00 0.0000000e+00 0.0000000e+00 
0.0000000e+00 0.0000000e+00 0.0000000e+00 
0.0000000e+00 0.0000000e+00 0.0000000e+00 
0.0000000e+00 0.0000000e+00 0.0000000e+00 
0.0000000e+00 0.0000000e+00 0.0000000e+00 
0.0000000e+00 0.0000000e+00 0.0000000e+00 
0.0000000e+00 0.0000000e+00 0.0000000e+00 
0.0000000e+00 0.0000000e+00 0.0000000e+00 
0.0000000e+00 0.0000000e+00 0.0000000e+00 
0.0000000e+00 0.0000000e+00 0.0000000e+00 
0.0000000e+00 0.0000000e+00 0.0000000e+00 
0.0000000e+00 0.0000000e+00 0.0000000e+00 
0.0000000e+00 0.0000000e+00 0.0000000e+00 
0.0000000e+00 0.0000000e+00 0.0000000e+00 
0.0000000e+00 0.0000000e+00 0.0000000e+00 
0.0000000e+00 0.0000000e+00 0.0000000e+00 
0.0000000e+00 0.0000000e+00 0.0000000e+00 
0.0000000e+00 0.0000000e+00 0.0000000e+00 
0.0000000e+00 0.0000000e+00 0.0000000e+00 
0.0000000e+00 0.0000000e+00 0.0000000e+00 
0.0000000e+00 0.0000000e+00 0.0000000e+00 
0.0000000e+00 0.0000000e+00 0.0000000e+00 
0.0000000e+00 0.0000000e+00 0.0000000e+00 
0.0000000e+00 0.0000000e+00 0.0000000e+00 
0.0000000e+00 0.0000000e+00 0.0000000e+00 
0.0000000e+00 0.0000000e+00 0.0000000e+00 
0.0000000e+00 0.0000000e+00 0.0000000e+00 
0.0000000e+00 0.0000000e+00 0.0000000e+00 
0.0000000e+00 0.0000000e+00 0.0000000e+00 
0.0000000e+00 0.0000000e+00 0.0000000e+00 
0.0000000e+00 0.0000000e+00 0.0000000e+00 
0.0000000e+00 0.0000000e+00 0.0000000e+00 
0.0000000e+00 0.0000000e+00 0.0000000e+00 
0.0000000e+00 0.0000000e+00 0.0000000e+00 
0.0000000e+00 0.0000000e+00 0.0000000e+00 
0.0000000e+00 0.0000000e+00 0.0000000e+00 
0.0000000e+00 0.0000000e+00 0.0000000e+00 
0.0000000e+00 0.0000000e+00 0.0000000e+00 
0.0000000e+00 0.0000000e+00 0.0000000e+00 
0.0000000e+00 0.0000000e+00 0.0000000e+00 
0.0000000e+00 0.0000000e+00 0.0000000e+00 
0.0000000e+00 0.0000000e+00 0.0000000e+00 
0.0000000e+00 0.0000000e+00 0.0000000e+00 
0.0000000e+00 0.0000000e+00 0.0000000e+00 
0.0000000e+00 0.0000000e+00 0.0000000e+00 
0.0000000e+00 0.0000000e+00 0.0000000e+00 
0.0000000e+00 0.0000000e+00 0.0000000e+00 
0.0000000e+00 0.0000000e+00 0.0000000e+00 
0.0000000e+00 0.0000000e+00 0.0000000e+00 
0.0000000e+00 0.0000000e+00 0.0000000e+00 
0.0000000e+00 0.0000000e+00 0.0000000e+00 
0.0000000e+00 0.0000000e+00 0.0000000e+00 
0.0000000e+00 0.0000000e+00 0.0000000e+00 
0.0000000e+00 0.0000000e+00 0.0000000e+00 
0.0000000e+00 0.0000000e+00 0.0000000e+00 
0.0000000e+00 0.0000000e+00 0.0000000e+00 
0.0000000e+00 0.0000000e+00 0.0000000e+00 
0.0000000e+00 0.0000000e+00 0.0000000e+00 
0.0000000e+00 0.0000000e+00 0.0000000e+00 
0.0000000e+00 0.0000000e+00 0.0000000e+00 
0.0000000e+00 0.0000000e+00 0.0000000e+00 
0.0000000e+00 0.0000000e+00 0.0000000e+00 
POINT_LOAD 3 86  float
0.0000000e+00 0.0000000e+00 0.0000000e+00 
0.0000000e+00 0.0000000e+00 0.0000000e+00 
1.0000000e+00 0.0000000e+00 1.0000000e+00 
1.0000000e+00 0.0000000e+00 1.0000000e+00 
1.0000000e+00 0.0000000e+00 1.0000000e+00 
1.0000000e+00 0.0000000e+00 1.0000000e+00 
1.0000000e+00 0.0000000e+00 1.0000000e+00 
1.0000000e+00 0.0000000e+00 1.0000000e+00 
0.0000000e+00 0.0000000e+00 0.0000000e+00 
0.0000000e+00 0.0000000e+00 0.0000000e+00 
1.0000000e+00 0.0000000e+00 1.0000000e+00 
1.0000000e+00 0.0000000e+00 1.0000000e+00 
1.0000000e+00 0.0000000e+00 1.0000000e+00 
1.0000000e+00 0.0000000e+00 1.0000000e+00 
0.0000000e+00 0.0000000e+00 0.0000000e+00 
1.0000000e+00 0.0000000e+00 1.0000000e+00 
1.0000000e+00 0.0000000e+00 1.0000000e+00 
0.0000000e+00 0.0000000e+00 0.0000000e+00 
0.0000000e+00 0.0000000e+00 0.0000000e+00 
0.0000000e+00 0.0000000e+00 0.0000000e+00 
0.0000000e+00 0.0000000e+00 0.0000000e+00 
1.0000000e+00 0.0000000e+00 1.0000000e+00 
1.0000000e+00 0.0000000e+00 1.0000000e+00 
1.0000000e+00 0.0000000e+00 1.0000000e+00 
1.0000000e+00 0.0000000e+00 1.0000000e+00 
1.0000000e+00 0.0000000e+00 1.0000000e+00 
1.0000000e+00 0.0000000e+00 1.0000000e+00 
1.0000000e+00 0.0000000e+00 1.0000000e+00 
0.0000000e+00 0.0000000e+00 0.0000000e+00 
1.0000000e+00 0.0000000e+00 1.0000000e+00 
1.0000000e+00 0.0000000e+00 1.0000000e+00 
0.0000000e+00 0.0000000e+00 0.0000000e+00 
1.0000000e+00 0.0000000e+00 1.0000000e+00 
1.0000000e+00 0.0000000e+00 1.0000000e+00 
0.0000000e+00 0.0000000e+00 0.0000000e+00 
1.0000000e+00 0.0000000e+00 1.0000000e+00 
1.0000000e+00 0.0000000e+00 1.0000000e+00 
1.0000000e+00 0.0000000e+00 1.0000000e+00 
0.0000000e+00 0.0000000e+00 0.0000000e+00 
0.0000000e+00 0.0000000e+00 0.0000000e+00 
0.0000000e+00 0.0000000e+00 0.0000000e+00 
0.0000000e+00 0.0000000e+00 0.0000000e+00 
1.0000000e+00 0.0000000e+00 1.0000000e+00 
1.0000000e+00 0.0000000e+00 1.0000000e+00 
1.0000000e+00 0.0000000e+00 1.0000000e+00 
1.0000000e+00 0.0000000e+00 1.0000000e+00 
0.0000000e+00 0.0000000e+00 0.0000000e+00 
1.0000000e+00 0.0000000e+00 1.0000000e+00 
1.0000000e+00 0.0000000e+00 1.0000000e+00 
1.0000000e+00 0.0000000e+00 1.0000000e+00 
1.0000000e+00 0.0000000e+00 1.0000000e+00 
1.0000000e+00 0.0000000e+00 1.0000000e+00 
1.0000000e+00 0.0000000e+00 1.0000000e+00 
1.0000000e+00 0.0000000e+00 1.0000000e+00 
1.0000000e+00 0.0000000e+00 1.0000000e+00 
1.0000000e+00 0.0000000e+00 1.0000000e+00 
0.0000000e+00 0.0000000e+00 0.0000000e+00 
0.0000000e+00 0.0000000e+00 0.0000000e+00 
1.0000000e+00 0.0000000e+00 1.0000000e+00 
1.0000000e+00 0.0000000e+00 1.0000000e+00 
1.0000000e+00 0.0000000e+00 1.0000000e+00 
1.0000000e+00 0.0000000e+00 1.0000000e+00 
1.0000000e+00 0.0000000e+00 1.0000000e+00 
1.0000000e+00 0.0000000e+00 1.0000000e+00 
0.0000000e+00 0.0000000e+00 0.0000000e+00 
1.0000000e+00 0.0000000e+00 1.0000000e+00 
1.0000000e+00 0.0000000e+00 1.0000000e+00 
0.0000000e+00 0.0000000e+00 0.0000000e+00 
1.0000000e+00 0.0000000e+00 1.0000000e+00 
1.0000000e+00 0.0000000e+00 1.0000000e+00 
1.0000000e+00 0.0000000e+00 1.0000000e+00 
0.0000000e+00 0.0000000e+00 0.0000000e+00 
0.0000000e+00 0.0000000e+00 0.0000000e+00 
1.0000000e+00 0.0000000e+00 1.0000000e+00 
1.0000000e+00 0.0000000e+00 1.0000000e+00 
1.0000000e+00 0.0000000e+00 1.0000000e+00 
1.0000000e+00 0.0000000e+00 1.0000000e+00 
0.0000000e+00 0.0000000e+00 0.0000000e+00 
1.0000000e+00 0.0000000e+00 1.0000000e+00 
1.0000000e+00 0.0000000e+00 1.0000000e+00 
1.0000000e+00 0.0000000e+00 1.0000000e+00 
1.0000000e+00 0.0000000e+00 1.0000000e+00 
1.0000000e+00 0.0000000e+00 1.0000000e+00 
1.0000000e+00 0.0000000e+00 1.0000000e+00 
1.0000000e+00 0.0000000e+00 1.0000000e+00 
0.0000000e+00 0.0000000e+00 0.0000000e+00 
POINT_MOMENT 3 86  float
0.0000000e+00 0.0000000e+00 0.0000000e+00 
0.0000000e+00 0.0000000e+00 0.0000000e+00 
0.0000000e+00 0.0000000e+00 0.0000000e+00 
0.0000000e+00 0.0000000e+00 0.0000000e+00 
0.0000000e+00 0.0000000e+00 0.0000000e+00 
0.0000000e+00 0.0000000e+00 0.0000000e+00 
0.0000000e+00 0.0000000e+00 0.0000000e+00 
0.0000000e+00 0.0000000e+00 0.0000000e+00 
0.0000000e+00 0.0000000e+00 0.0000000e+00 
0.0000000e+00 0.0000000e+00 0.0000000e+00 
0.0000000e+00 0.0000000e+00 0.0000000e+00 
0.0000000e+00 0.0000000e+00 0.0000000e+00 
0.0000000e+00 0.0000000e+00 0.0000000e+00 
0.0000000e+00 0.0000000e+00 0.0000000e+00 
0.0000000e+00 0.0000000e+00 0.0000000e+00 
0.0000000e+00 0.0000000e+00 0.0000000e+00 
0.0000000e+00 0.0000000e+00 0.0000000e+00 
0.0000000e+00 0.0000000e+00 0.0000000e+00 
0.0000000e+00 0.0000000e+00 0.0000000e+00 
0.0000000e+00 0.0000000e+00 0.0000000e+00 
0.0000000e+00 0.0000000e+00 0.0000000e+00 
0.0000000e+00 0.0000000e+00 0.0000000e+00 
0.0000000e+00 0.0000000e+00 0.0000000e+00 
0.0000000e+00 0.0000000e+00 0.0000000e+00 
0.0000000e+00 0.0000000e+00 0.0000000e+00 
0.0000000e+00 0.0000000e+00 0.0000000e+00 
0.0000000e+00 0.0000000e+00 0.0000000e+00 
0.0000000e+00 0.0000000e+00 0.0000000e+00 
0.0000000e+00 0.0000000e+00 0.0000000e+00 
0.0000000e+00 0.0000000e+00 0.0000000e+00 
0.0000000e+00 0.0000000e+00 0.0000000e+00 
0.0000000e+00 0.0000000e+00 0.0000000e+00 
0.0000000e+00 0.0000000e+00 0.0000000e+00 
0.0000000e+00 0.0000000e+00 0.0000000e+00 
0.0000000e+00 0.0000000e+00 0.0000000e+00 
0.0000000e+00 0.0000000e+00 0.0000000e+00 
0.0000000e+00 0.0000000e+00 0.0000000e+00 
0.0000000e+00 0.0000000e+00 0.0000000e+00 
0.0000000e+00 0.0000000e+00 0.0000000e+00 
0.0000000e+00 0.0000000e+00 0.0000000e+00 
0.0000000e+00 0.0000000e+00 0.0000000e+00 
0.0000000e+00 0.0000000e+00 0.0000000e+00 
0.0000000e+00 0.0000000e+00 0.0000000e+00 
0.0000000e+00 0.0000000e+00 0.0000000e+00 
0.0000000e+00 0.0000000e+00 0.0000000e+00 
0.0000000e+00 0.0000000e+00 0.0000000e+00 
0.0000000e+00 0.0000000e+00 0.0000000e+00 
0.0000000e+00 0.0000000e+00 0.0000000e+00 
0.0000000e+00 0.0000000e+00 0.0000000e+00 
0.0000000e+00 0.0000000e+00 0.0000000e+00 
0.0000000e+00 0.0000000e+00 0.0000000e+00 
0.0000000e+00 0.0000000e+00 0.0000000e+00 
0.0000000e+00 0.0000000e+00 0.0000000e+00 
0.0000000e+00 0.0000000e+00 0.0000000e+00 
0.0000000e+00 0.0000000e+00 0.0000000e+00 
0.0000000e+00 0.0000000e+00 0.0000000e+00 
0.0000000e+00 0.0000000e+00 0.0000000e+00 