# vtk DataFile Version 4.0
vtk output
ASCII
DATASET UNSTRUCTURED_GRID
POINTS 212 float
0.0000000e+00 0.0000000e+00 0.0000000e+00 
0.0000000e+00 0.0000000e+00 2.5000000e-01 
0.0000000e+00 0.0000000e+00 5.0000000e-01 
0.0000000e+00 0.0000000e+00 7.5000000e-01 
0.0000000e+00 0.0000000e+00 1.0000000e+00 
0.0000000e+00 0.0000000e+00 1.2500000e+00 
0.0000000e+00 0.0000000e+00 1.5000000e+00 
0.0000000e+00 0.0000000e+00 1.7500000e+00 
0.0000000e+00 0.0000000e+00 2.0000000e+00 
0.0000000e+00 0.0000000e+00 2.2500000e+00 
0.0000000e+00 0.0000000e+00 2.5000000e+00 
0.0000000e+00 0.0000000e+00 2.7500000e+00 
0.0000000e+00 0.0000000e+00 3.0000000e+00 
0.0000000e+00 0.0000000e+00 3.2500000e+00 
0.0000000e+00 0.0000000e+00 3.5000000e+00 
0.0000000e+00 0.0000000e+00 3.7500000e+00 
0.0000000e+00 0.0000000e+00 4.0000000e+00 
0.0000000e+00 0.0000000e+00 4.2500000e+00 
0.0000000e+00 0.0000000e+00 4.5000000e+00 
0.0000000e+00 0.0000000e+00 4.7500000e+00 
0.0000000e+00 0.0000000e+00 5.0000000e+00 
0.0000000e+00 0.0000000e+00 5.2500000e+00 
0.0000000e+00 0.0000000e+00 5.5000000e+00 
0.0000000e+00 0.0000000e+00 5.7500000e+00 
0.0000000e+00 0.0000000e+00 6.0000000e+00 
0.0000000e+00 0.0000000e+00 6.2500000e+00 
0.0000000e+00 0.0000000e+00 6.5000000e+00 
0.0000000e+00 0.0000000e+00 6.7500000e+00 
0.0000000e+00 0.0000000e+00 7.0000000e+00 
0.0000000e+00 0.0000000e+00 7.2500000e+00 
0.0000000e+00 0.0000000e+00 7.5000000e+00 
0.0000000e+00 0.0000000e+00 7.7500000e+00 
0.0000000e+00 0.0000000e+00 8.0000000e+00 
0.0000000e+00 0.0000000e+00 8.2500000e+00 
0.0000000e+00 0.0000000e+00 8.5000000e+00 
0.0000000e+00 0.0000000e+00 8.7500000e+00 
0.0000000e+00 0.0000000e+00 9.0000000e+00 
0.0000000e+00 0.0000000e+00 9.2500000e+00 
0.0000000e+00 0.0000000e+00 9.5000000e+00 
0.0000000e+00 0.0000000e+00 9.7500000e+00 
0.0000000e+00 0.0000000e+00 1.0000000e+01 
0.0000000e+00 0.0000000e+00 1.0250000e+01 
0.0000000e+00 0.0000000e+00 1.0500000e+01 
0.0000000e+00 0.0000000e+00 1.0750000e+01 
0.0000000e+00 0.0000000e+00 1.1000000e+01 
0.0000000e+00 0.0000000e+00 1.1250000e+01 
0.0000000e+00 0.0000000e+00 1.1500000e+01 
0.0000000e+00 0.0000000e+00 1.1750000e+01 
0.0000000e+00 0.0000000e+00 1.2000000e+01 
0.0000000e+00 0.0000000e+00 1.2250000e+01 
0.0000000e+00 0.0000000e+00 1.2500000e+01 
0.0000000e+00 0.0000000e+00 1.2750000e+01 
0.0000000e+00 0.0000000e+00 1.3000000e+01 
0.0000000e+00 0.0000000e+00 1.3250000e+01 
0.0000000e+00 0.0000000e+00 1.3500000e+01 
0.0000000e+00 0.0000000e+00 1.3750000e+01 
0.0000000e+00 0.0000000e+00 1.4000000e+01 
0.0000000e+00 0.0000000e+00 1.4250000e+01 
0.0000000e+00 0.0000000e+00 1.4500000e+01 
0.0000000e+00 0.0000000e+00 1.4750000e+01 
0.0000000e+00 0.0000000e+00 1.5000000e+01 
0.0000000e+00 0.0000000e+00 1.5250000e+01 
0.0000000e+00 0.0000000e+00 1.5500000e+01 
0.0000000e+00 0.0000000e+00 1.5750000e+01 
0.0000000e+00 0.0000000e+00 1.6000000e+01 
0.0000000e+00 0.0000000e+00 1.6250000e+01 
0.0000000e+00 0.0000000e+00 1.6500000e+01 
0.0000000e+00 0.0000000e+00 1.6750000e+01 
0.0000000e+00 0.0000000e+00 1.7000000e+01 
0.0000000e+00 0.0000000e+00 1.7250000e+01 
0.0000000e+00 0.0000000e+00 1.7500000e+01 
0.0000000e+00 0.0000000e+00 1.7750000e+01 
0.0000000e+00 0.0000000e+00 1.8000000e+01 
5.0000000e-01 0.0000000e+00 3.0000000e+00 
5.0000000e-01 0.0000000e+00 6.0000000e+00 
5.0000000e-01 0.0000000e+00 9.0000000e+00 
5.0000000e-01 0.0000000e+00 1.2000000e+01 
5.0000000e-01 0.0000000e+00 1.5000000e+01 
5.0000000e-01 0.0000000e+00 1.8000000e+01 
1.0000000e+00 0.0000000e+00 3.0000000e+00 
1.0000000e+00 0.0000000e+00 6.0000000e+00 
1.0000000e+00 0.0000000e+00 9.0000000e+00 
1.0000000e+00 0.0000000e+00 1.2000000e+01 
1.0000000e+00 0.0000000e+00 1.5000000e+01 
1.0000000e+00 0.0000000e+00 1.8000000e+01 
1.5000000e+00 0.0000000e+00 3.0000000e+00 
1.5000000e+00 0.0000000e+00 6.0000000e+00 
1.5000000e+00 0.0000000e+00 9.0000000e+00 
1.5000000e+00 0.0000000e+00 1.2000000e+01 
1.5000000e+00 0.0000000e+00 1.5000000e+01 
1.5000000e+00 0.0000000e+00 1.8000000e+01 
2.0000000e+00 0.0000000e+00 3.0000000e+00 
2.0000000e+00 0.0000000e+00 6.0000000e+00 
2.0000000e+00 0.0000000e+00 9.0000000e+00 
2.0000000e+00 0.0000000e+00 1.2000000e+01 
2.0000000e+00 0.0000000e+00 1.5000000e+01 
2.0000000e+00 0.0000000e+00 1.8000000e+01 
2.5000000e+00 0.0000000e+00 3.0000000e+00 
2.5000000e+00 0.0000000e+00 6.0000000e+00 
2.5000000e+00 0.0000000e+00 9.0000000e+00 
2.5000000e+00 0.0000000e+00 1.2000000e+01 
2.5000000e+00 0.0000000e+00 1.5000000e+01 
2.5000000e+00 0.0000000e+00 1.8000000e+01 
3.0000000e+00 0.0000000e+00 3.0000000e+00 
3.0000000e+00 0.0000000e+00 6.0000000e+00 
3.0000000e+00 0.0000000e+00 9.0000000e+00 
3.0000000e+00 0.0000000e+00 1.2000000e+01 
3.0000000e+00 0.0000000e+00 1.5000000e+01 
3.0000000e+00 0.0000000e+00 1.8000000e+01 
3.5000000e+00 0.0000000e+00 3.0000000e+00 
3.5000000e+00 0.0000000e+00 6.0000000e+00 
3.5000000e+00 0.0000000e+00 9.0000000e+00 
3.5000000e+00 0.0000000e+00 1.2000000e+01 
3.5000000e+00 0.0000000e+00 1.5000000e+01 
3.5000000e+00 0.0000000e+00 1.8000000e+01 
4.0000000e+00 0.0000000e+00 3.0000000e+00 
4.0000000e+00 0.0000000e+00 6.0000000e+00 
4.0000000e+00 0.0000000e+00 9.0000000e+00 
4.0000000e+00 0.0000000e+00 1.2000000e+01 
4.0000000e+00 0.0000000e+00 1.5000000e+01 
4.0000000e+00 0.0000000e+00 1.8000000e+01 
4.5000000e+00 0.0000000e+00 3.0000000e+00 
4.5000000e+00 0.0000000e+00 6.0000000e+00 
4.5000000e+00 0.0000000e+00 9.0000000e+00 
4.5000000e+00 0.0000000e+00 1.2000000e+01 
4.5000000e+00 0.0000000e+00 1.5000000e+01 
4.5000000e+00 0.0000000e+00 1.8000000e+01 
5.0000000e+00 0.0000000e+00 3.0000000e+00 
5.0000000e+00 0.0000000e+00 6.0000000e+00 
5.0000000e+00 0.0000000e+00 9.0000000e+00 
5.0000000e+00 0.0000000e+00 1.2000000e+01 
5.0000000e+00 0.0000000e+00 1.5000000e+01 
5.0000000e+00 0.0000000e+00 1.8000000e+01 
5.5000000e+00 0.0000000e+00 3.0000000e+00 
5.5000000e+00 0.0000000e+00 6.0000000e+00 
5.5000000e+00 0.0000000e+00 9.0000000e+00 
5.5000000e+00 0.0000000e+00 1.2000000e+01 
5.5000000e+00 0.0000000e+00 1.5000000e+01 
5.5000000e+00 0.0000000e+00 1.8000000e+01 
6.0000000e+00 0.0000000e+00 0.0000000e+00 
6.0000000e+00 0.0000000e+00 2.5000000e-01 
6.0000000e+00 0.0000000e+00 5.0000000e-01 
6.0000000e+00 0.0000000e+00 7.5000000e-01 
6.0000000e+00 0.0000000e+00 1.0000000e+00 
6.0000000e+00 0.0000000e+00 1.2500000e+00 
6.0000000e+00 0.0000000e+00 1.5000000e+00 
6.0000000e+00 0.0000000e+00 1.7500000e+00 
6.0000000e+00 0.0000000e+00 2.0000000e+00 
6.0000000e+00 0.0000000e+00 2.2500000e+00 
6.0000000e+00 0.0000000e+00 2.5000000e+00 
6.0000000e+00 0.0000000e+00 2.7500000e+00 
6.0000000e+00 0.0000000e+00 3.0000000e+00 
6.0000000e+00 0.0000000e+00 3.2500000e+00 
6.0000000e+00 0.0000000e+00 3.5000000e+00 
6.0000000e+00 0.0000000e+00 3.7500000e+00 
6.0000000e+00 0.0000000e+00 4.0000000e+00 
6.0000000e+00 0.0000000e+00 4.2500000e+00 
6.0000000e+00 0.0000000e+00 4.5000000e+00 
6.0000000e+00 0.0000000e+00 4.7500000e+00 
6.0000000e+00 0.0000000e+00 5.0000000e+00 
6.0000000e+00 0.0000000e+00 5.2500000e+00 
6.0000000e+00 0.0000000e+00 5.5000000e+00 
6.0000000e+00 0.0000000e+00 5.7500000e+00 
6.0000000e+00 0.0000000e+00 6.0000000e+00 
6.0000000e+00 0.0000000e+00 6.2500000e+00 
6.0000000e+00 0.0000000e+00 6.5000000e+00 
6.0000000e+00 0.0000000e+00 6.7500000e+00 
6.0000000e+00 0.0000000e+00 7.0000000e+00 
6.0000000e+00 0.0000000e+00 7.2500000e+00 
6.0000000e+00 0.0000000e+00 7.5000000e+00 
6.0000000e+00 0.0000000e+00 7.7500000e+00 
6.0000000e+00 0.0000000e+00 8.0000000e+00 
6.0000000e+00 0.0000000e+00 8.2500000e+00 
6.0000000e+00 0.0000000e+00 8.5000000e+00 
6.0000000e+00 0.0000000e+00 8.7500000e+00 
6.0000000e+00 0.0000000e+00 9.0000000e+00 
6.0000000e+00 0.0000000e+00 9.2500000e+00 
6.0000000e+00 0.0000000e+00 9.5000000e+00 
6.0000000e+00 0.0000000e+00 9.7500000e+00 
6.0000000e+00 0.0000000e+00 1.0000000e+01 
6.0000000e+00 0.0000000e+00 1.0250000e+01 
6.0000000e+00 0.0000000e+00 1.0500000e+01 
6.0000000e+00 0.0000000e+00 1.0750000e+01 
6.0000000e+00 0.0000000e+00 1.1000000e+01 
6.0000000e+00 0.0000000e+00 1.1250000e+01 
6.0000000e+00 0.0000000e+00 1.1500000e+01 
6.0000000e+00 0.0000000e+00 1.1750000e+01 
6.0000000e+00 0.0000000e+00 1.2000000e+01 
6.0000000e+00 0.0000000e+00 1.2250000e+01 
6.0000000e+00 0.0000000e+00 1.2500000e+01 
6.0000000e+00 0.0000000e+00 1.2750000e+01 
6.0000000e+00 0.0000000e+00 1.3000000e+01 
6.0000000e+00 0.0000000e+00 1.3250000e+01 
6.0000000e+00 0.0000000e+00 1.3500000e+01 
6.0000000e+00 0.0000000e+00 1.3750000e+01 
6.0000000e+00 0.0000000e+00 1.4000000e+01 
6.0000000e+00 0.0000000e+00 1.4250000e+01 
6.0000000e+00 0.0000000e+00 1.4500000e+01 
6.0000000e+00 0.0000000e+00 1.4750000e+01 
6.0000000e+00 0.0000000e+00 1.5000000e+01 
6.0000000e+00 0.0000000e+00 1.5250000e+01 
6.0000000e+00 0.0000000e+00 1.5500000e+01 
6.0000000e+00 0.0000000e+00 1.5750000e+01 
6.0000000e+00 0.0000000e+00 1.6000000e+01 
6.0000000e+00 0.0000000e+00 1.6250000e+01 
6.0000000e+00 0.0000000e+00 1.6500000e+01 
6.0000000e+00 0.0000000e+00 1.6750000e+01 
6.0000000e+00 0.0000000e+00 1.7000000e+01 
6.0000000e+00 0.0000000e+00 1.7250000e+01 
6.0000000e+00 0.0000000e+00 1.7500000e+01 
6.0000000e+00 0.0000000e+00 1.7750000e+01 
6.0000000e+00 0.0000000e+00 1.8000000e+01 

CELLS 216 648
2 0 1
2 1 2
2 2 3
2 3 4
2 4 5
2 5 6
2 6 7
2 7 8
2 8 9
2 9 10
2 10 11
2 11 12
2 12 13
2 13 14
2 14 15
2 15 16
2 16 17
2 17 18
2 18 19
2 19 20
2 20 21
2 21 22
2 22 23
2 23 24
2 24 25
2 25 26
2 26 27
2 27 28
2 28 29
2 29 30
2 30 31
2 31 32
2 32 33
2 33 34
2 34 35
2 35 36
2 36 37
2 37 38
2 38 39
2 39 40
2 40 41
2 41 42
2 42 43
2 43 44
2 44 45
2 45 46
2 46 47
2 47 48
2 48 49
2 49 50
2 50 51
2 51 52
2 52 53
2 53 54
2 54 55
2 55 56
2 56 57
2 57 58
2 58 59
2 59 60
2 60 61
2 61 62
2 62 63
2 63 64
2 64 65
2 65 66
2 66 67
2 67 68
2 68 69
2 69 70
2 70 71
2 71 72
2 139 140
2 140 141
2 141 142
2 142 143
2 143 144
2 144 145
2 145 146
2 146 147
2 147 148
2 148 149
2 149 150
2 150 151
2 151 152
2 152 153
2 153 154
2 154 155
2 155 156
2 156 157
2 157 158
2 158 159
2 159 160
2 160 161
2 161 162
2 162 163
2 163 164
2 164 165
2 165 166
2 166 167
2 167 168
2 168 169
2 169 170
2 170 171
2 171 172
2 172 173
2 173 174
2 174 175
2 175 176
2 176 177
2 177 178
2 178 179
2 179 180
2 180 181
2 181 182
2 182 183
2 183 184
2 184 185
2 185 186
2 186 187
2 187 188
2 188 189
2 189 190
2 190 191
2 191 192
2 192 193
2 193 194
2 194 195
2 195 196
2 196 197
2 197 198
2 198 199
2 199 200
2 200 201
2 201 202
2 202 203
2 203 204
2 204 205
2 205 206
2 206 207
2 207 208
2 208 209
2 209 210
2 210 211
2 12 73
2 73 79
2 79 85
2 85 91
2 91 97
2 97 103
2 103 109
2 109 115
2 115 121
2 121 127
2 127 133
2 133 151
2 24 74
2 74 80
2 80 86
2 86 92
2 92 98
2 98 104
2 104 110
2 110 116
2 116 122
2 122 128
2 128 134
2 134 163
2 36 75
2 75 81
2 81 87
2 87 93
2 93 99
2 99 105
2 105 111
2 111 117
2 117 123
2 123 129
2 129 135
2 135 175
2 48 76
2 76 82
2 82 88
2 88 94
2 94 100
2 100 106
2 106 112
2 112 118
2 118 124
2 124 130
2 130 136
2 136 187
2 60 77
2 77 83
2 83 89
2 89 95
2 95 101
2 101 107
2 107 113
2 113 119
2 119 125
2 125 131
2 131 137
2 137 199
2 72 78
2 78 84
2 84 90
2 90 96
2 96 102
2 102 108
2 108 114
2 114 120
2 120 126
2 126 132
2 132 138
2 138 211

CELL_TYPES 216
3
3
3
3
3
3
3
3
3
3
3
3
3
3
3
3
3
3
3
3
3
3
3
3
3
3
3
3
3
3
3
3
3
3
3
3
3
3
3
3
3
3
3
3
3
3
3
3
3
3
3
3
3
3
3
3
3
3
3
3
3
3
3
3
3
3
3
3
3
3
3
3
3
3
3
3
3
3
3
3
3
3
3
3
3
3
3
3
3
3
3
3
3
3
3
3
3
3
3
3
3
3
3
3
3
3
3
3
3
3
3
3
3
3
3
3
3
3
3
3
3
3
3
3
3
3
3
3
3
3
3
3
3
3
3
3
3
3
3
3
3
3
3
3
3
3
3
3
3
3
3
3
3
3
3
3
3
3
3
3
3
3
3
3
3
3
3
3
3
3
3
3
3
3
3
3
3
3
3
3
3
3
3
3
3
3
3
3
3
3
3
3
3
3
3
3
3
3
3
3
3
3
3
3
3
3
3
3
3
3
3
3
3
3
3
3
POINT_DATA 212
FIELD FieldData 8
DISPLACEMENT 3 212  float
0.0000000e+00 0.0000000e+00 0.0000000e+00 
-3.8933254e-06 0.0000000e+00 -4.6010382e-06 
-7.6272254e-06 0.0000000e+00 -9.1702595e-06 
-1.1042274e-05 0.0000000e+00 -1.3707663e-05 
-1.3979046e-05 0.0000000e+00 -1.8213248e-05 
-1.6278116e-05 0.0000000e+00 -2.2687018e-05 
-1.7780058e-05 0.0000000e+00 -2.7128968e-05 
-1.8325445e-05 0.0000000e+00 -3.1539101e-05 
-1.7754855e-05 0.0000000e+00 -3.5917419e-05 
-1.5908859e-05 0.0000000e+00 -4.0263916e-05 
-1.2628034e-05 0.0000000e+00 -4.4578599e-05 
-7.7529521e-06 0.0000000e+00 -4.8861461e-05 
-1.1241897e-06 0.0000000e+00 -5.3112508e-05 
4.8760844e-06 0.0000000e+00 -5.6944056e-05 
8.1005455e-06 0.0000000e+00 -6.0743783e-05 
9.0608892e-06 0.0000000e+00 -6.4511696e-05 
8.2688111e-06 0.0000000e+00 -6.8247791e-05 
6.2360073e-06 0.0000000e+00 -7.1952069e-05 
3.4741722e-06 0.0000000e+00 -7.5624528e-05 
4.9500153e-07 0.0000000e+00 -7.9265170e-05 
-2.1898093e-06 0.0000000e+00 -8.2873994e-05 
-4.0685645e-06 0.0000000e+00 -8.6451008e-05 
-4.6295690e-06 0.0000000e+00 -8.9996196e-05 
-3.3611275e-06 0.0000000e+00 -9.3509567e-05 
2.4845571e-07 0.0000000e+00 -9.6991120e-05 
3.9889251e-06 0.0000000e+00 -1.0005318e-04 
5.5981213e-06 0.0000000e+00 -1.0308342e-04 
5.5098858e-06 0.0000000e+00 -1.0608184e-04 
4.1580593e-06 0.0000000e+00 -1.0904844e-04 
1.9764818e-06 0.0000000e+00 -1.1198323e-04 
-6.0100547e-07 0.0000000e+00 -1.1488620e-04 
-3.1405618e-06 0.0000000e+00 -1.1775735e-04 
-5.2083465e-06 0.0000000e+00 -1.2059668e-04 
-6.3705188e-06 0.0000000e+00 -1.2340420e-04 
-6.1932378e-06 0.0000000e+00 -1.2617989e-04 
-4.2426632e-06 0.0000000e+00 -1.2892378e-04 
-8.4954024e-08 0.0000000e+00 -1.3163584e-04 
4.0281575e-06 0.0000000e+00 -1.3392841e-04 
5.8626861e-06 0.0000000e+00 -1.3618915e-04 
5.8790934e-06 0.0000000e+00 -1.3841808e-04 
4.5378406e-06 0.0000000e+00 -1.4061520e-04 
2.2993891e-06 0.0000000e+00 -1.4278050e-04 
-3.7579940e-07 0.0000000e+00 -1.4491397e-04 
-3.0272633e-06 0.0000000e+00 -1.4701563e-04 
-5.1945417e-06 0.0000000e+00 -1.4908548e-04 
-6.4171727e-06 0.0000000e+00 -1.5112350e-04 
-6.2346949e-06 0.0000000e+00 -1.5312970e-04 
-4.1866469e-06 0.0000000e+00 -1.5510409e-04 
1.8743296e-07 0.0000000e+00 -1.5704667e-04 
4.6600694e-06 0.0000000e+00 -1.5856975e-04 
6.9646321e-06 0.0000000e+00 -1.6006100e-04 
7.5028497e-06 0.0000000e+00 -1.6152044e-04 
6.6764505e-06 0.0000000e+00 -1.6294805e-04 
4.8871630e-06 0.0000000e+00 -1.6434386e-04 
2.5367162e-06 0.0000000e+00 -1.6570784e-04 
2.6838139e-08 0.0000000e+00 -1.6704001e-04 
-2.2407426e-06 0.0000000e+00 -1.6834037e-04 
-3.8642975e-06 0.0000000e+00 -1.6960890e-04 
-4.4420976e-06 0.0000000e+00 -1.7084561e-04 
-3.5724154e-06 0.0000000e+00 -1.7205051e-04 
-8.5352161e-07 0.0000000e+00 -1.7322360e-04 
1.4030246e-06 0.0000000e+00 -1.7397718e-04 
1.0639677e-06 0.0000000e+00 -1.7469894e-04 
-1.2015092e-06 0.0000000e+00 -1.7538889e-04 
-4.7242229e-06 0.0000000e+00 -1.7604702e-04 
-8.8349898e-06 0.0000000e+00 -1.7667333e-04 
-1.2864626e-05 0.0000000e+00 -1.7726784e-04 
-1.6143949e-05 0.0000000e+00 -1.7783050e-04 
-1.8003777e-05 0.0000000e+00 -1.7836137e-04 
-1.7774924e-05 0.0000000e+00 -1.7886041e-04 
-1.4788207e-05 0.0000000e+00 -1.7932763e-04 
-8.3744453e-06 0.0000000e+00 -1.7976304e-04 
2.1355474e-06 0.0000000e+00 -1.8016664e-04 
-9.3682473e-07 0.0000000e+00 -7.6769735e-05 
2.0704641e-07 0.0000000e+00 -1.1586697e-04 
-7.0795025e-08 0.0000000e+00 -1.5134616e-04 
1.5619413e-07 0.0000000e+00 -1.7727893e-04 
-7.1126800e-07 0.0000000e+00 -1.8994838e-04 
1.7796228e-06 0.0000000e+00 -2.1339831e-04 
-7.4945979e-07 0.0000000e+00 -1.1070345e-04 
1.6563713e-07 0.0000000e+00 -1.4588865e-04 
-5.6636019e-08 0.0000000e+00 -1.8205060e-04 
1.2495531e-07 0.0000000e+00 -2.0841041e-04 
-5.6901439e-07 0.0000000e+00 -2.1821009e-04 
1.4236983e-06 0.0000000e+00 -2.5516565e-04 
-5.6209484e-07 0.0000000e+00 -1.4616699e-04 
1.2422785e-07 0.0000000e+00 -1.7830949e-04 
-4.2477012e-08 0.0000000e+00 -2.1500248e-04 
9.3716480e-08 0.0000000e+00 -2.4169442e-04 
-4.2676081e-07 0.0000000e+00 -2.4926206e-04 
1.0677737e-06 0.0000000e+00 -2.9672202e-04 
-3.7472989e-07 0.0000000e+00 -1.7635735e-04 
8.2818566e-08 0.0000000e+00 -2.0632650e-04 
-2.8318009e-08 0.0000000e+00 -2.4339880e-04 
6.2477653e-08 0.0000000e+00 -2.7032799e-04 
-2.8450719e-07 0.0000000e+00 -2.7630132e-04 
7.1184917e-07 0.0000000e+00 -3.3126440e-04 
-1.8736495e-07 0.0000000e+00 -1.9641528e-04 
4.1409283e-08 0.0000000e+00 -2.2508041e-04 
-1.4159005e-08 0.0000000e+00 -2.6238029e-04 
3.1238827e-08 0.0000000e+00 -2.8945183e-04 
-1.4225360e-07 0.0000000e+00 -2.9446857e-04 
3.5592458e-07 0.0000000e+00 -3.5393354e-04 
-7.5317773e-17 0.0000000e+00 -2.0342521e-04 
-1.1078490e-16 0.0000000e+00 -2.3165566e-04 
-1.2945079e-16 0.0000000e+00 -2.6903141e-04 
-1.2821335e-16 0.0000000e+00 -2.9615039e-04 
-1.0613821e-16 0.0000000e+00 -3.0084827e-04 
-8.3853688e-17 0.0000000e+00 -3.6181387e-04 
1.8736495e-07 0.0000000e+00 -1.9641528e-04 
-4.1409283e-08 0.0000000e+00 -2.2508041e-04 
1.4159005e-08 0.0000000e+00 -2.6238029e-04 
-3.1238827e-08 0.0000000e+00 -2.8945183e-04 
1.4225360e-07 0.0000000e+00 -2.9446857e-04 
-3.5592458e-07 0.0000000e+00 -3.5393354e-04 
3.7472989e-07 0.0000000e+00 -1.7635735e-04 
-8.2818566e-08 0.0000000e+00 -2.0632650e-04 
2.8318009e-08 0.0000000e+00 -2.4339880e-04 
-6.2477653e-08 0.0000000e+00 -2.7032799e-04 
2.8450719e-07 0.0000000e+00 -2.7630132e-04 
-7.1184917e-07 0.0000000e+00 -3.3126440e-04 
5.6209484e-07 0.0000000e+00 -1.4616699e-04 
-1.2422785e-07 0.0000000e+00 -1.7830949e-04 
4.2477012e-08 0.0000000e+00 -2.1500248e-04 
-9.3716480e-08 0.0000000e+00 -2.4169442e-04 
4.2676081e-07 0.0000000e+00 -2.4926206e-04 
-1.0677737e-06 0.0000000e+00 -2.9672202e-04 
7.4945979e-07 0.0000000e+00 -1.1070345e-04 
-1.6563713e-07 0.0000000e+00 -1.4588865e-04 
5.6636019e-08 0.0000000e+00 -1.8205060e-04 
-1.2495531e-07 0.0000000e+00 -2.0841041e-04 
5.6901439e-07 0.0000000e+00 -2.1821009e-04 
-1.4236983e-06 0.0000000e+00 -2.5516565e-04 
9.3682473e-07 0.0000000e+00 -7.6769735e-05 
-2.0704641e-07 0.0000000e+00 -1.1586697e-04 
7.0795025e-08 0.0000000e+00 -1.5134616e-04 
-1.5619413e-07 0.0000000e+00 -1.7727893e-04 
7.1126800e-07 0.0000000e+00 -1.8994838e-04 
-1.7796228e-06 0.0000000e+00 -2.1339831e-04 
0.0000000e+00 0.0000000e+00 0.0000000e+00 
3.8933254e-06 0.0000000e+00 -4.6010382e-06 
7.6272254e-06 0.0000000e+00 -9.1702595e-06 
1.1042274e-05 0.0000000e+00 -1.3707663e-05 
1.3979046e-05 0.0000000e+00 -1.8213248e-05 
1.6278116e-05 0.0000000e+00 -2.2687018e-05 
1.7780058e-05 0.0000000e+00 -2.7128968e-05 
1.8325445e-05 0.0000000e+00 -3.1539101e-05 
1.7754855e-05 0.0000000e+00 -3.5917419e-05 
1.5908859e-05 0.0000000e+00 -4.0263916e-05 
1.2628034e-05 0.0000000e+00 -4.4578599e-05 
7.7529521e-06 0.0000000e+00 -4.8861461e-05 
1.1241897e-06 0.0000000e+00 -5.3112508e-05 
-4.8760844e-06 0.0000000e+00 -5.6944056e-05 
-8.1005455e-06 0.0000000e+00 -6.0743783e-05 
-9.0608892e-06 0.0000000e+00 -6.4511696e-05 
-8.2688111e-06 0.0000000e+00 -6.8247791e-05 
-6.2360073e-06 0.0000000e+00 -7.1952069e-05 
-3.4741722e-06 0.0000000e+00 -7.5624528e-05 
-4.9500153e-07 0.0000000e+00 -7.9265170e-05 
2.1898093e-06 0.0000000e+00 -8.2873994e-05 
4.0685645e-06 0.0000000e+00 -8.6451008e-05 
4.6295690e-06 0.0000000e+00 -8.9996196e-05 
3.3611275e-06 0.0000000e+00 -9.3509567e-05 
-2.4845571e-07 0.0000000e+00 -9.6991120e-05 
-3.9889251e-06 0.0000000e+00 -1.0005318e-04 
-5.5981213e-06 0.0000000e+00 -1.0308342e-04 
-5.5098858e-06 0.0000000e+00 -1.0608184e-04 
-4.1580593e-06 0.0000000e+00 -1.0904844e-04 
-1.9764818e-06 0.0000000e+00 -1.1198323e-04 
6.0100547e-07 0.0000000e+00 -1.1488620e-04 
3.1405618e-06 0.0000000e+00 -1.1775735e-04 
5.2083465e-06 0.0000000e+00 -1.2059668e-04 
6.3705188e-06 0.0000000e+00 -1.2340420e-04 
6.1932378e-06 0.0000000e+00 -1.2617989e-04 
4.2426632e-06 0.0000000e+00 -1.2892378e-04 
8.4954024e-08 0.0000000e+00 -1.3163584e-04 
-4.0281575e-06 0.0000000e+00 -1.3392841e-04 
-5.8626861e-06 0.0000000e+00 -1.3618915e-04 
-5.8790934e-06 0.0000000e+00 -1.3841808e-04 
-4.5378406e-06 0.0000000e+00 -1.4061520e-04 
-2.2993891e-06 0.0000000e+00 -1.4278050e-04 
3.7579940e-07 0.0000000e+00 -1.4491397e-04 
3.0272633e-06 0.0000000e+00 -1.4701563e-04 
5.1945417e-06 0.0000000e+00 -1.4908548e-04 
6.4171727e-06 0.0000000e+00 -1.5112350e-04 
6.2346949e-06 0.0000000e+00 -1.5312970e-04 
4.1866469e-06 0.0000000e+00 -1.5510409e-04 
-1.8743296e-07 0.0000000e+00 -1.5704667e-04 
-4.6600694e-06 0.0000000e+00 -1.5856975e-04 
-6.9646321e-06 0.0000000e+00 -1.6006100e-04 
-7.5028497e-06 0.0000000e+00 -1.6152044e-04 
-6.6764505e-06 0.0000000e+00 -1.6294805e-04 
-4.8871630e-06 0.0000000e+00 -1.6434386e-04 
-2.5367162e-06 0.0000000e+00 -1.6570784e-04 
-2.6838139e-08 0.0000000e+00 -1.6704001e-04 
2.2407426e-06 0.0000000e+00 -1.6834037e-04 
3.8642975e-06 0.0000000e+00 -1.6960890e-04 
4.4420976e-06 0.0000000e+00 -1.7084561e-04 
3.5724154e-06 0.0000000e+00 -1.7205051e-04 
8.5352161e-07 0.0000000e+00 -1.7322360e-04 
-1.4030246e-06 0.0000000e+00 -1.7397718e-04 
-1.0639677e-06 0.0000000e+00 -1.7469894e-04 
1.2015092e-06 0.0000000e+00 -1.7538889e-04 
4.7242229e-06 0.0000000e+00 -1.7604702e-04 
8.8349898e-06 0.0000000e+00 -1.7667333e-04 
1.2864626e-05 0.0000000e+00 -1.7726784e-04 
1.6143949e-05 0.0000000e+00 -1.7783050e-04 
1.8003777e-05 0.0000000e+00 -1.7836137e-04 
1.7774924e-05 0.0000000e+00 -1.7886041e-04 
1.4788207e-05 0.0000000e+00 -1.7932763e-04 
8.3744453e-06 0.0000000e+00 -1.7976304e-04 
-2.1355474e-06 0.0000000e+00 -1.8016664e-04 
ROTATION 3 212  float
0.0000000e+00 -1.5679585e-05 0.0000000e+00 
0.0000000e+00 -1.5360734e-05 0.0000000e+00 
0.0000000e+00 -1.4404181e-05 0.0000000e+00 
0.0000000e+00 -1.2809925e-05 0.0000000e+00 
0.0000000e+00 -1.0577967e-05 0.0000000e+00 
0.0000000e+00 -7.7083068e-06 0.0000000e+00 
0.0000000e+00 -4.2009437e-06 0.0000000e+00 
0.0000000e+00 -5.5878743e-08 0.0000000e+00 
0.0000000e+00 4.7268886e-06 0.0000000e+00 
0.0000000e+00 1.0147359e-05 0.0000000e+00 
0.0000000e+00 1.6205531e-05 0.0000000e+00 
0.0000000e+00 2.2901404e-05 0.0000000e+00 
0.0000000e+00 3.0234982e-05 0.0000000e+00 
0.0000000e+00 1.8108340e-05 0.0000000e+00 
0.0000000e+00 8.0284799e-06 0.0000000e+00 
0.0000000e+00 -4.5979793e-09 0.0000000e+00 
0.0000000e+00 -5.9908944e-06 0.0000000e+00 
0.0000000e+00 -9.9304089e-06 0.0000000e+00 
0.0000000e+00 -1.1823142e-05 0.0000000e+00 
0.0000000e+00 -1.1669094e-05 0.0000000e+00 
0.0000000e+00 -9.4682628e-06 0.0000000e+00 
0.0000000e+00 -5.2206501e-06 0.0000000e+00 
0.0000000e+00 1.0737438e-06 0.0000000e+00 
0.0000000e+00 9.4149191e-06 0.0000000e+00 
0.0000000e+00 1.9802877e-05 0.0000000e+00 
0.0000000e+00 1.0410105e-05 0.0000000e+00 
0.0000000e+00 2.7526949e-06 0.0000000e+00 
0.0000000e+00 -3.1693519e-06 0.0000000e+00 
0.0000000e+00 -7.3560354e-06 0.0000000e+00 
0.0000000e+00 -9.8073560e-06 0.0000000e+00 
0.0000000e+00 -1.0523314e-05 0.0000000e+00 
0.0000000e+00 -9.5039095e-06 0.0000000e+00 
0.0000000e+00 -6.7491410e-06 0.0000000e+00 
0.0000000e+00 -2.2590100e-06 0.0000000e+00 
0.0000000e+00 3.9664837e-06 0.0000000e+00 
0.0000000e+00 1.1927341e-05 0.0000000e+00 
0.0000000e+00 2.1623560e-05 0.0000000e+00 
0.0000000e+00 1.1588306e-05 0.0000000e+00 
0.0000000e+00 3.3948972e-06 0.0000000e+00 
0.0000000e+00 -2.9566656e-06 0.0000000e+00 
0.0000000e+00 -7.4663826e-06 0.0000000e+00 
0.0000000e+00 -1.0134254e-05 0.0000000e+00 
0.0000000e+00 -1.0960280e-05 0.0000000e+00 
0.0000000e+00 -9.9444587e-06 0.0000000e+00 
0.0000000e+00 -7.0867927e-06 0.0000000e+00 
0.0000000e+00 -2.3872806e-06 0.0000000e+00 
0.0000000e+00 4.1540775e-06 0.0000000e+00 
0.0000000e+00 1.2537281e-05 0.0000000e+00 
0.0000000e+00 2.2762331e-05 0.0000000e+00 
0.0000000e+00 1.3286579e-05 0.0000000e+00 
0.0000000e+00 5.4177412e-06 0.0000000e+00 
0.0000000e+00 -8.4418218e-07 0.0000000e+00 
0.0000000e+00 -5.4991920e-06 0.0000000e+00 
0.0000000e+00 -8.5472875e-06 0.0000000e+00 
0.0000000e+00 -9.9884692e-06 0.0000000e+00 
0.0000000e+00 -9.8227365e-06 0.0000000e+00 
0.0000000e+00 -8.0500904e-06 0.0000000e+00 
0.0000000e+00 -4.6705295e-06 0.0000000e+00 
0.0000000e+00 3.1594493e-07 0.0000000e+00 
0.0000000e+00 6.9093335e-06 0.0000000e+00 
0.0000000e+00 1.5109636e-05 0.0000000e+00 
0.0000000e+00 3.3888564e-06 0.0000000e+00 
0.0000000e+00 -5.6551899e-06 0.0000000e+00 
0.0000000e+00 -1.2022503e-05 0.0000000e+00 
0.0000000e+00 -1.5713083e-05 0.0000000e+00 
0.0000000e+00 -1.6726930e-05 0.0000000e+00 
0.0000000e+00 -1.5064043e-05 0.0000000e+00 
0.0000000e+00 -1.0724423e-05 0.0000000e+00 
0.0000000e+00 -3.7080702e-06 0.0000000e+00 
0.0000000e+00 5.9850163e-06 0.0000000e+00 
0.0000000e+00 1.8354836e-05 0.0000000e+00 
0.0000000e+00 3.3401389e-05 0.0000000e+00 
0.0000000e+00 5.1124673e-05 0.0000000e+00 
0.0000000e+00 6.0830465e-05 0.0000000e+00 
0.0000000e+00 5.2137042e-05 0.0000000e+00 
0.0000000e+00 5.3654279e-05 0.0000000e+00 
0.0000000e+00 5.4603253e-05 0.0000000e+00 
0.0000000e+00 4.8226007e-05 0.0000000e+00 
0.0000000e+00 7.8238540e-05 0.0000000e+00 
0.0000000e+00 7.1988863e-05 0.0000000e+00 
0.0000000e+00 6.5034132e-05 0.0000000e+00 
0.0000000e+00 6.6247921e-05 0.0000000e+00 
0.0000000e+00 6.7007102e-05 0.0000000e+00 
0.0000000e+00 6.1905303e-05 0.0000000e+00 
0.0000000e+00 8.5915330e-05 0.0000000e+00 
0.0000000e+00 6.7597604e-05 0.0000000e+00 
0.0000000e+00 6.2381550e-05 0.0000000e+00 
0.0000000e+00 6.3291896e-05 0.0000000e+00 
0.0000000e+00 6.3861276e-05 0.0000000e+00 
0.0000000e+00 6.0034934e-05 0.0000000e+00 
0.0000000e+00 7.8042453e-05 0.0000000e+00 
0.0000000e+00 5.1544095e-05 0.0000000e+00 
0.0000000e+00 4.8066730e-05 0.0000000e+00 
0.0000000e+00 4.8673624e-05 0.0000000e+00 
0.0000000e+00 4.9053215e-05 0.0000000e+00 
0.0000000e+00 4.6502315e-05 0.0000000e+00 
0.0000000e+00 5.8507329e-05 0.0000000e+00 
0.0000000e+00 2.7715756e-05 0.0000000e+00 
0.0000000e+00 2.5977071e-05 0.0000000e+00 
0.0000000e+00 2.6280519e-05 0.0000000e+00 
0.0000000e+00 2.6470314e-05 0.0000000e+00 
0.0000000e+00 2.5194866e-05 0.0000000e+00 
0.0000000e+00 3.1197371e-05 0.0000000e+00 
0.0000000e+00 6.7008541e-18 0.0000000e+00 
0.0000000e+00 6.3891865e-18 0.0000000e+00 
0.0000000e+00 3.4283439e-18 0.0000000e+00 
0.0000000e+00 -1.4025044e-18 0.0000000e+00 
0.0000000e+00 3.5841777e-18 0.0000000e+00 
0.0000000e+00 2.3313862e-18 0.0000000e+00 
0.0000000e+00 -2.7715756e-05 0.0000000e+00 
0.0000000e+00 -2.5977071e-05 0.0000000e+00 
0.0000000e+00 -2.6280519e-05 0.0000000e+00 
0.0000000e+00 -2.6470314e-05 0.0000000e+00 
0.0000000e+00 -2.5194866e-05 0.0000000e+00 
0.0000000e+00 -3.1197371e-05 0.0000000e+00 
0.0000000e+00 -5.1544095e-05 0.0000000e+00 
0.0000000e+00 -4.8066730e-05 0.0000000e+00 
0.0000000e+00 -4.8673624e-05 0.0000000e+00 
0.0000000e+00 -4.9053215e-05 0.0000000e+00 
0.0000000e+00 -4.6502315e-05 0.0000000e+00 
0.0000000e+00 -5.8507329e-05 0.0000000e+00 
0.0000000e+00 -6.7597604e-05 0.0000000e+00 
0.0000000e+00 -6.2381550e-05 0.0000000e+00 
0.0000000e+00 -6.3291896e-05 0.0000000e+00 
0.0000000e+00 -6.3861276e-05 0.0000000e+00 
0.0000000e+00 -6.0034934e-05 0.0000000e+00 
0.0000000e+00 -7.8042453e-05 0.0000000e+00 
0.0000000e+00 -7.1988863e-05 0.0000000e+00 
0.0000000e+00 -6.5034132e-05 0.0000000e+00 
0.0000000e+00 -6.6247921e-05 0.0000000e+00 
0.0000000e+00 -6.7007102e-05 0.0000000e+00 
0.0000000e+00 -6.1905303e-05 0.0000000e+00 
0.0000000e+00 -8.5915330e-05 0.0000000e+00 
0.0000000e+00 -6.0830465e-05 0.0000000e+00 
0.0000000e+00 -5.2137042e-05 0.0000000e+00 
0.0000000e+00 -5.3654279e-05 0.0000000e+00 
0.0000000e+00 -5.4603253e-05 0.0000000e+00 
0.0000000e+00 -4.8226007e-05 0.0000000e+00 
0.0000000e+00 -7.8238540e-05 0.0000000e+00 
0.0000000e+00 1.5679585e-05 0.0000000e+00 
0.0000000e+00 1.5360734e-05 0.0000000e+00 
0.0000000e+00 1.4404181e-05 0.0000000e+00 
0.0000000e+00 1.2809925e-05 0.0000000e+00 
0.0000000e+00 1.0577967e-05 0.0000000e+00 
0.0000000e+00 7.7083068e-06 0.0000000e+00 
0.0000000e+00 4.2009437e-06 0.0000000e+00 
0.0000000e+00 5.5878743e-08 0.0000000e+00 
0.0000000e+00 -4.7268886e-06 0.0000000e+00 
0.0000000e+00 -1.0147359e-05 0.0000000e+00 
0.0000000e+00 -1.6205531e-05 0.0000000e+00 
0.0000000e+00 -2.2901404e-05 0.0000000e+00 
0.0000000e+00 -3.0234982e-05 0.0000000e+00 
0.0000000e+00 -1.8108340e-05 0.0000000e+00 
0.0000000e+00 -8.0284799e-06 0.0000000e+00 
0.0000000e+00 4.5979793e-09 0.0000000e+00 
0.0000000e+00 5.9908944e-06 0.0000000e+00 
0.0000000e+00 9.9304089e-06 0.0000000e+00 
0.0000000e+00 1.1823142e-05 0.0000000e+00 
0.0000000e+00 1.1669094e-05 0.0000000e+00 
0.0000000e+00 9.4682628e-06 0.0000000e+00 
0.0000000e+00 5.2206501e-06 0.0000000e+00 
0.0000000e+00 -1.0737438e-06 0.0000000e+00 
0.0000000e+00 -9.4149191e-06 0.0000000e+00 
0.0000000e+00 -1.9802877e-05 0.0000000e+00 
0.0000000e+00 -1.0410105e-05 0.0000000e+00 
0.0000000e+00 -2.7526949e-06 0.0000000e+00 
0.0000000e+00 3.1693519e-06 0.0000000e+00 
0.0000000e+00 7.3560354e-06 0.0000000e+00 
0.0000000e+00 9.8073560e-06 0.0000000e+00 
0.0000000e+00 1.0523314e-05 0.0000000e+00 
0.0000000e+00 9.5039095e-06 0.0000000e+00 
0.0000000e+00 6.7491410e-06 0.0000000e+00 
0.0000000e+00 2.2590100e-06 0.0000000e+00 
0.0000000e+00 -3.9664837e-06 0.0000000e+00 
0.0000000e+00 -1.1927341e-05 0.0000000e+00 
0.0000000e+00 -2.1623560e-05 0.0000000e+00 
0.0000000e+00 -1.1588306e-05 0.0000000e+00 
0.0000000e+00 -3.3948972e-06 0.0000000e+00 
0.0000000e+00 2.9566656e-06 0.0000000e+00 
0.0000000e+00 7.4663826e-06 0.0000000e+00 
0.0000000e+00 1.0134254e-05 0.0000000e+00 
0.0000000e+00 1.0960280e-05 0.0000000e+00 
0.0000000e+00 9.9444587e-06 0.0000000e+00 
0.0000000e+00 7.0867927e-06 0.0000000e+00 
0.0000000e+00 2.3872806e-06 0.0000000e+00 
0.0000000e+00 -4.1540775e-06 0.0000000e+00 
0.0000000e+00 -1.2537281e-05 0.0000000e+00 
0.0000000e+00 -2.2762331e-05 0.0000000e+00 
0.0000000e+00 -1.3286579e-05 0.0000000e+00 
0.0000000e+00 -5.4177412e-06 0.0000000e+00 
0.0000000e+00 8.4418218e-07 0.0000000e+00 
0.0000000e+00 5.4991920e-06 0.0000000e+00 
0.0000000e+00 8.5472875e-06 0.0000000e+00 
0.0000000e+00 9.9884692e-06 0.0000000e+00 
0.0000000e+00 9.8227365e-06 0.0000000e+00 
0.0000000e+00 8.0500904e-06 0.0000000e+00 
0.0000000e+00 4.6705295e-06 0.0000000e+00 
0.0000000e+00 -3.1594493e-07 0.0000000e+00 
0.0000000e+00 -6.9093335e-06 0.0000000e+00 
0.0000000e+00 -1.5109636e-05 0.0000000e+00 
0.0000000e+00 -3.3888564e-06 0.0000000e+00 
0.0000000e+00 5.6551899e-06 0.0000000e+00 
0.0000000e+00 1.2022503e-05 0.0000000e+00 
0.0000000e+00 1.5713083e-05 0.0000000e+00 