# vtk DataFile Version 4.0
vtk output
ASCII
DATASET UNSTRUCTURED_GRID
POINTS 212 float
0.0000000e+00 0.0000000e+00 0.0000000e+00 
0.0000000e+00 0.0000000e+00 2.5000000e-01 
0.0000000e+00 0.0000000e+00 5.0000000e-01 
0.0000000e+00 0.0000000e+00 7.5000000e-01 
0.0000000e+00 0.0000000e+00 1.0000000e+00 
0.0000000e+00 0.0000000e+00 1.2500000e+00 
0.0000000e+00 0.0000000e+00 1.5000000e+00 
0.0000000e+00 0.0000000e+00 1.7500000e+00 
0.0000000e+00 0.0000000e+00 2.0000000e+00 
0.0000000e+00 0.0000000e+00 2.2500000e+00 
0.0000000e+00 0.0000000e+00 2.5000000e+00 
0.0000000e+00 0.0000000e+00 2.7500000e+00 
0.0000000e+00 0.0000000e+00 3.0000000e+00 
0.0000000e+00 0.0000000e+00 3.2500000e+00 
0.0000000e+00 0.0000000e+00 3.5000000e+00 
0.0000000e+00 0.0000000e+00 3.7500000e+00 
0.0000000e+00 0.0000000e+00 4.0000000e+00 
0.0000000e+00 0.0000000e+00 4.2500000e+00 
0.0000000e+00 0.0000000e+00 4.5000000e+00 
0.0000000e+00 0.0000000e+00 4.7500000e+00 
0.0000000e+00 0.0000000e+00 5.0000000e+00 
0.0000000e+00 0.0000000e+00 5.2500000e+00 
0.0000000e+00 0.0000000e+00 5.5000000e+00 
0.0000000e+00 0.0000000e+00 5.7500000e+00 
0.0000000e+00 0.0000000e+00 6.0000000e+00 
0.0000000e+00 0.0000000e+00 6.2500000e+00 
0.0000000e+00 0.0000000e+00 6.5000000e+00 
0.0000000e+00 0.0000000e+00 6.7500000e+00 
0.0000000e+00 0.0000000e+00 7.0000000e+00 
0.0000000e+00 0.0000000e+00 7.2500000e+00 
0.0000000e+00 0.0000000e+00 7.5000000e+00 
0.0000000e+00 0.0000000e+00 7.7500000e+00 
0.0000000e+00 0.0000000e+00 8.0000000e+00 
0.0000000e+00 0.0000000e+00 8.2500000e+00 
0.0000000e+00 0.0000000e+00 8.5000000e+00 
0.0000000e+00 0.0000000e+00 8.7500000e+00 
0.0000000e+00 0.0000000e+00 9.0000000e+00 
0.0000000e+00 0.0000000e+00 9.2500000e+00 
0.0000000e+00 0.0000000e+00 9.5000000e+00 
0.0000000e+00 0.0000000e+00 9.7500000e+00 
0.0000000e+00 0.0000000e+00 1.0000000e+01 
0.0000000e+00 0.0000000e+00 1.0250000e+01 
0.0000000e+00 0.0000000e+00 1.0500000e+01 
0.0000000e+00 0.0000000e+00 1.0750000e+01 
0.0000000e+00 0.0000000e+00 1.1000000e+01 
0.0000000e+00 0.0000000e+00 1.1250000e+01 
0.0000000e+00 0.0000000e+00 1.1500000e+01 
0.0000000e+00 0.0000000e+00 1.1750000e+01 
0.0000000e+00 0.0000000e+00 1.2000000e+01 
0.0000000e+00 0.0000000e+00 1.2250000e+01 
0.0000000e+00 0.0000000e+00 1.2500000e+01 
0.0000000e+00 0.0000000e+00 1.2750000e+01 
0.0000000e+00 0.0000000e+00 1.3000000e+01 
0.0000000e+00 0.0000000e+00 1.3250000e+01 
0.0000000e+00 0.0000000e+00 1.3500000e+01 
0.0000000e+00 0.0000000e+00 1.3750000e+01 
0.0000000e+00 0.0000000e+00 1.4000000e+01 
0.0000000e+00 0.0000000e+00 1.4250000e+01 
0.0000000e+00 0.0000000e+00 1.4500000e+01 
0.0000000e+00 0.0000000e+00 1.4750000e+01 
0.0000000e+00 0.0000000e+00 1.5000000e+01 
0.0000000e+00 0.0000000e+00 1.5250000e+01 
0.0000000e+00 0.0000000e+00 1.5500000e+01 
0.0000000e+00 0.0000000e+00 1.5750000e+01 
0.0000000e+00 0.0000000e+00 1.6000000e+01 
0.0000000e+00 0.0000000e+00 1.6250000e+01 
0.0000000e+00 0.0000000e+00 1.6500000e+01 
0.0000000e+00 0.0000000e+00 1.6750000e+01 
0.0000000e+00 0.0000000e+00 1.7000000e+01 
0.0000000e+00 0.0000000e+00 1.7250000e+01 
0.0000000e+00 0.0000000e+00 1.7500000e+01 
0.0000000e+00 0.0000000e+00 1.7750000e+01 
0.0000000e+00 0.0000000e+00 1.8000000e+01 
5.0000000e-01 0.0000000e+00 3.0000000e+00 
5.0000000e-01 0.0000000e+00 6.0000000e+00 
5.0000000e-01 0.0000000e+00 9.0000000e+00 
5.0000000e-01 0.0000000e+00 1.2000000e+01 
5.0000000e-01 0.0000000e+00 1.5000000e+01 
5.0000000e-01 0.0000000e+00 1.8000000e+01 
1.0000000e+00 0.0000000e+00 3.0000000e+00 
1.0000000e+00 0.0000000e+00 6.0000000e+00 
1.0000000e+00 0.0000000e+00 9.0000000e+00 
1.0000000e+00 0.0000000e+00 1.2000000e+01 
1.0000000e+00 0.0000000e+00 1.5000000e+01 
1.0000000e+00 0.0000000e+00 1.8000000e+01 
1.5000000e+00 0.0000000e+00 3.0000000e+00 
1.5000000e+00 0.0000000e+00 6.0000000e+00 
1.5000000e+00 0.0000000e+00 9.0000000e+00 
1.5000000e+00 0.0000000e+00 1.2000000e+01 
1.5000000e+00 0.0000000e+00 1.5000000e+01 
1.5000000e+00 0.0000000e+00 1.8000000e+01 
2.0000000e+00 0.0000000e+00 3.0000000e+00 
2.0000000e+00 0.0000000e+00 6.0000000e+00 
2.0000000e+00 0.0000000e+00 9.0000000e+00 
2.0000000e+00 0.0000000e+00 1.2000000e+01 
2.0000000e+00 0.0000000e+00 1.5000000e+01 
2.0000000e+00 0.0000000e+00 1.8000000e+01 
2.5000000e+00 0.0000000e+00 3.0000000e+00 
2.5000000e+00 0.0000000e+00 6.0000000e+00 
2.5000000e+00 0.0000000e+00 9.0000000e+00 
2.5000000e+00 0.0000000e+00 1.2000000e+01 
2.5000000e+00 0.0000000e+00 1.5000000e+01 
2.5000000e+00 0.0000000e+00 1.8000000e+01 
3.0000000e+00 0.0000000e+00 3.0000000e+00 
3.0000000e+00 0.0000000e+00 6.0000000e+00 
3.0000000e+00 0.0000000e+00 9.0000000e+00 
3.0000000e+00 0.0000000e+00 1.2000000e+01 
3.0000000e+00 0.0000000e+00 1.5000000e+01 
3.0000000e+00 0.0000000e+00 1.8000000e+01 
3.5000000e+00 0.0000000e+00 3.0000000e+00 
3.5000000e+00 0.0000000e+00 6.0000000e+00 
3.5000000e+00 0.0000000e+00 9.0000000e+00 
3.5000000e+00 0.0000000e+00 1.2000000e+01 
3.5000000e+00 0.0000000e+00 1.5000000e+01 
3.5000000e+00 0.0000000e+00 1.8000000e+01 
4.0000000e+00 0.0000000e+00 3.0000000e+00 
4.0000000e+00 0.0000000e+00 6.0000000e+00 
4.0000000e+00 0.0000000e+00 9.0000000e+00 
4.0000000e+00 0.0000000e+00 1.2000000e+01 
4.0000000e+00 0.0000000e+00 1.5000000e+01 
4.0000000e+00 0.0000000e+00 1.8000000e+01 
4.5000000e+00 0.0000000e+00 3.0000000e+00 
4.5000000e+00 0.0000000e+00 6.0000000e+00 
4.5000000e+00 0.0000000e+00 9.0000000e+00 
4.5000000e+00 0.0000000e+00 1.2000000e+01 
4.5000000e+00 0.0000000e+00 1.5000000e+01 
4.5000000e+00 0.0000000e+00 1.8000000e+01 
5.0000000e+00 0.0000000e+00 3.0000000e+00 
5.0000000e+00 0.0000000e+00 6.0000000e+00 
5.0000000e+00 0.0000000e+00 9.0000000e+00 
5.0000000e+00 0.0000000e+00 1.2000000e+01 
5.0000000e+00 0.0000000e+00 1.5000000e+01 
5.0000000e+00 0.0000000e+00 1.8000000e+01 
5.5000000e+00 0.0000000e+00 3.0000000e+00 
5.5000000e+00 0.0000000e+00 6.0000000e+00 
5.5000000e+00 0.0000000e+00 9.0000000e+00 
5.5000000e+00 0.0000000e+00 1.2000000e+01 
5.5000000e+00 0.0000000e+00 1.5000000e+01 
5.5000000e+00 0.0000000e+00 1.8000000e+01 
6.0000000e+00 0.0000000e+00 0.0000000e+00 
6.0000000e+00 0.0000000e+00 2.5000000e-01 
6.0000000e+00 0.0000000e+00 5.0000000e-01 
6.0000000e+00 0.0000000e+00 7.5000000e-01 
6.0000000e+00 0.0000000e+00 1.0000000e+00 
6.0000000e+00 0.0000000e+00 1.2500000e+00 
6.0000000e+00 0.0000000e+00 1.5000000e+00 
6.0000000e+00 0.0000000e+00 1.7500000e+00 
6.0000000e+00 0.0000000e+00 2.0000000e+00 
6.0000000e+00 0.0000000e+00 2.2500000e+00 
6.0000000e+00 0.0000000e+00 2.5000000e+00 
6.0000000e+00 0.0000000e+00 2.7500000e+00 
6.0000000e+00 0.0000000e+00 3.0000000e+00 
6.0000000e+00 0.0000000e+00 3.2500000e+00 
6.0000000e+00 0.0000000e+00 3.5000000e+00 
6.0000000e+00 0.0000000e+00 3.7500000e+00 
6.0000000e+00 0.0000000e+00 4.0000000e+00 
6.0000000e+00 0.0000000e+00 4.2500000e+00 
6.0000000e+00 0.0000000e+00 4.5000000e+00 
6.0000000e+00 0.0000000e+00 4.7500000e+00 
6.0000000e+00 0.0000000e+00 5.0000000e+00 
6.0000000e+00 0.0000000e+00 5.2500000e+00 
6.0000000e+00 0.0000000e+00 5.5000000e+00 
6.0000000e+00 0.0000000e+00 5.7500000e+00 
6.0000000e+00 0.0000000e+00 6.0000000e+00 
6.0000000e+00 0.0000000e+00 6.2500000e+00 
6.0000000e+00 0.0000000e+00 6.5000000e+00 
6.0000000e+00 0.0000000e+00 6.7500000e+00 
6.0000000e+00 0.0000000e+00 7.0000000e+00 
6.0000000e+00 0.0000000e+00 7.2500000e+00 
6.0000000e+00 0.0000000e+00 7.5000000e+00 
6.0000000e+00 0.0000000e+00 7.7500000e+00 
6.0000000e+00 0.0000000e+00 8.0000000e+00 
6.0000000e+00 0.0000000e+00 8.2500000e+00 
6.0000000e+00 0.0000000e+00 8.5000000e+00 
6.0000000e+00 0.0000000e+00 8.7500000e+00 
6.0000000e+00 0.0000000e+00 9.0000000e+00 
6.0000000e+00 0.0000000e+00 9.2500000e+00 
6.0000000e+00 0.0000000e+00 9.5000000e+00 
6.0000000e+00 0.0000000e+00 9.7500000e+00 
6.0000000e+00 0.0000000e+00 1.0000000e+01 
6.0000000e+00 0.0000000e+00 1.0250000e+01 
6.0000000e+00 0.0000000e+00 1.0500000e+01 
6.0000000e+00 0.0000000e+00 1.0750000e+01 
6.0000000e+00 0.0000000e+00 1.1000000e+01 
6.0000000e+00 0.0000000e+00 1.1250000e+01 
6.0000000e+00 0.0000000e+00 1.1500000e+01 
6.0000000e+00 0.0000000e+00 1.1750000e+01 
6.0000000e+00 0.0000000e+00 1.2000000e+01 
6.0000000e+00 0.0000000e+00 1.2250000e+01 
6.0000000e+00 0.0000000e+00 1.2500000e+01 
6.0000000e+00 0.0000000e+00 1.2750000e+01 
6.0000000e+00 0.0000000e+00 1.3000000e+01 
6.0000000e+00 0.0000000e+00 1.3250000e+01 
6.0000000e+00 0.0000000e+00 1.3500000e+01 
6.0000000e+00 0.0000000e+00 1.3750000e+01 
6.0000000e+00 0.0000000e+00 1.4000000e+01 
6.0000000e+00 0.0000000e+00 1.4250000e+01 
6.0000000e+00 0.0000000e+00 1.4500000e+01 
6.0000000e+00 0.0000000e+00 1.4750000e+01 
6.0000000e+00 0.0000000e+00 1.5000000e+01 
6.0000000e+00 0.0000000e+00 1.5250000e+01 
6.0000000e+00 0.0000000e+00 1.5500000e+01 
6.0000000e+00 0.0000000e+00 1.5750000e+01 
6.0000000e+00 0.0000000e+00 1.6000000e+01 
6.0000000e+00 0.0000000e+00 1.6250000e+01 
6.0000000e+00 0.0000000e+00 1.6500000e+01 
6.0000000e+00 0.0000000e+00 1.6750000e+01 
6.0000000e+00 0.0000000e+00 1.7000000e+01 
6.0000000e+00 0.0000000e+00 1.7250000e+01 
6.0000000e+00 0.0000000e+00 1.7500000e+01 
6.0000000e+00 0.0000000e+00 1.7750000e+01 
6.0000000e+00 0.0000000e+00 1.8000000e+01 

CELLS 216 648
2 0 1
2 1 2
2 2 3
2 3 4
2 4 5
2 5 6
2 6 7
2 7 8
2 8 9
2 9 10
2 10 11
2 11 12
2 12 13
2 13 14
2 14 15
2 15 16
2 16 17
2 17 18
2 18 19
2 19 20
2 20 21
2 21 22
2 22 23
2 23 24
2 24 25
2 25 26
2 26 27
2 27 28
2 28 29
2 29 30
2 30 31
2 31 32
2 32 33
2 33 34
2 34 35
2 35 36
2 36 37
2 37 38
2 38 39
2 39 40
2 40 41
2 41 42
2 42 43
2 43 44
2 44 45
2 45 46
2 46 47
2 47 48
2 48 49
2 49 50
2 50 51
2 51 52
2 52 53
2 53 54
2 54 55
2 55 56
2 56 57
2 57 58
2 58 59
2 59 60
2 60 61
2 61 62
2 62 63
2 63 64
2 64 65
2 65 66
2 66 67
2 67 68
2 68 69
2 69 70
2 70 71
2 71 72
2 139 140
2 140 141
2 141 142
2 142 143
2 143 144
2 144 145
2 145 146
2 146 147
2 147 148
2 148 149
2 149 150
2 150 151
2 151 152
2 152 153
2 153 154
2 154 155
2 155 156
2 156 157
2 157 158
2 158 159
2 159 160
2 160 161
2 161 162
2 162 163
2 163 164
2 164 165
2 165 166
2 166 167
2 167 168
2 168 169
2 169 170
2 170 171
2 171 172
2 172 173
2 173 174
2 174 175
2 175 176
2 176 177
2 177 178
2 178 179
2 179 180
2 180 181
2 181 182
2 182 183
2 183 184
2 184 185
2 185 186
2 186 187
2 187 188
2 188 189
2 189 190
2 190 191
2 191 192
2 192 193
2 193 194
2 194 195
2 195 196
2 196 197
2 197 198
2 198 199
2 199 200
2 200 201
2 201 202
2 202 203
2 203 204
2 204 205
2 205 206
2 206 207
2 207 208
2 208 209
2 209 210
2 210 211
2 12 73
2 73 79
2 79 85
2 85 91
2 91 97
2 97 103
2 103 109
2 109 115
2 115 121
2 121 127
2 127 133
2 133 151
2 24 74
2 74 80
2 80 86
2 86 92
2 92 98
2 98 104
2 104 110
2 110 116
2 116 122
2 122 128
2 128 134
2 134 163
2 36 75
2 75 81
2 81 87
2 87 93
2 93 99
2 99 105
2 105 111
2 111 117
2 117 123
2 123 129
2 129 135
2 135 175
2 48 76
2 76 82
2 82 88
2 88 94
2 94 100
2 100 106
2 106 112
2 112 118
2 118 124
2 124 130
2 130 136
2 136 187
2 60 77
2 77 83
2 83 89
2 89 95
2 95 101
2 101 107
2 107 113
2 113 119
2 119 125
2 125 131
2 131 137
2 137 199
2 72 78
2 78 84
2 84 90
2 90 96
2 96 102
2 102 108
2 108 114
2 114 120
2 120 126
2 126 132
2 132 138
2 138 211

CELL_TYPES 216
3
3
3
3
3
3
3
3
3
3
3
3
3
3
3
3
3
3
3
3
3
3
3
3
3
3
3
3
3
3
3
3
3
3
3
3
3
3
3
3
3
3
3
3
3
3
3
3
3
3
3
3
3
3
3
3
3
3
3
3
3
3
3
3
3
3
3
3
3
3
3
3
3
3
3
3
3
3
3
3
3
3
3
3
3
3
3
3
3
3
3
3
3
3
3
3
3
3
3
3
3
3
3
3
3
3
3
3
3
3
3
3
3
3
3
3
3
3
3
3
3
3
3
3
3
3
3
3
3
3
3
3
3
3
3
3
3
3
3
3
3
3
3
3
3
3
3
3
3
3
3
3
3
3
3
3
3
3
3
3
3
3
3
3
3
3
3
3
3
3
3
3
3
3
3
3
3
3
3
3
3
3
3
3
3
3
3
3
3
3
3
3
3
3
3
3
3
3
3
3
3
3
3
3
3
3
3
3
3
3
3
3
3
3
3
3
POINT_DATA 212
FIELD FieldData 8
DISPLACEMENT 3 212  float
0.0000000e+00 0.0000000e+00 0.0000000e+00 
-5.7177516e-05 0.0000000e+00 -3.1449479e-05 
-1.1198394e-04 0.0000000e+00 -6.2687745e-05 
-1.6204819e-04 0.0000000e+00 -9.3714792e-05 
-2.0499916e-04 0.0000000e+00 -1.2453063e-04 
-2.3846577e-04 0.0000000e+00 -1.5513526e-04 
-2.6007692e-04 0.0000000e+00 -1.8552868e-04 
-2.6746152e-04 0.0000000e+00 -2.1571088e-04 
-2.5824850e-04 0.0000000e+00 -2.4568188e-04 
-2.3006675e-04 0.0000000e+00 -2.7544165e-04 
-1.8054519e-04 0.0000000e+00 -3.0499022e-04 
-1.0731271e-04 0.0000000e+00 -3.3432757e-04 
-7.9982319e-06 0.0000000e+00 -3.6345373e-04 
8.1624617e-05 0.0000000e+00 -3.8964403e-04 
1.2935154e-04 0.0000000e+00 -4.1562310e-04 
1.4290762e-04 0.0000000e+00 -4.4139099e-04 
1.3001794e-04 0.0000000e+00 -4.6694765e-04 
9.8407589e-05 0.0000000e+00 -4.9229310e-04 
5.5801629e-05 0.0000000e+00 -5.1742734e-04 
9.9251511e-06 0.0000000e+00 -5.4235035e-04 
-3.1496766e-05 0.0000000e+00 -5.6706218e-04 
-6.0739043e-05 0.0000000e+00 -5.9156277e-04 
-7.0076596e-05 0.0000000e+00 -6.1585213e-04 
-5.1784340e-05 0.0000000e+00 -6.3993031e-04 
1.8627956e-06 0.0000000e+00 -6.6379725e-04 
5.7709767e-05 0.0000000e+00 -6.8472838e-04 
8.1770224e-05 0.0000000e+00 -7.0544833e-04 
8.0522295e-05 0.0000000e+00 -7.2595698e-04 
6.0444112e-05 0.0000000e+00 -7.4625446e-04 
2.8013808e-05 0.0000000e+00 -7.6634076e-04 
-1.0290483e-05 0.0000000e+00 -7.8621582e-04 
-4.7990630e-05 0.0000000e+00 -8.0587965e-04 
-7.8608507e-05 0.0000000e+00 -8.2533224e-04 
-9.5665979e-05 0.0000000e+00 -8.4457366e-04 
-9.2684910e-05 0.0000000e+00 -8.6360390e-04 
-6.3187166e-05 0.0000000e+00 -8.8242290e-04 
-6.9462885e-07 0.0000000e+00 -9.0103067e-04 
6.0978105e-05 0.0000000e+00 -9.1670261e-04 
8.8326415e-05 0.0000000e+00 -9.3216333e-04 
8.8293411e-05 0.0000000e+00 -9.4741286e-04 
6.7822220e-05 0.0000000e+00 -9.6245116e-04 
3.3855940e-05 0.0000000e+00 -9.7727822e-04 
-6.6623084e-06 0.0000000e+00 -9.9189405e-04 
-4.6789410e-05 0.0000000e+00 -1.0062988e-03 
-7.9582249e-05 0.0000000e+00 -1.0204922e-03 
-9.8097720e-05 0.0000000e+00 -1.0344745e-03 
-9.5392701e-05 0.0000000e+00 -1.0482455e-03 
-6.4524080e-05 0.0000000e+00 -1.0618053e-03 
1.4512613e-06 0.0000000e+00 -1.0751539e-03 
6.9139853e-05 0.0000000e+00 -1.0855666e-03 
1.0450060e-04 0.0000000e+00 -1.0957682e-03 
1.1350514e-04 0.0000000e+00 -1.1057585e-03 
1.0212511e-04 0.0000000e+00 -1.1155376e-03 
7.6332166e-05 0.0000000e+00 -1.1251055e-03 
4.2097945e-05 0.0000000e+00 -1.1344622e-03 
5.3941003e-06 0.0000000e+00 -1.1436078e-03 
-2.7807730e-05 0.0000000e+00 -1.1525420e-03 
-5.1535899e-05 0.0000000e+00 -1.1612651e-03 
-5.9818762e-05 0.0000000e+00 -1.1697769e-03 
-4.6684676e-05 0.0000000e+00 -1.1780775e-03 
-6.1619985e-06 0.0000000e+00 -1.1861669e-03 
2.6998912e-05 0.0000000e+00 -1.1913205e-03 
2.0797574e-05 0.0000000e+00 -1.1962629e-03 
-1.4669549e-05 0.0000000e+00 -1.2009940e-03 
-6.9305992e-05 0.0000000e+00 -1.2055140e-03 
-1.3301529e-04 0.0000000e+00 -1.2098227e-03 
-1.9570097e-04 0.0000000e+00 -1.2139202e-03 
-2.4726655e-04 0.0000000e+00 -1.2178065e-03 
-2.7761562e-04 0.0000000e+00 -1.2214816e-03 
-2.7665167e-04 0.0000000e+00 -1.2249455e-03 
-2.3427822e-04 0.0000000e+00 -1.2281982e-03 
-1.4039886e-04 0.0000000e+00 -1.2312396e-03 
1.5082934e-05 0.0000000e+00 -1.2340698e-03 
-6.6651933e-06 0.0000000e+00 -7.1801257e-04 
1.5523295e-06 0.0000000e+00 -9.4640470e-04 
-5.7885740e-07 0.0000000e+00 -1.1969293e-03 
1.2093844e-06 0.0000000e+00 -1.3796577e-03 
-5.1349984e-06 0.0000000e+00 -1.4363389e-03 
1.2569111e-05 0.0000000e+00 -1.7288835e-03 
-5.3321546e-06 0.0000000e+00 -1.2269694e-03 
1.2418636e-06 0.0000000e+00 -1.3964922e-03 
-4.6308591e-07 0.0000000e+00 -1.6578913e-03 
9.6750750e-07 0.0000000e+00 -1.8476604e-03 
-4.1079988e-06 0.0000000e+00 -1.8598883e-03 
1.0055289e-05 0.0000000e+00 -2.3525944e-03 
-3.9991160e-06 0.0000000e+00 -1.7590064e-03 
9.3139778e-07 0.0000000e+00 -1.8827419e-03 
-3.4731443e-07 0.0000000e+00 -2.1525992e-03 
7.2563063e-07 0.0000000e+00 -2.3478442e-03 
-3.0809992e-06 0.0000000e+00 -2.3254973e-03 
7.5414669e-06 0.0000000e+00 -2.9738843e-03 
-2.6660773e-06 0.0000000e+00 -2.2119873e-03 
6.2093181e-07 0.0000000e+00 -2.3030175e-03 
-2.3154296e-07 0.0000000e+00 -2.5789163e-03 
4.8375375e-07 0.0000000e+00 -2.7780726e-03 
-2.0539994e-06 0.0000000e+00 -2.7310294e-03 
5.0276444e-06 0.0000000e+00 -3.4906175e-03 
-1.3330387e-06 0.0000000e+00 -2.5129577e-03 
3.1046591e-07 0.0000000e+00 -2.5843647e-03 
-1.1577148e-07 0.0000000e+00 -2.8638882e-03 
2.4187688e-07 0.0000000e+00 -3.0653917e-03 
-1.0269997e-06 0.0000000e+00 -3.0035307e-03 
2.5138222e-06 0.0000000e+00 -3.8298392e-03 
3.7405038e-16 0.0000000e+00 -2.6181447e-03 
4.2483869e-16 0.0000000e+00 -2.6830109e-03 
4.3990590e-16 0.0000000e+00 -2.9637425e-03 
4.0176731e-16 0.0000000e+00 -3.1660283e-03 
4.0408662e-16 0.0000000e+00 -3.0992280e-03 
4.3021560e-16 0.0000000e+00 -3.9477767e-03 
1.3330387e-06 0.0000000e+00 -2.5129577e-03 
-3.1046591e-07 0.0000000e+00 -2.5843647e-03 
1.1577148e-07 0.0000000e+00 -2.8638882e-03 
-2.4187688e-07 0.0000000e+00 -3.0653917e-03 
1.0269997e-06 0.0000000e+00 -3.0035307e-03 
-2.5138222e-06 0.0000000e+00 -3.8298392e-03 
2.6660773e-06 0.0000000e+00 -2.2119873e-03 
-6.2093181e-07 0.0000000e+00 -2.3030175e-03 
2.3154296e-07 0.0000000e+00 -2.5789163e-03 
-4.8375375e-07 0.0000000e+00 -2.7780726e-03 
2.0539994e-06 0.0000000e+00 -2.7310294e-03 
-5.0276444e-06 0.0000000e+00 -3.4906175e-03 
3.9991160e-06 0.0000000e+00 -1.7590064e-03 
-9.3139778e-07 0.0000000e+00 -1.8827419e-03 
3.4731443e-07 0.0000000e+00 -2.1525992e-03 
-7.2563063e-07 0.0000000e+00 -2.3478442e-03 
3.0809992e-06 0.0000000e+00 -2.3254973e-03 
-7.5414669e-06 0.0000000e+00 -2.9738843e-03 
5.3321546e-06 0.0000000e+00 -1.2269694e-03 
-1.2418636e-06 0.0000000e+00 -1.3964922e-03 
4.6308591e-07 0.0000000e+00 -1.6578913e-03 
-9.6750750e-07 0.0000000e+00 -1.8476604e-03 
4.1079988e-06 0.0000000e+00 -1.8598883e-03 
-1.0055289e-05 0.0000000e+00 -2.3525944e-03 
6.6651933e-06 0.0000000e+00 -7.1801257e-04 
-1.5523295e-06 0.0000000e+00 -9.4640470e-04 
5.7885740e-07 0.0000000e+00 -1.1969293e-03 
-1.2093844e-06 0.0000000e+00 -1.3796577e-03 
5.1349984e-06 0.0000000e+00 -1.4363389e-03 
-1.2569111e-05 0.0000000e+00 -1.7288835e-03 
0.0000000e+00 0.0000000e+00 0.0000000e+00 
5.7177516e-05 0.0000000e+00 -3.1449479e-05 
1.1198394e-04 0.0000000e+00 -6.2687745e-05 
1.6204819e-04 0.0000000e+00 -9.3714792e-05 
2.0499916e-04 0.0000000e+00 -1.2453063e-04 
2.3846577e-04 0.0000000e+00 -1.5513526e-04 
2.6007692e-04 0.0000000e+00 -1.8552868e-04 
2.6746152e-04 0.0000000e+00 -2.1571088e-04 
2.5824850e-04 0.0000000e+00 -2.4568188e-04 
2.3006675e-04 0.0000000e+00 -2.7544165e-04 
1.8054519e-04 0.0000000e+00 -3.0499022e-04 
1.0731271e-04 0.0000000e+00 -3.3432757e-04 
7.9982319e-06 0.0000000e+00 -3.6345373e-04 
-8.1624617e-05 0.0000000e+00 -3.8964403e-04 
-1.2935154e-04 0.0000000e+00 -4.1562310e-04 
-1.4290762e-04 0.0000000e+00 -4.4139099e-04 
-1.3001794e-04 0.0000000e+00 -4.6694765e-04 
-9.8407589e-05 0.0000000e+00 -4.9229310e-04 
-5.5801629e-05 0.0000000e+00 -5.1742734e-04 
-9.9251511e-06 0.0000000e+00 -5.4235035e-04 
3.1496766e-05 0.0000000e+00 -5.6706218e-04 
6.0739043e-05 0.0000000e+00 -5.9156277e-04 
7.0076596e-05 0.0000000e+00 -6.1585213e-04 
5.1784340e-05 0.0000000e+00 -6.3993031e-04 
-1.8627956e-06 0.0000000e+00 -6.6379725e-04 
-5.7709767e-05 0.0000000e+00 -6.8472838e-04 
-8.1770224e-05 0.0000000e+00 -7.0544833e-04 
-8.0522295e-05 0.0000000e+00 -7.2595698e-04 
-6.0444112e-05 0.0000000e+00 -7.4625446e-04 
-2.8013808e-05 0.0000000e+00 -7.6634076e-04 
1.0290483e-05 0.0000000e+00 -7.8621582e-04 
4.7990630e-05 0.0000000e+00 -8.0587965e-04 
7.8608507e-05 0.0000000e+00 -8.2533224e-04 
9.5665979e-05 0.0000000e+00 -8.4457366e-04 
9.2684910e-05 0.0000000e+00 -8.6360390e-04 
6.3187166e-05 0.0000000e+00 -8.8242290e-04 
6.9462885e-07 0.0000000e+00 -9.0103067e-04 
-6.0978105e-05 0.0000000e+00 -9.1670261e-04 
-8.8326415e-05 0.0000000e+00 -9.3216333e-04 
-8.8293411e-05 0.0000000e+00 -9.4741286e-04 
-6.7822220e-05 0.0000000e+00 -9.6245116e-04 
-3.3855940e-05 0.0000000e+00 -9.7727822e-04 
6.6623084e-06 0.0000000e+00 -9.9189405e-04 
4.6789410e-05 0.0000000e+00 -1.0062988e-03 
7.9582249e-05 0.0000000e+00 -1.0204922e-03 
9.8097720e-05 0.0000000e+00 -1.0344745e-03 
9.5392701e-05 0.0000000e+00 -1.0482455e-03 
6.4524080e-05 0.0000000e+00 -1.0618053e-03 
-1.4512613e-06 0.0000000e+00 -1.0751539e-03 
-6.9139853e-05 0.0000000e+00 -1.0855666e-03 
-1.0450060e-04 0.0000000e+00 -1.0957682e-03 
-1.1350514e-04 0.0000000e+00 -1.1057585e-03 
-1.0212511e-04 0.0000000e+00 -1.1155376e-03 
-7.6332166e-05 0.0000000e+00 -1.1251055e-03 
-4.2097945e-05 0.0000000e+00 -1.1344622e-03 
-5.3941003e-06 0.0000000e+00 -1.1436078e-03 
2.7807730e-05 0.0000000e+00 -1.1525420e-03 
5.1535899e-05 0.0000000e+00 -1.1612651e-03 
5.9818762e-05 0.0000000e+00 -1.1697769e-03 
4.6684676e-05 0.0000000e+00 -1.1780775e-03 
6.1619985e-06 0.0000000e+00 -1.1861669e-03 
-2.6998912e-05 0.0000000e+00 -1.1913205e-03 
-2.0797574e-05 0.0000000e+00 -1.1962629e-03 
1.4669549e-05 0.0000000e+00 -1.2009940e-03 
6.9305992e-05 0.0000000e+00 -1.2055140e-03 
1.3301529e-04 0.0000000e+00 -1.2098227e-03 
1.9570097e-04 0.0000000e+00 -1.2139202e-03 
2.4726655e-04 0.0000000e+00 -1.2178065e-03 
2.7761562e-04 0.0000000e+00 -1.2214816e-03 
2.7665167e-04 0.0000000e+00 -1.2249455e-03 
2.3427822e-04 0.0000000e+00 -1.2281982e-03 
1.4039886e-04 0.0000000e+00 -1.2312396e-03 
-1.5082934e-05 0.0000000e+00 -1.2340698e-03 
ROTATION 3 212  float
0.0000000e+00 -2.3029080e-04 0.0000000e+00 
0.0000000e+00 -2.2554862e-04 0.0000000e+00 
0.0000000e+00 -2.1132207e-04 0.0000000e+00 
0.0000000e+00 -1.8761116e-04 0.0000000e+00 
0.0000000e+00 -1.5441589e-04 0.0000000e+00 
0.0000000e+00 -1.1173626e-04 0.0000000e+00 
0.0000000e+00 -5.9572256e-05 0.0000000e+00 
0.0000000e+00 2.0761042e-06 0.0000000e+00 
0.0000000e+00 7.3208830e-05 0.0000000e+00 
0.0000000e+00 1.5382591e-04 0.0000000e+00 
0.0000000e+00 2.4392737e-04 0.0000000e+00 
0.0000000e+00 3.4351318e-04 0.0000000e+00 
0.0000000e+00 4.5258336e-04 0.0000000e+00 
0.0000000e+00 2.6954949e-04 0.0000000e+00 
0.0000000e+00 1.1741596e-04 0.0000000e+00 
0.0000000e+00 -3.8172434e-06 0.0000000e+00 
0.0000000e+00 -9.4150128e-05 0.0000000e+00 
0.0000000e+00 -1.5358269e-04 0.0000000e+00 
0.0000000e+00 -1.8211493e-04 0.0000000e+00 
0.0000000e+00 -1.7974684e-04 0.0000000e+00 
0.0000000e+00 -1.4647844e-04 0.0000000e+00 
0.0000000e+00 -8.2309707e-05 0.0000000e+00 
0.0000000e+00 1.2759346e-05 0.0000000e+00 
0.0000000e+00 1.3872872e-04 0.0000000e+00 
0.0000000e+00 2.9559844e-04 0.0000000e+00 
0.0000000e+00 1.5549609e-04 0.0000000e+00 
0.0000000e+00 4.1306299e-05 0.0000000e+00 
0.0000000e+00 -4.6970978e-05 0.0000000e+00 
0.0000000e+00 -1.0933572e-04 0.0000000e+00 
0.0000000e+00 -1.4578794e-04 0.0000000e+00 
0.0000000e+00 -1.5632763e-04 0.0000000e+00 
0.0000000e+00 -1.4095480e-04 0.0000000e+00 
0.0000000e+00 -9.9669443e-05 0.0000000e+00 
0.0000000e+00 -3.2471555e-05 0.0000000e+00 
0.0000000e+00 6.0638860e-05 0.0000000e+00 
0.0000000e+00 1.7966180e-04 0.0000000e+00 
0.0000000e+00 3.2459726e-04 0.0000000e+00 
0.0000000e+00 1.7341334e-04 0.0000000e+00 
0.0000000e+00 5.0001876e-05 0.0000000e+00 
0.0000000e+00 -4.5637138e-05 0.0000000e+00 
0.0000000e+00 -1.1350369e-04 0.0000000e+00 
0.0000000e+00 -1.5359779e-04 0.0000000e+00 
0.0000000e+00 -1.6591944e-04 0.0000000e+00 
0.0000000e+00 -1.5046862e-04 0.0000000e+00 
0.0000000e+00 -1.0724536e-04 0.0000000e+00 
0.0000000e+00 -3.6249636e-05 0.0000000e+00 
0.0000000e+00 6.2518542e-05 0.0000000e+00 
0.0000000e+00 1.8905918e-04 0.0000000e+00 
0.0000000e+00 3.4337226e-04 0.0000000e+00 
0.0000000e+00 2.0211758e-04 0.0000000e+00 
0.0000000e+00 8.4749459e-05 0.0000000e+00 
0.0000000e+00 -8.7320777e-06 0.0000000e+00 
0.0000000e+00 -7.8327037e-05 0.0000000e+00 
0.0000000e+00 -1.2403542e-04 0.0000000e+00 
0.0000000e+00 -1.4585722e-04 0.0000000e+00 
0.0000000e+00 -1.4379245e-04 0.0000000e+00 
0.0000000e+00 -1.1784110e-04 0.0000000e+00 
0.0000000e+00 -6.8003166e-05 0.0000000e+00 
0.0000000e+00 5.7213456e-06 0.0000000e+00 
0.0000000e+00 1.0333243e-04 0.0000000e+00 
0.0000000e+00 2.2483010e-04 0.0000000e+00 
0.0000000e+00 4.7188165e-05 0.0000000e+00 
0.0000000e+00 -9.0067901e-05 0.0000000e+00 
0.0000000e+00 -1.8693811e-04 0.0000000e+00 
0.0000000e+00 -2.4342244e-04 0.0000000e+00 
0.0000000e+00 -2.5952092e-04 0.0000000e+00 
0.0000000e+00 -2.3523353e-04 0.0000000e+00 
0.0000000e+00 -1.7056029e-04 0.0000000e+00 
0.0000000e+00 -6.5501175e-05 0.0000000e+00 
0.0000000e+00 7.9943806e-05 0.0000000e+00 
0.0000000e+00 2.6577464e-04 0.0000000e+00 
0.0000000e+00 4.9199135e-04 0.0000000e+00 
0.0000000e+00 7.5859390e-04 0.0000000e+00 
0.0000000e+00 9.1215200e-04 0.0000000e+00 
0.0000000e+00 7.8133127e-04 0.0000000e+00 
0.0000000e+00 8.0549694e-04 0.0000000e+00 
0.0000000e+00 8.2114281e-04 0.0000000e+00 
0.0000000e+00 7.2235765e-04 0.0000000e+00 
0.0000000e+00 1.1671608e-03 0.0000000e+00 
0.0000000e+00 1.0799030e-03 0.0000000e+00 
0.0000000e+00 9.7524631e-04 0.0000000e+00 
0.0000000e+00 9.9457894e-04 0.0000000e+00 
0.0000000e+00 1.0070956e-03 0.0000000e+00 
0.0000000e+00 9.2806743e-04 0.0000000e+00 
0.0000000e+00 1.2839100e-03 0.0000000e+00 
0.0000000e+00 1.0141997e-03 0.0000000e+00 
0.0000000e+00 9.3570718e-04 0.0000000e+00 
0.0000000e+00 9.5020660e-04 0.0000000e+00 
0.0000000e+00 9.5959409e-04 0.0000000e+00 
0.0000000e+00 9.0032298e-04 0.0000000e+00 
0.0000000e+00 1.1672049e-03 0.0000000e+00 
0.0000000e+00 7.7340566e-04 0.0000000e+00 
0.0000000e+00 7.2107738e-04 0.0000000e+00 
0.0000000e+00 7.3074363e-04 0.0000000e+00 
0.0000000e+00 7.3700200e-04 0.0000000e+00 
0.0000000e+00 6.9748791e-04 0.0000000e+00 
0.0000000e+00 8.7540917e-04 0.0000000e+00 
0.0000000e+00 4.1588463e-04 0.0000000e+00 
0.0000000e+00 3.8972046e-04 0.0000000e+00 
0.0000000e+00 3.9455359e-04 0.0000000e+00 
0.0000000e+00 3.9768277e-04 0.0000000e+00 
0.0000000e+00 3.7792572e-04 0.0000000e+00 
0.0000000e+00 4.6688638e-04 0.0000000e+00 
0.0000000e+00 -3.5959993e-17 0.0000000e+00 
0.0000000e+00 -9.9888867e-18 0.0000000e+00 
0.0000000e+00 -3.9955547e-17 0.0000000e+00 
0.0000000e+00 2.1975552e-17 0.0000000e+00 
0.0000000e+00 -5.1942214e-17 0.0000000e+00 
0.0000000e+00 -2.9765006e-17 0.0000000e+00 
0.0000000e+00 -4.1588463e-04 0.0000000e+00 
0.0000000e+00 -3.8972046e-04 0.0000000e+00 
0.0000000e+00 -3.9455359e-04 0.0000000e+00 
0.0000000e+00 -3.9768277e-04 0.0000000e+00 
0.0000000e+00 -3.7792572e-04 0.0000000e+00 
0.0000000e+00 -4.6688638e-04 0.0000000e+00 
0.0000000e+00 -7.7340566e-04 0.0000000e+00 
0.0000000e+00 -7.2107738e-04 0.0000000e+00 
0.0000000e+00 -7.3074363e-04 0.0000000e+00 
0.0000000e+00 -7.3700200e-04 0.0000000e+00 
0.0000000e+00 -6.9748791e-04 0.0000000e+00 
0.0000000e+00 -8.7540917e-04 0.0000000e+00 
0.0000000e+00 -1.0141997e-03 0.0000000e+00 
0.0000000e+00 -9.3570718e-04 0.0000000e+00 
0.0000000e+00 -9.5020660e-04 0.0000000e+00 
0.0000000e+00 -9.5959409e-04 0.0000000e+00 
0.0000000e+00 -9.0032298e-04 0.0000000e+00 
0.0000000e+00 -1.1672049e-03 0.0000000e+00 
0.0000000e+00 -1.0799030e-03 0.0000000e+00 
0.0000000e+00 -9.7524631e-04 0.0000000e+00 
0.0000000e+00 -9.9457894e-04 0.0000000e+00 
0.0000000e+00 -1.0070956e-03 0.0000000e+00 
0.0000000e+00 -9.2806743e-04 0.0000000e+00 
0.0000000e+00 -1.2839100e-03 0.0000000e+00 
0.0000000e+00 -9.1215200e-04 0.0000000e+00 
0.0000000e+00 -7.8133127e-04 0.0000000e+00 
0.0000000e+00 -8.0549694e-04 0.0000000e+00 
0.0000000e+00 -8.2114281e-04 0.0000000e+00 
0.0000000e+00 -7.2235765e-04 0.0000000e+00 
0.0000000e+00 -1.1671608e-03 0.0000000e+00 
0.0000000e+00 2.3029080e-04 0.0000000e+00 
0.0000000e+00 2.2554862e-04 0.0000000e+00 
0.0000000e+00 2.1132207e-04 0.0000000e+00 
0.0000000e+00 1.8761116e-04 0.0000000e+00 
0.0000000e+00 1.5441589e-04 0.0000000e+00 
0.0000000e+00 1.1173626e-04 0.0000000e+00 
0.0000000e+00 5.9572256e-05 0.0000000e+00 
0.0000000e+00 -2.0761042e-06 0.0000000e+00 
0.0000000e+00 -7.3208830e-05 0.0000000e+00 
0.0000000e+00 -1.5382591e-04 0.0000000e+00 
0.0000000e+00 -2.4392737e-04 0.0000000e+00 
0.0000000e+00 -3.4351318e-04 0.0000000e+00 
0.0000000e+00 -4.5258336e-04 0.0000000e+00 
0.0000000e+00 -2.6954949e-04 0.0000000e+00 
0.0000000e+00 -1.1741596e-04 0.0000000e+00 
0.0000000e+00 3.8172434e-06 0.0000000e+00 
0.0000000e+00 9.4150128e-05 0.0000000e+00 
0.0000000e+00 1.5358269e-04 0.0000000e+00 
0.0000000e+00 1.8211493e-04 0.0000000e+00 
0.0000000e+00 1.7974684e-04 0.0000000e+00 
0.0000000e+00 1.4647844e-04 0.0000000e+00 
0.0000000e+00 8.2309707e-05 0.0000000e+00 
0.0000000e+00 -1.2759346e-05 0.0000000e+00 
0.0000000e+00 -1.3872872e-04 0.0000000e+00 
0.0000000e+00 -2.9559844e-04 0.0000000e+00 
0.0000000e+00 -1.5549609e-04 0.0000000e+00 
0.0000000e+00 -4.1306299e-05 0.0000000e+00 
0.0000000e+00 4.6970978e-05 0.0000000e+00 
0.0000000e+00 1.0933572e-04 0.0000000e+00 
0.0000000e+00 1.4578794e-04 0.0000000e+00 
0.0000000e+00 1.5632763e-04 0.0000000e+00 
0.0000000e+00 1.4095480e-04 0.0000000e+00 
0.0000000e+00 9.9669443e-05 0.0000000e+00 
0.0000000e+00 3.2471555e-05 0.0000000e+00 
0.0000000e+00 -6.0638860e-05 0.0000000e+00 
0.0000000e+00 -1.7966180e-04 0.0000000e+00 
0.0000000e+00 -3.2459726e-04 0.0000000e+00 
0.0000000e+00 -1.7341334e-04 0.0000000e+00 
0.0000000e+00 -5.0001876e-05 0.0000000e+00 
0.0000000e+00 4.5637138e-05 0.0000000e+00 
0.0000000e+00 1.1350369e-04 0.0000000e+00 
0.0000000e+00 1.5359779e-04 0.0000000e+00 
0.0000000e+00 1.6591944e-04 0.0000000e+00 
0.0000000e+00 1.5046862e-04 0.0000000e+00 
0.0000000e+00 1.0724536e-04 0.0000000e+00 
0.0000000e+00 3.6249636e-05 0.0000000e+00 
0.0000000e+00 -6.2518542e-05 0.0000000e+00 
0.0000000e+00 -1.8905918e-04 0.0000000e+00 
0.0000000e+00 -3.4337226e-04 0.0000000e+00 
0.0000000e+00 -2.0211758e-04 0.0000000e+00 
0.0000000e+00 -8.4749459e-05 0.0000000e+00 
0.0000000e+00 8.7320777e-06 0.0000000e+00 
0.0000000e+00 7.8327037e-05 0.0000000e+00 
0.0000000e+00 1.2403542e-04 0.0000000e+00 
0.0000000e+00 1.4585722e-04 0.0000000e+00 
0.0000000e+00 1.4379245e-04 0.0000000e+00 
0.0000000e+00 1.1784110e-04 0.0000000e+00 
0.0000000e+00 6.8003166e-05 0.0000000e+00 
0.0000000e+00 -5.7213456e-06 0.0000000e+00 
0.0000000e+00 -1.0333243e-04 0.0000000e+00 
0.0000000e+00 -2.2483010e-04 0.0000000e+00 
0.0000000e+00 -4.7188165e-05 0.0000000e+00 
0.0000000e+00 9.0067901e-05 0.0000000e+00 
0.0000000e+00 1.8693811e-04 0.0000000e+00 
0.0000000e+00 2.4342244e-04 0.0000000e+00 