# vtk DataFile Version 4.0
vtk output
ASCII
DATASET UNSTRUCTURED_GRID
POINTS 212 float
0.0000000e+00 0.0000000e+00 0.0000000e+00 
0.0000000e+00 0.0000000e+00 2.5000000e-01 
0.0000000e+00 0.0000000e+00 5.0000000e-01 
0.0000000e+00 0.0000000e+00 7.5000000e-01 
0.0000000e+00 0.0000000e+00 1.0000000e+00 
0.0000000e+00 0.0000000e+00 1.2500000e+00 
0.0000000e+00 0.0000000e+00 1.5000000e+00 
0.0000000e+00 0.0000000e+00 1.7500000e+00 
0.0000000e+00 0.0000000e+00 2.0000000e+00 
0.0000000e+00 0.0000000e+00 2.2500000e+00 
0.0000000e+00 0.0000000e+00 2.5000000e+00 
0.0000000e+00 0.0000000e+00 2.7500000e+00 
0.0000000e+00 0.0000000e+00 3.0000000e+00 
0.0000000e+00 0.0000000e+00 3.2500000e+00 
0.0000000e+00 0.0000000e+00 3.5000000e+00 
0.0000000e+00 0.0000000e+00 3.7500000e+00 
0.0000000e+00 0.0000000e+00 4.0000000e+00 
0.0000000e+00 0.0000000e+00 4.2500000e+00 
0.0000000e+00 0.0000000e+00 4.5000000e+00 
0.0000000e+00 0.0000000e+00 4.7500000e+00 
0.0000000e+00 0.0000000e+00 5.0000000e+00 
0.0000000e+00 0.0000000e+00 5.2500000e+00 
0.0000000e+00 0.0000000e+00 5.5000000e+00 
0.0000000e+00 0.0000000e+00 5.7500000e+00 
0.0000000e+00 0.0000000e+00 6.0000000e+00 
0.0000000e+00 0.0000000e+00 6.2500000e+00 
0.0000000e+00 0.0000000e+00 6.5000000e+00 
0.0000000e+00 0.0000000e+00 6.7500000e+00 
0.0000000e+00 0.0000000e+00 7.0000000e+00 
0.0000000e+00 0.0000000e+00 7.2500000e+00 
0.0000000e+00 0.0000000e+00 7.5000000e+00 
0.0000000e+00 0.0000000e+00 7.7500000e+00 
0.0000000e+00 0.0000000e+00 8.0000000e+00 
0.0000000e+00 0.0000000e+00 8.2500000e+00 
0.0000000e+00 0.0000000e+00 8.5000000e+00 
0.0000000e+00 0.0000000e+00 8.7500000e+00 
0.0000000e+00 0.0000000e+00 9.0000000e+00 
0.0000000e+00 0.0000000e+00 9.2500000e+00 
0.0000000e+00 0.0000000e+00 9.5000000e+00 
0.0000000e+00 0.0000000e+00 9.7500000e+00 
0.0000000e+00 0.0000000e+00 1.0000000e+01 
0.0000000e+00 0.0000000e+00 1.0250000e+01 
0.0000000e+00 0.0000000e+00 1.0500000e+01 
0.0000000e+00 0.0000000e+00 1.0750000e+01 
0.0000000e+00 0.0000000e+00 1.1000000e+01 
0.0000000e+00 0.0000000e+00 1.1250000e+01 
0.0000000e+00 0.0000000e+00 1.1500000e+01 
0.0000000e+00 0.0000000e+00 1.1750000e+01 
0.0000000e+00 0.0000000e+00 1.2000000e+01 
0.0000000e+00 0.0000000e+00 1.2250000e+01 
0.0000000e+00 0.0000000e+00 1.2500000e+01 
0.0000000e+00 0.0000000e+00 1.2750000e+01 
0.0000000e+00 0.0000000e+00 1.3000000e+01 
0.0000000e+00 0.0000000e+00 1.3250000e+01 
0.0000000e+00 0.0000000e+00 1.3500000e+01 
0.0000000e+00 0.0000000e+00 1.3750000e+01 
0.0000000e+00 0.0000000e+00 1.4000000e+01 
0.0000000e+00 0.0000000e+00 1.4250000e+01 
0.0000000e+00 0.0000000e+00 1.4500000e+01 
0.0000000e+00 0.0000000e+00 1.4750000e+01 
0.0000000e+00 0.0000000e+00 1.5000000e+01 
0.0000000e+00 0.0000000e+00 1.5250000e+01 
0.0000000e+00 0.0000000e+00 1.5500000e+01 
0.0000000e+00 0.0000000e+00 1.5750000e+01 
0.0000000e+00 0.0000000e+00 1.6000000e+01 
0.0000000e+00 0.0000000e+00 1.6250000e+01 
0.0000000e+00 0.0000000e+00 1.6500000e+01 
0.0000000e+00 0.0000000e+00 1.6750000e+01 
0.0000000e+00 0.0000000e+00 1.7000000e+01 
0.0000000e+00 0.0000000e+00 1.7250000e+01 
0.0000000e+00 0.0000000e+00 1.7500000e+01 
0.0000000e+00 0.0000000e+00 1.7750000e+01 
0.0000000e+00 0.0000000e+00 1.8000000e+01 
5.0000000e-01 0.0000000e+00 3.0000000e+00 
5.0000000e-01 0.0000000e+00 6.0000000e+00 
5.0000000e-01 0.0000000e+00 9.0000000e+00 
5.0000000e-01 0.0000000e+00 1.2000000e+01 
5.0000000e-01 0.0000000e+00 1.5000000e+01 
5.0000000e-01 0.0000000e+00 1.8000000e+01 
1.0000000e+00 0.0000000e+00 3.0000000e+00 
1.0000000e+00 0.0000000e+00 6.0000000e+00 
1.0000000e+00 0.0000000e+00 9.0000000e+00 
1.0000000e+00 0.0000000e+00 1.2000000e+01 
1.0000000e+00 0.0000000e+00 1.5000000e+01 
1.0000000e+00 0.0000000e+00 1.8000000e+01 
1.5000000e+00 0.0000000e+00 3.0000000e+00 
1.5000000e+00 0.0000000e+00 6.0000000e+00 
1.5000000e+00 0.0000000e+00 9.0000000e+00 
1.5000000e+00 0.0000000e+00 1.2000000e+01 
1.5000000e+00 0.0000000e+00 1.5000000e+01 
1.5000000e+00 0.0000000e+00 1.8000000e+01 
2.0000000e+00 0.0000000e+00 3.0000000e+00 
2.0000000e+00 0.0000000e+00 6.0000000e+00 
2.0000000e+00 0.0000000e+00 9.0000000e+00 
2.0000000e+00 0.0000000e+00 1.2000000e+01 
2.0000000e+00 0.0000000e+00 1.5000000e+01 
2.0000000e+00 0.0000000e+00 1.8000000e+01 
2.5000000e+00 0.0000000e+00 3.0000000e+00 
2.5000000e+00 0.0000000e+00 6.0000000e+00 
2.5000000e+00 0.0000000e+00 9.0000000e+00 
2.5000000e+00 0.0000000e+00 1.2000000e+01 
2.5000000e+00 0.0000000e+00 1.5000000e+01 
2.5000000e+00 0.0000000e+00 1.8000000e+01 
3.0000000e+00 0.0000000e+00 3.0000000e+00 
3.0000000e+00 0.0000000e+00 6.0000000e+00 
3.0000000e+00 0.0000000e+00 9.0000000e+00 
3.0000000e+00 0.0000000e+00 1.2000000e+01 
3.0000000e+00 0.0000000e+00 1.5000000e+01 
3.0000000e+00 0.0000000e+00 1.8000000e+01 
3.5000000e+00 0.0000000e+00 3.0000000e+00 
3.5000000e+00 0.0000000e+00 6.0000000e+00 
3.5000000e+00 0.0000000e+00 9.0000000e+00 
3.5000000e+00 0.0000000e+00 1.2000000e+01 
3.5000000e+00 0.0000000e+00 1.5000000e+01 
3.5000000e+00 0.0000000e+00 1.8000000e+01 
4.0000000e+00 0.0000000e+00 3.0000000e+00 
4.0000000e+00 0.0000000e+00 6.0000000e+00 
4.0000000e+00 0.0000000e+00 9.0000000e+00 
4.0000000e+00 0.0000000e+00 1.2000000e+01 
4.0000000e+00 0.0000000e+00 1.5000000e+01 
4.0000000e+00 0.0000000e+00 1.8000000e+01 
4.5000000e+00 0.0000000e+00 3.0000000e+00 
4.5000000e+00 0.0000000e+00 6.0000000e+00 
4.5000000e+00 0.0000000e+00 9.0000000e+00 
4.5000000e+00 0.0000000e+00 1.2000000e+01 
4.5000000e+00 0.0000000e+00 1.5000000e+01 
4.5000000e+00 0.0000000e+00 1.8000000e+01 
5.0000000e+00 0.0000000e+00 3.0000000e+00 
5.0000000e+00 0.0000000e+00 6.0000000e+00 
5.0000000e+00 0.0000000e+00 9.0000000e+00 
5.0000000e+00 0.0000000e+00 1.2000000e+01 
5.0000000e+00 0.0000000e+00 1.5000000e+01 
5.0000000e+00 0.0000000e+00 1.8000000e+01 
5.5000000e+00 0.0000000e+00 3.0000000e+00 
5.5000000e+00 0.0000000e+00 6.0000000e+00 
5.5000000e+00 0.0000000e+00 9.0000000e+00 
5.5000000e+00 0.0000000e+00 1.2000000e+01 
5.5000000e+00 0.0000000e+00 1.5000000e+01 
5.5000000e+00 0.0000000e+00 1.8000000e+01 
6.0000000e+00 0.0000000e+00 0.0000000e+00 
6.0000000e+00 0.0000000e+00 2.5000000e-01 
6.0000000e+00 0.0000000e+00 5.0000000e-01 
6.0000000e+00 0.0000000e+00 7.5000000e-01 
6.0000000e+00 0.0000000e+00 1.0000000e+00 
6.0000000e+00 0.0000000e+00 1.2500000e+00 
6.0000000e+00 0.0000000e+00 1.5000000e+00 
6.0000000e+00 0.0000000e+00 1.7500000e+00 
6.0000000e+00 0.0000000e+00 2.0000000e+00 
6.0000000e+00 0.0000000e+00 2.2500000e+00 
6.0000000e+00 0.0000000e+00 2.5000000e+00 
6.0000000e+00 0.0000000e+00 2.7500000e+00 
6.0000000e+00 0.0000000e+00 3.0000000e+00 
6.0000000e+00 0.0000000e+00 3.2500000e+00 
6.0000000e+00 0.0000000e+00 3.5000000e+00 
6.0000000e+00 0.0000000e+00 3.7500000e+00 
6.0000000e+00 0.0000000e+00 4.0000000e+00 
6.0000000e+00 0.0000000e+00 4.2500000e+00 
6.0000000e+00 0.0000000e+00 4.5000000e+00 
6.0000000e+00 0.0000000e+00 4.7500000e+00 
6.0000000e+00 0.0000000e+00 5.0000000e+00 
6.0000000e+00 0.0000000e+00 5.2500000e+00 
6.0000000e+00 0.0000000e+00 5.5000000e+00 
6.0000000e+00 0.0000000e+00 5.7500000e+00 
6.0000000e+00 0.0000000e+00 6.0000000e+00 
6.0000000e+00 0.0000000e+00 6.2500000e+00 
6.0000000e+00 0.0000000e+00 6.5000000e+00 
6.0000000e+00 0.0000000e+00 6.7500000e+00 
6.0000000e+00 0.0000000e+00 7.0000000e+00 
6.0000000e+00 0.0000000e+00 7.2500000e+00 
6.0000000e+00 0.0000000e+00 7.5000000e+00 
6.0000000e+00 0.0000000e+00 7.7500000e+00 
6.0000000e+00 0.0000000e+00 8.0000000e+00 
6.0000000e+00 0.0000000e+00 8.2500000e+00 
6.0000000e+00 0.0000000e+00 8.5000000e+00 
6.0000000e+00 0.0000000e+00 8.7500000e+00 
6.0000000e+00 0.0000000e+00 9.0000000e+00 
6.0000000e+00 0.0000000e+00 9.2500000e+00 
6.0000000e+00 0.0000000e+00 9.5000000e+00 
6.0000000e+00 0.0000000e+00 9.7500000e+00 
6.0000000e+00 0.0000000e+00 1.0000000e+01 
6.0000000e+00 0.0000000e+00 1.0250000e+01 
6.0000000e+00 0.0000000e+00 1.0500000e+01 
6.0000000e+00 0.0000000e+00 1.0750000e+01 
6.0000000e+00 0.0000000e+00 1.1000000e+01 
6.0000000e+00 0.0000000e+00 1.1250000e+01 
6.0000000e+00 0.0000000e+00 1.1500000e+01 
6.0000000e+00 0.0000000e+00 1.1750000e+01 
6.0000000e+00 0.0000000e+00 1.2000000e+01 
6.0000000e+00 0.0000000e+00 1.2250000e+01 
6.0000000e+00 0.0000000e+00 1.2500000e+01 
6.0000000e+00 0.0000000e+00 1.2750000e+01 
6.0000000e+00 0.0000000e+00 1.3000000e+01 
6.0000000e+00 0.0000000e+00 1.3250000e+01 
6.0000000e+00 0.0000000e+00 1.3500000e+01 
6.0000000e+00 0.0000000e+00 1.3750000e+01 
6.0000000e+00 0.0000000e+00 1.4000000e+01 
6.0000000e+00 0.0000000e+00 1.4250000e+01 
6.0000000e+00 0.0000000e+00 1.4500000e+01 
6.0000000e+00 0.0000000e+00 1.4750000e+01 
6.0000000e+00 0.0000000e+00 1.5000000e+01 
6.0000000e+00 0.0000000e+00 1.5250000e+01 
6.0000000e+00 0.0000000e+00 1.5500000e+01 
6.0000000e+00 0.0000000e+00 1.5750000e+01 
6.0000000e+00 0.0000000e+00 1.6000000e+01 
6.0000000e+00 0.0000000e+00 1.6250000e+01 
6.0000000e+00 0.0000000e+00 1.6500000e+01 
6.0000000e+00 0.0000000e+00 1.6750000e+01 
6.0000000e+00 0.0000000e+00 1.7000000e+01 
6.0000000e+00 0.0000000e+00 1.7250000e+01 
6.0000000e+00 0.0000000e+00 1.7500000e+01 
6.0000000e+00 0.0000000e+00 1.7750000e+01 
6.0000000e+00 0.0000000e+00 1.8000000e+01 

CELLS 216 648
2 0 1
2 1 2
2 2 3
2 3 4
2 4 5
2 5 6
2 6 7
2 7 8
2 8 9
2 9 10
2 10 11
2 11 12
2 12 13
2 13 14
2 14 15
2 15 16
2 16 17
2 17 18
2 18 19
2 19 20
2 20 21
2 21 22
2 22 23
2 23 24
2 24 25
2 25 26
2 26 27
2 27 28
2 28 29
2 29 30
2 30 31
2 31 32
2 32 33
2 33 34
2 34 35
2 35 36
2 36 37
2 37 38
2 38 39
2 39 40
2 40 41
2 41 42
2 42 43
2 43 44
2 44 45
2 45 46
2 46 47
2 47 48
2 48 49
2 49 50
2 50 51
2 51 52
2 52 53
2 53 54
2 54 55
2 55 56
2 56 57
2 57 58
2 58 59
2 59 60
2 60 61
2 61 62
2 62 63
2 63 64
2 64 65
2 65 66
2 66 67
2 67 68
2 68 69
2 69 70
2 70 71
2 71 72
2 139 140
2 140 141
2 141 142
2 142 143
2 143 144
2 144 145
2 145 146
2 146 147
2 147 148
2 148 149
2 149 150
2 150 151
2 151 152
2 152 153
2 153 154
2 154 155
2 155 156
2 156 157
2 157 158
2 158 159
2 159 160
2 160 161
2 161 162
2 162 163
2 163 164
2 164 165
2 165 166
2 166 167
2 167 168
2 168 169
2 169 170
2 170 171
2 171 172
2 172 173
2 173 174
2 174 175
2 175 176
2 176 177
2 177 178
2 178 179
2 179 180
2 180 181
2 181 182
2 182 183
2 183 184
2 184 185
2 185 186
2 186 187
2 187 188
2 188 189
2 189 190
2 190 191
2 191 192
2 192 193
2 193 194
2 194 195
2 195 196
2 196 197
2 197 198
2 198 199
2 199 200
2 200 201
2 201 202
2 202 203
2 203 204
2 204 205
2 205 206
2 206 207
2 207 208
2 208 209
2 209 210
2 210 211
2 12 73
2 73 79
2 79 85
2 85 91
2 91 97
2 97 103
2 103 109
2 109 115
2 115 121
2 121 127
2 127 133
2 133 151
2 24 74
2 74 80
2 80 86
2 86 92
2 92 98
2 98 104
2 104 110
2 110 116
2 116 122
2 122 128
2 128 134
2 134 163
2 36 75
2 75 81
2 81 87
2 87 93
2 93 99
2 99 105
2 105 111
2 111 117
2 117 123
2 123 129
2 129 135
2 135 175
2 48 76
2 76 82
2 82 88
2 88 94
2 94 100
2 100 106
2 106 112
2 112 118
2 118 124
2 124 130
2 130 136
2 136 187
2 60 77
2 77 83
2 83 89
2 89 95
2 95 101
2 101 107
2 107 113
2 113 119
2 119 125
2 125 131
2 131 137
2 137 199
2 72 78
2 78 84
2 84 90
2 90 96
2 96 102
2 102 108
2 108 114
2 114 120
2 120 126
2 126 132
2 132 138
2 138 211

CELL_TYPES 216
3
3
3
3
3
3
3
3
3
3
3
3
3
3
3
3
3
3
3
3
3
3
3
3
3
3
3
3
3
3
3
3
3
3
3
3
3
3
3
3
3
3
3
3
3
3
3
3
3
3
3
3
3
3
3
3
3
3
3
3
3
3
3
3
3
3
3
3
3
3
3
3
3
3
3
3
3
3
3
3
3
3
3
3
3
3
3
3
3
3
3
3
3
3
3
3
3
3
3
3
3
3
3
3
3
3
3
3
3
3
3
3
3
3
3
3
3
3
3
3
3
3
3
3
3
3
3
3
3
3
3
3
3
3
3
3
3
3
3
3
3
3
3
3
3
3
3
3
3
3
3
3
3
3
3
3
3
3
3
3
3
3
3
3
3
3
3
3
3
3
3
3
3
3
3
3
3
3
3
3
3
3
3
3
3
3
3
3
3
3
3
3
3
3
3
3
3
3
3
3
3
3
3
3
3
3
3
3
3
3
3
3
3
3
3
3
POINT_DATA 212
FIELD FieldData 3
ADJOINT_DISPLACEMENT 3 212  float
0.0000000e+00 0.0000000e+00 0.0000000e+00 
-1.0456033e-02 0.0000000e+00 1.3886213e-15 
-2.0695832e-02 0.0000000e+00 2.7772425e-15 
-3.0503159e-02 0.0000000e+00 4.1658639e-15 
-3.9661784e-02 0.0000000e+00 5.5544850e-15 
-4.7955468e-02 0.0000000e+00 6.9431066e-15 
-5.5167973e-02 0.0000000e+00 8.3317278e-15 
-6.1083071e-02 0.0000000e+00 9.7203494e-15 
-6.5484524e-02 0.0000000e+00 1.1108970e-14 
-6.8156101e-02 0.0000000e+00 1.2497592e-14 
-6.8881556e-02 0.0000000e+00 1.3886213e-14 
-6.7444660e-02 0.0000000e+00 1.5274835e-14 
-6.3629188e-02 0.0000000e+00 1.6663456e-14 
-5.7717148e-02 0.0000000e+00 1.0181800e-05 
-5.1016230e-02 0.0000000e+00 2.0363599e-05 
-4.4848662e-02 0.0000000e+00 3.0545398e-05 
-4.0536679e-02 0.0000000e+00 4.0727198e-05 
-3.9402522e-02 0.0000000e+00 5.0908999e-05 
-4.2768423e-02 0.0000000e+00 6.1090795e-05 
-5.1956613e-02 0.0000000e+00 7.1272596e-05 
-6.8289340e-02 0.0000000e+00 8.1454396e-05 
-9.3088821e-02 0.0000000e+00 9.1636197e-05 
-1.2767731e-01 0.0000000e+00 1.0181800e-04 
-1.7337702e-01 0.0000000e+00 1.1199980e-04 
-2.3151022e-01 0.0000000e+00 1.2218159e-04 
-3.0744913e-01 0.0000000e+00 1.7310966e-04 
-4.0470833e-01 0.0000000e+00 2.2403771e-04 
-2.7182356e-01 0.0000000e+00 2.7496574e-04 
-1.5733054e-01 0.0000000e+00 3.2589381e-04 
-5.9765026e-02 0.0000000e+00 3.7682187e-04 
2.2337267e-02 0.0000000e+00 4.2774991e-04 
9.0440601e-02 0.0000000e+00 4.7867798e-04 
1.4600925e-01 0.0000000e+00 5.2960601e-04 
1.9050747e-01 0.0000000e+00 5.8053405e-04 
2.2539952e-01 0.0000000e+00 6.3146214e-04 
2.5214970e-01 0.0000000e+00 6.8239018e-04 
2.7222225e-01 0.0000000e+00 7.3331821e-04 
2.8932539e-01 0.0000000e+00 7.4394234e-04 
3.0610400e-01 0.0000000e+00 7.5456651e-04 
3.2242757e-01 0.0000000e+00 7.6519063e-04 
3.3816549e-01 0.0000000e+00 7.7581475e-04 
3.5318717e-01 0.0000000e+00 7.8643888e-04 
3.6736205e-01 0.0000000e+00 7.9706300e-04 
3.8055953e-01 0.0000000e+00 8.0768712e-04 
3.9264902e-01 0.0000000e+00 8.1831124e-04 
4.0349996e-01 0.0000000e+00 8.2893536e-04 
4.1298178e-01 0.0000000e+00 8.3955948e-04 
4.2096385e-01 0.0000000e+00 8.5018366e-04 
4.2731565e-01 0.0000000e+00 8.6080778e-04 
4.3253347e-01 0.0000000e+00 8.6302019e-04 
4.3721953e-01 0.0000000e+00 8.6523267e-04 
4.4140205e-01 0.0000000e+00 8.6744514e-04 
4.4510925e-01 0.0000000e+00 8.6965761e-04 
4.4836932e-01 0.0000000e+00 8.7187008e-04 
4.5121050e-01 0.0000000e+00 8.7408256e-04 
4.5366099e-01 0.0000000e+00 8.7629497e-04 
4.5574901e-01 0.0000000e+00 8.7850745e-04 
4.5750278e-01 0.0000000e+00 8.8071992e-04 
4.5895055e-01 0.0000000e+00 8.8293239e-04 
4.6012047e-01 0.0000000e+00 8.8514487e-04 
4.6104077e-01 0.0000000e+00 8.8735728e-04 
4.6184340e-01 0.0000000e+00 8.8779966e-04 
4.6263796e-01 0.0000000e+00 8.8824198e-04 
4.6341917e-01 0.0000000e+00 8.8868430e-04 
4.6418178e-01 0.0000000e+00 8.8912662e-04 
4.6492055e-01 0.0000000e+00 8.8956894e-04 
4.6563017e-01 0.0000000e+00 8.9001126e-04 
4.6630546e-01 0.0000000e+00 8.9045358e-04 
4.6694112e-01 0.0000000e+00 8.9089590e-04 
4.6753189e-01 0.0000000e+00 8.9133828e-04 
4.6807253e-01 0.0000000e+00 8.9178060e-04 
4.6855780e-01 0.0000000e+00 8.9222292e-04 
4.6898240e-01 0.0000000e+00 8.9266524e-04 
-6.3905582e-02 0.0000000e+00 -1.0969971e-02 
-2.3100960e-01 0.0000000e+00 1.1225061e-01 
2.7193573e-01 0.0000000e+00 -2.4269670e-02 
4.2734417e-01 0.0000000e+00 -7.8484444e-03 
4.6103477e-01 0.0000000e+00 -3.1164457e-04 
4.6898335e-01 0.0000000e+00 2.3285276e-04 
-6.4181983e-02 0.0000000e+00 -2.2967976e-02 
-2.3050898e-01 0.0000000e+00 1.9189240e-01 
2.7164921e-01 0.0000000e+00 -3.2784246e-02 
4.2737272e-01 0.0000000e+00 -1.2503192e-02 
4.6102875e-01 0.0000000e+00 -7.9405261e-04 
4.6898431e-01 0.0000000e+00 -2.0273491e-04 
-6.4458378e-02 0.0000000e+00 -3.5087243e-02 
-2.3000836e-01 0.0000000e+00 2.4267633e-01 
2.7136266e-01 0.0000000e+00 -2.8399795e-02 
4.2740124e-01 0.0000000e+00 -1.3852561e-02 
4.6102273e-01 0.0000000e+00 -7.1751169e-04 
4.6898523e-01 0.0000000e+00 -4.5349059e-04 
-6.4734779e-02 0.0000000e+00 -4.6420995e-02 
-2.2950774e-01 0.0000000e+00 2.6823121e-01 
2.7107614e-01 0.0000000e+00 -1.4705714e-02 
4.2742977e-01 0.0000000e+00 -1.2645679e-02 
4.6101671e-01 0.0000000e+00 -2.3966678e-04 
4.6898618e-01 0.0000000e+00 -5.5880711e-04 
-6.5011173e-02 0.0000000e+00 -5.6062467e-02 
-2.2900712e-01 0.0000000e+00 2.7218580e-01 
2.7078962e-01 0.0000000e+00 4.7086072e-03 
4.2745829e-01 0.0000000e+00 -9.6316729e-03 
4.6101072e-01 0.0000000e+00 4.8183717e-04 
4.6898714e-01 0.0000000e+00 -5.5807724e-04 
-6.5287575e-02 0.0000000e+00 -6.3104883e-02 
-2.2850652e-01 0.0000000e+00 2.5816888e-01 
2.7050310e-01 0.0000000e+00 2.6253777e-02 
4.2748684e-01 0.0000000e+00 -5.5596684e-03 
4.6100470e-01 0.0000000e+00 1.2893552e-03 
4.6898806e-01 0.0000000e+00 -4.9069378e-04 
-6.5563977e-02 0.0000000e+00 -6.6641472e-02 
-2.2800590e-01 0.0000000e+00 2.2980924e-01 
2.7021655e-01 0.0000000e+00 4.6340406e-02 
4.2751536e-01 0.0000000e+00 -1.1787941e-03 
4.6099868e-01 0.0000000e+00 2.0252424e-03 
4.6898901e-01 0.0000000e+00 -3.9604958e-04 
-6.5840371e-02 0.0000000e+00 -6.5765463e-02 
-2.2750528e-01 0.0000000e+00 1.9073568e-01 
2.6993003e-01 0.0000000e+00 6.1379097e-02 
4.2754388e-01 0.0000000e+00 2.7618238e-03 
4.6099266e-01 0.0000000e+00 2.5318537e-03 
4.6898997e-01 0.0000000e+00 -3.1353740e-04 
-6.6116773e-02 0.0000000e+00 -5.9570082e-02 
-2.2700466e-01 0.0000000e+00 1.4457698e-01 
2.6964352e-01 0.0000000e+00 6.7780465e-02 
4.2757243e-01 0.0000000e+00 5.5130585e-03 
4.6098664e-01 0.0000000e+00 2.6515445e-03 
4.6899089e-01 0.0000000e+00 -2.8255009e-04 
-6.6393167e-02 0.0000000e+00 -4.7148559e-02 
-2.2650404e-01 0.0000000e+00 9.4961904e-02 
2.6935700e-01 0.0000000e+00 6.1955109e-02 
4.2760095e-01 0.0000000e+00 6.3257827e-03 
4.6098065e-01 0.0000000e+00 2.2266696e-03 
4.6899185e-01 0.0000000e+00 -3.4248040e-04 
-6.6669568e-02 0.0000000e+00 -2.7594123e-02 
-2.2600342e-01 0.0000000e+00 4.5519259e-02 
2.6907045e-01 0.0000000e+00 4.0313646e-02 
4.2762947e-01 0.0000000e+00 4.4508697e-03 
4.6097463e-01 0.0000000e+00 1.0995839e-03 
4.6899280e-01 0.0000000e+00 -5.3272117e-04 
0.0000000e+00 0.0000000e+00 0.0000000e+00 
-4.2522917e-04 0.0000000e+00 -1.4557844e-15 
-1.0666933e-03 0.0000000e+00 -2.9115695e-15 
-2.1406277e-03 0.0000000e+00 -4.3673692e-15 
-3.8632669e-03 0.0000000e+00 -5.8231647e-15 
-6.4508463e-03 0.0000000e+00 -7.2789607e-15 
-1.0119601e-02 0.0000000e+00 -8.7347909e-15 
-1.5085765e-02 0.0000000e+00 -1.0190629e-14 
-2.1565575e-02 0.0000000e+00 -1.1646441e-14 
-2.9775266e-02 0.0000000e+00 -1.3102315e-14 
-3.9931070e-02 0.0000000e+00 -1.4558243e-14 
-5.2249227e-02 0.0000000e+00 -1.6014118e-14 
-6.6945970e-02 0.0000000e+00 -1.7470065e-14 
-8.5099421e-02 0.0000000e+00 -1.0181800e-05 
-1.0676208e-01 0.0000000e+00 -2.0363599e-05 
-1.3061170e-01 0.0000000e+00 -3.0545398e-05 
-1.5532605e-01 0.0000000e+00 -4.0727198e-05 
-1.7958289e-01 0.0000000e+00 -5.0908999e-05 
-2.0205998e-01 0.0000000e+00 -6.1090795e-05 
-2.2143511e-01 0.0000000e+00 -7.1272596e-05 
-2.3638602e-01 0.0000000e+00 -8.1454396e-05 
-2.4559048e-01 0.0000000e+00 -9.1636197e-05 
-2.4772625e-01 0.0000000e+00 -1.0181800e-04 
-2.4147111e-01 0.0000000e+00 -1.1199980e-04 
-2.2550280e-01 0.0000000e+00 -1.2218159e-04 
-1.9989228e-01 0.0000000e+00 -1.7310966e-04 
-1.6656815e-01 0.0000000e+00 -2.2403771e-04 
-1.2699464e-01 0.0000000e+00 -2.7496574e-04 
-8.2636036e-02 0.0000000e+00 -3.2589381e-04 
-3.4956619e-02 0.0000000e+00 -3.7682187e-04 
1.4579358e-02 0.0000000e+00 -4.2774991e-04 
6.4507626e-02 0.0000000e+00 -4.7867798e-04 
1.1336391e-01 0.0000000e+00 -5.2960601e-04 
1.5968396e-01 0.0000000e+00 -5.8053405e-04 
2.0200348e-01 0.0000000e+00 -6.3146214e-04 
2.3885822e-01 0.0000000e+00 -6.8239018e-04 
2.6878393e-01 0.0000000e+00 -7.3331821e-04 
2.9345649e-01 0.0000000e+00 -7.4394234e-04 
3.1561503e-01 0.0000000e+00 -7.5456651e-04 
3.3539015e-01 0.0000000e+00 -7.6519063e-04 
3.5291243e-01 0.0000000e+00 -7.7581475e-04 
3.6831245e-01 0.0000000e+00 -7.8643888e-04 
3.8172078e-01 0.0000000e+00 -7.9706300e-04 
3.9326802e-01 0.0000000e+00 -8.0768712e-04 
4.0308473e-01 0.0000000e+00 -8.1831124e-04 
4.1130149e-01 0.0000000e+00 -8.2893536e-04 
4.1804892e-01 0.0000000e+00 -8.3955948e-04 
4.2345756e-01 0.0000000e+00 -8.5018366e-04 
4.2765799e-01 0.0000000e+00 -8.6080778e-04 
4.3127760e-01 0.0000000e+00 -8.6302019e-04 
4.3483788e-01 0.0000000e+00 -8.6523267e-04 
4.3831056e-01 0.0000000e+00 -8.6744514e-04 
4.4166747e-01 0.0000000e+00 -8.6965761e-04 
4.4488040e-01 0.0000000e+00 -8.7187008e-04 
4.4792107e-01 0.0000000e+00 -8.7408256e-04 
4.5076135e-01 0.0000000e+00 -8.7629497e-04 
4.5337296e-01 0.0000000e+00 -8.7850745e-04 
4.5572770e-01 0.0000000e+00 -8.8071992e-04 
4.5779738e-01 0.0000000e+00 -8.8293239e-04 
4.5955375e-01 0.0000000e+00 -8.8514487e-04 
4.6096861e-01 0.0000000e+00 -8.8735728e-04 
4.6214652e-01 0.0000000e+00 -8.8779966e-04 
4.6321434e-01 0.0000000e+00 -8.8824198e-04 
4.6417731e-01 0.0000000e+00 -8.8868430e-04 
4.6504071e-01 0.0000000e+00 -8.8912662e-04 
4.6580979e-01 0.0000000e+00 -8.8956894e-04 
4.6648979e-01 0.0000000e+00 -8.9001126e-04 
4.6708599e-01 0.0000000e+00 -8.9045358e-04 
4.6760362e-01 0.0000000e+00 -8.9089590e-04 
4.6804795e-01 0.0000000e+00 -8.9133828e-04 
4.6842426e-01 0.0000000e+00 -8.9178060e-04 
4.6873775e-01 0.0000000e+00 -8.9222292e-04 
4.6899372e-01 0.0000000e+00 -8.9266524e-04 
ADJOINT_ROTATION 3 212  float
0.0000000e+00 -4.1968290e-02 0.0000000e+00 
0.0000000e+00 -4.1535821e-02 0.0000000e+00 
0.0000000e+00 -4.0238410e-02 0.0000000e+00 
0.0000000e+00 -3.8076062e-02 0.0000000e+00 
0.0000000e+00 -3.5048768e-02 0.0000000e+00 
0.0000000e+00 -3.1156540e-02 0.0000000e+00 
0.0000000e+00 -2.6399368e-02 0.0000000e+00 
0.0000000e+00 -2.0777259e-02 0.0000000e+00 
0.0000000e+00 -1.4290207e-02 0.0000000e+00 
0.0000000e+00 -6.9382167e-03 0.0000000e+00 
0.0000000e+00 1.2787140e-03 0.0000000e+00 
0.0000000e+00 1.0360585e-02 0.0000000e+00 
0.0000000e+00 2.0307396e-02 0.0000000e+00 
0.0000000e+00 2.6107403e-02 0.0000000e+00 
0.0000000e+00 2.6618466e-02 0.0000000e+00 
0.0000000e+00 2.1840587e-02 0.0000000e+00 
0.0000000e+00 1.1773769e-02 0.0000000e+00 
0.0000000e+00 -3.5819921e-03 0.0000000e+00 
0.0000000e+00 -2.4226695e-02 0.0000000e+00 
0.0000000e+00 -5.0160337e-02 0.0000000e+00 
0.0000000e+00 -8.1382923e-02 0.0000000e+00 
0.0000000e+00 -1.1789446e-01 0.0000000e+00 
0.0000000e+00 -1.5969492e-01 0.0000000e+00 
0.0000000e+00 -2.0678434e-01 0.0000000e+00 
0.0000000e+00 -2.5916269e-01 0.0000000e+00 
0.0000000e+00 -3.4737238e-01 0.0000000e+00 
0.0000000e+00 -4.2972505e-01 0.0000000e+00 
0.0000000e+00 4.9377939e-01 0.0000000e+00 
0.0000000e+00 4.2314088e-01 0.0000000e+00 
0.0000000e+00 3.5835946e-01 0.0000000e+00 
0.0000000e+00 2.9943508e-01 0.0000000e+00 
0.0000000e+00 2.4636778e-01 0.0000000e+00 
0.0000000e+00 1.9915755e-01 0.0000000e+00 
0.0000000e+00 1.5780438e-01 0.0000000e+00 
0.0000000e+00 1.2230830e-01 0.0000000e+00 
0.0000000e+00 9.2669278e-02 0.0000000e+00 
0.0000000e+00 6.8887323e-02 0.0000000e+00 
0.0000000e+00 6.7850545e-02 0.0000000e+00 
0.0000000e+00 6.6291444e-02 0.0000000e+00 
0.0000000e+00 6.4210013e-02 0.0000000e+00 
0.0000000e+00 6.1606254e-02 0.0000000e+00 
0.0000000e+00 5.8480170e-02 0.0000000e+00 
0.0000000e+00 5.4831758e-02 0.0000000e+00 
0.0000000e+00 5.0661020e-02 0.0000000e+00 
0.0000000e+00 4.5967955e-02 0.0000000e+00 
0.0000000e+00 4.0752564e-02 0.0000000e+00 
0.0000000e+00 3.5014845e-02 0.0000000e+00 
0.0000000e+00 2.8754801e-02 0.0000000e+00 
0.0000000e+00 2.1972429e-02 0.0000000e+00 
0.0000000e+00 1.9788956e-02 0.0000000e+00 
0.0000000e+00 1.7718345e-02 0.0000000e+00 
0.0000000e+00 1.5760599e-02 0.0000000e+00 
0.0000000e+00 1.3915714e-02 0.0000000e+00 
0.0000000e+00 1.2183692e-02 0.0000000e+00 
0.0000000e+00 1.0564533e-02 0.0000000e+00 
0.0000000e+00 9.0582361e-03 0.0000000e+00 
0.0000000e+00 7.6648025e-03 0.0000000e+00 
0.0000000e+00 6.3842316e-03 0.0000000e+00 
0.0000000e+00 5.2165231e-03 0.0000000e+00 
0.0000000e+00 4.1616773e-03 0.0000000e+00 
0.0000000e+00 3.2196944e-03 0.0000000e+00 
0.0000000e+00 3.1978688e-03 0.0000000e+00 
0.0000000e+00 3.1550177e-03 0.0000000e+00 
0.0000000e+00 3.0911416e-03 0.0000000e+00 
0.0000000e+00 3.0062397e-03 0.0000000e+00 
0.0000000e+00 2.9003127e-03 0.0000000e+00 
0.0000000e+00 2.7733601e-03 0.0000000e+00 
0.0000000e+00 2.6253823e-03 0.0000000e+00 
0.0000000e+00 2.4563789e-03 0.0000000e+00 
0.0000000e+00 2.2663502e-03 0.0000000e+00 
0.0000000e+00 2.0552960e-03 0.0000000e+00 
0.0000000e+00 1.8232166e-03 0.0000000e+00 
0.0000000e+00 1.5701116e-03 0.0000000e+00 
0.0000000e+00 2.3270233e-02 0.0000000e+00 
0.0000000e+00 -1.9056062e-01 0.0000000e+00 
0.0000000e+00 3.2321099e-02 0.0000000e+00 
0.0000000e+00 1.3114291e-02 0.0000000e+00 
0.0000000e+00 1.6288616e-03 0.0000000e+00 
0.0000000e+00 1.0822692e-03 0.0000000e+00 
0.0000000e+00 2.4419526e-02 0.0000000e+00 
0.0000000e+00 -1.2921613e-01 0.0000000e+00 
0.0000000e+00 2.9336608e-03 0.0000000e+00 
0.0000000e+00 5.7544075e-03 0.0000000e+00 
0.0000000e+00 3.5331878e-04 0.0000000e+00 
0.0000000e+00 6.7321240e-04 0.0000000e+00 
0.0000000e+00 2.3755277e-02 0.0000000e+00 
0.0000000e+00 -7.5129211e-02 0.0000000e+00 
0.0000000e+00 -1.9274995e-02 0.0000000e+00 
0.0000000e+00 -1.0722205e-04 0.0000000e+00 
0.0000000e+00 -6.0693413e-04 0.0000000e+00 
0.0000000e+00 3.4294126e-04 0.0000000e+00 
0.0000000e+00 2.1277482e-02 0.0000000e+00 
0.0000000e+00 -2.8299859e-02 0.0000000e+00 
0.0000000e+00 -3.4304868e-02 0.0000000e+00 
0.0000000e+00 -4.4705975e-03 0.0000000e+00 
0.0000000e+00 -1.2518972e-03 0.0000000e+00 
0.0000000e+00 9.1455695e-05 0.0000000e+00 
0.0000000e+00 1.6986145e-02 0.0000000e+00 
0.0000000e+00 1.1271926e-02 0.0000000e+00 
0.0000000e+00 -4.2155955e-02 0.0000000e+00 
0.0000000e+00 -7.3357197e-03 0.0000000e+00 
0.0000000e+00 -1.5815702e-03 0.0000000e+00 
0.0000000e+00 -8.1244252e-05 0.0000000e+00 
0.0000000e+00 1.0881263e-02 0.0000000e+00 
0.0000000e+00 4.3586142e-02 0.0000000e+00 
0.0000000e+00 -4.2828262e-02 0.0000000e+00 
0.0000000e+00 -8.7025873e-03 0.0000000e+00 
0.0000000e+00 -1.5959536e-03 0.0000000e+00 
0.0000000e+00 -1.7515860e-04 0.0000000e+00 
0.0000000e+00 2.9628372e-03 0.0000000e+00 
0.0000000e+00 6.8642788e-02 0.0000000e+00 
0.0000000e+00 -3.6321782e-02 0.0000000e+00 
0.0000000e+00 -8.5712010e-03 0.0000000e+00 
0.0000000e+00 -1.2950469e-03 0.0000000e+00 
0.0000000e+00 -1.9028732e-04 0.0000000e+00 
0.0000000e+00 -6.7691319e-03 0.0000000e+00 
0.0000000e+00 8.6441867e-02 0.0000000e+00 
0.0000000e+00 -2.2636522e-02 0.0000000e+00 
0.0000000e+00 -6.9415616e-03 0.0000000e+00 
0.0000000e+00 -6.7885040e-04 0.0000000e+00 
0.0000000e+00 -1.2663043e-04 0.0000000e+00 
0.0000000e+00 -1.8314645e-02 0.0000000e+00 
0.0000000e+00 9.6983373e-02 0.0000000e+00 
0.0000000e+00 -1.7724765e-03 0.0000000e+00 
0.0000000e+00 -3.8136677e-03 0.0000000e+00 
0.0000000e+00 2.5263600e-04 0.0000000e+00 
0.0000000e+00 1.5812066e-05 0.0000000e+00 
0.0000000e+00 -3.1673703e-02 0.0000000e+00 
0.0000000e+00 1.0026731e-01 0.0000000e+00 
0.0000000e+00 2.6270352e-02 0.0000000e+00 
0.0000000e+00 8.1247988e-04 0.0000000e+00 
0.0000000e+00 1.4994123e-03 0.0000000e+00 
0.0000000e+00 2.3704018e-04 0.0000000e+00 
0.0000000e+00 -4.6846300e-02 0.0000000e+00 
0.0000000e+00 9.6293680e-02 0.0000000e+00 
0.0000000e+00 6.1491963e-02 0.0000000e+00 
0.0000000e+00 6.9368812e-03 0.0000000e+00 
0.0000000e+00 3.0614785e-03 0.0000000e+00 
0.0000000e+00 5.3705391e-04 0.0000000e+00 
0.0000000e+00 -1.5567600e-03 0.0000000e+00 
0.0000000e+00 -1.9892300e-03 0.0000000e+00 
0.0000000e+00 -3.2866402e-03 0.0000000e+00 
0.0000000e+00 -5.4489905e-03 0.0000000e+00 
0.0000000e+00 -8.4762806e-03 0.0000000e+00 
0.0000000e+00 -1.2368511e-02 0.0000000e+00 
0.0000000e+00 -1.7125681e-02 0.0000000e+00 
0.0000000e+00 -2.2747792e-02 0.0000000e+00 
0.0000000e+00 -2.9234843e-02 0.0000000e+00 
0.0000000e+00 -3.6586832e-02 0.0000000e+00 
0.0000000e+00 -4.4803765e-02 0.0000000e+00 
0.0000000e+00 -5.3885635e-02 0.0000000e+00 
0.0000000e+00 -6.3832447e-02 0.0000000e+00 
0.0000000e+00 -8.0513716e-02 0.0000000e+00 
0.0000000e+00 -9.1906041e-02 0.0000000e+00 
0.0000000e+00 -9.8009430e-02 0.0000000e+00 
0.0000000e+00 -9.8823868e-02 0.0000000e+00 
0.0000000e+00 -9.4349369e-02 0.0000000e+00 
0.0000000e+00 -8.4585927e-02 0.0000000e+00 
0.0000000e+00 -6.9533549e-02 0.0000000e+00 
0.0000000e+00 -4.9192227e-02 0.0000000e+00 
0.0000000e+00 -2.3561962e-02 0.0000000e+00 
0.0000000e+00 7.3572453e-03 0.0000000e+00 
0.0000000e+00 4.3565392e-02 0.0000000e+00 
0.0000000e+00 8.5062481e-02 0.0000000e+00 
0.0000000e+00 1.1884551e-01 0.0000000e+00 
0.0000000e+00 1.4677149e-01 0.0000000e+00 
0.0000000e+00 1.6884038e-01 0.0000000e+00 
0.0000000e+00 1.8505222e-01 0.0000000e+00 
0.0000000e+00 1.9540697e-01 0.0000000e+00 
0.0000000e+00 1.9990467e-01 0.0000000e+00 
0.0000000e+00 1.9854528e-01 0.0000000e+00 
0.0000000e+00 1.9132884e-01 0.0000000e+00 
0.0000000e+00 1.7825532e-01 0.0000000e+00 
0.0000000e+00 1.5932474e-01 0.0000000e+00 
0.0000000e+00 1.3453709e-01 0.0000000e+00 
0.0000000e+00 1.0389236e-01 0.0000000e+00 
0.0000000e+00 9.3575157e-02 0.0000000e+00 
0.0000000e+00 8.3780289e-02 0.0000000e+00 
0.0000000e+00 7.4507736e-02 0.0000000e+00 
0.0000000e+00 6.5757520e-02 0.0000000e+00 
0.0000000e+00 5.7529628e-02 0.0000000e+00 
0.0000000e+00 4.9824063e-02 0.0000000e+00 
0.0000000e+00 4.2640824e-02 0.0000000e+00 
0.0000000e+00 3.5979912e-02 0.0000000e+00 
0.0000000e+00 2.9841328e-02 0.0000000e+00 
0.0000000e+00 2.4225071e-02 0.0000000e+00 
0.0000000e+00 1.9131141e-02 0.0000000e+00 
0.0000000e+00 1.4559537e-02 0.0000000e+00 
0.0000000e+00 1.4378556e-02 0.0000000e+00 
0.0000000e+00 1.4084714e-02 0.0000000e+00 
0.0000000e+00 1.3678008e-02 0.0000000e+00 
0.0000000e+00 1.3158439e-02 0.0000000e+00 
0.0000000e+00 1.2526008e-02 0.0000000e+00 
0.0000000e+00 1.1780714e-02 0.0000000e+00 
0.0000000e+00 1.0922558e-02 0.0000000e+00 
0.0000000e+00 9.9515384e-03 0.0000000e+00 
0.0000000e+00 8.8676568e-03 0.0000000e+00 
0.0000000e+00 7.6709120e-03 0.0000000e+00 
0.0000000e+00 6.3613048e-03 0.0000000e+00 
0.0000000e+00 4.9388343e-03 0.0000000e+00 
0.0000000e+00 4.4879466e-03 0.0000000e+00 
0.0000000e+00 4.0580835e-03 0.0000000e+00 
0.0000000e+00 3.6492464e-03 0.0000000e+00 
0.0000000e+00 3.2614344e-03 0.0000000e+00 
0.0000000e+00 2.8946479e-03 0.0000000e+00 
0.0000000e+00 2.5488867e-03 0.0000000e+00 
0.0000000e+00 2.2241510e-03 0.0000000e+00 