# vtk DataFile Version 4.0
vtk output
ASCII
DATASET UNSTRUCTURED_GRID
POINTS 30 float
0.0000000e+00 0.0000000e+00 0.0000000e+00 
0.0000000e+00 0.0000000e+00 8.0000001e-01 
0.0000000e+00 0.0000000e+00 1.6000000e+00 
0.0000000e+00 0.0000000e+00 2.4000001e+00 
0.0000000e+00 0.0000000e+00 3.2000000e+00 
0.0000000e+00 0.0000000e+00 4.0000000e+00 
0.0000000e+00 0.0000000e+00 4.8000002e+00 
0.0000000e+00 0.0000000e+00 5.5999999e+00 
0.0000000e+00 0.0000000e+00 6.4000001e+00 
0.0000000e+00 0.0000000e+00 7.1999998e+00 
0.0000000e+00 0.0000000e+00 8.0000000e+00 
1.0000000e+01 0.0000000e+00 0.0000000e+00 
1.0000000e+01 0.0000000e+00 8.0000001e-01 
1.0000000e+01 0.0000000e+00 1.6000000e+00 
1.0000000e+01 0.0000000e+00 2.4000001e+00 
1.0000000e+01 0.0000000e+00 3.2000000e+00 
1.0000000e+01 0.0000000e+00 4.0000000e+00 
1.0000000e+01 0.0000000e+00 4.8000002e+00 
1.0000000e+01 0.0000000e+00 5.5999999e+00 
1.0000000e+01 0.0000000e+00 6.4000001e+00 
1.0000000e+01 0.0000000e+00 7.1999998e+00 
1.0000000e+01 0.0000000e+00 8.0000000e+00 
2.0000000e+00 0.0000000e+00 4.0000000e+00 
4.0000000e+00 0.0000000e+00 4.0000000e+00 
6.0000000e+00 0.0000000e+00 4.0000000e+00 
8.0000000e+00 0.0000000e+00 4.0000000e+00 
2.0000000e+00 0.0000000e+00 8.0000000e+00 
4.0000000e+00 0.0000000e+00 8.0000000e+00 
6.0000000e+00 0.0000000e+00 8.0000000e+00 
8.0000000e+00 0.0000000e+00 8.0000000e+00 

CELLS 30 90
2 0 1
2 1 2
2 2 3
2 3 4
2 4 5
2 5 6
2 6 7
2 7 8
2 8 9
2 9 10
2 11 12
2 12 13
2 13 14
2 14 15
2 15 16
2 16 17
2 17 18
2 18 19
2 19 20
2 20 21
2 5 22
2 22 23
2 23 24
2 24 25
2 25 16
2 10 26
2 26 27
2 27 28
2 28 29
2 29 21

CELL_TYPES 30
3
3
3
3
3
3
3
3
3
3
3
3
3
3
3
3
3
3
3
3
3
3
3
3
3
3
3
3
3
3
POINT_DATA 30
FIELD FieldData 7
DISPLACEMENT 3 30  float
0.0000000e+00 0.0000000e+00 0.0000000e+00 
-2.8852094e-03 0.0000000e+00 -4.8420306e-06 
-5.7246774e-03 0.0000000e+00 -6.6479020e-06 
-8.3835674e-03 0.0000000e+00 -8.4537724e-06 
-1.0711537e-02 0.0000000e+00 -6.8026357e-06 
-1.2585320e-02 0.0000000e+00 -5.1514985e-06 
-1.4161608e-02 0.0000000e+00 -2.4221395e-06 
-1.5621397e-02 0.0000000e+00 1.0071781e-06 
-1.6882384e-02 0.0000000e+00 4.4364956e-06 
-1.7852446e-02 0.0000000e+00 6.1235714e-06 
-1.8403133e-02 0.0000000e+00 5.2323435e-06 
0.0000000e+00 0.0000000e+00 0.0000000e+00 
-3.2206613e-03 0.0000000e+00 8.3762880e-06 
-6.2415893e-03 0.0000000e+00 1.3883981e-05 
-8.8884626e-03 0.0000000e+00 1.9061230e-05 
-1.1038055e-02 0.0000000e+00 2.6024836e-05 
-1.2564709e-02 0.0000000e+00 3.5345794e-05 
-1.3777196e-02 0.0000000e+00 3.7381044e-05 
-1.5017688e-02 0.0000000e+00 3.9416293e-05 
-1.6230417e-02 0.0000000e+00 4.3980068e-05 
-1.7376881e-02 0.0000000e+00 4.5602170e-05 
-1.8401677e-02 0.0000000e+00 4.5515622e-05 
-1.2578139e-02 0.0000000e+00 2.4767667e-03 
-1.2570719e-02 0.0000000e+00 2.3977973e-03 
-1.2567144e-02 0.0000000e+00 7.0475490e-04 
-1.2567902e-02 0.0000000e+00 -8.2163437e-04 
-1.8406685e-02 0.0000000e+00 -5.3789228e-04 
-1.8410066e-02 0.0000000e+00 -1.9513094e-03 
-1.8407268e-02 0.0000000e+00 -2.4581701e-03 
-1.8404473e-02 0.0000000e+00 -1.7733290e-03 
ROTATION 3 30  float
0.0000000e+00 -3.6114005e-03 0.0000000e+00 
0.0000000e+00 -3.5967338e-03 0.0000000e+00 
0.0000000e+00 -3.4692052e-03 0.0000000e+00 
0.0000000e+00 -3.1452875e-03 0.0000000e+00 
0.0000000e+00 -2.6503650e-03 0.0000000e+00 
0.0000000e+00 -2.0098223e-03 0.0000000e+00 
0.0000000e+00 -1.9144254e-03 0.0000000e+00 
0.0000000e+00 -1.7177657e-03 0.0000000e+00 
0.0000000e+00 -1.4174232e-03 0.0000000e+00 
0.0000000e+00 -9.7897497e-04 0.0000000e+00 
0.0000000e+00 -3.6948692e-04 0.0000000e+00 
0.0000000e+00 -4.0680659e-03 0.0000000e+00 
0.0000000e+00 -3.9413478e-03 0.0000000e+00 
0.0000000e+00 -3.5725024e-03 0.0000000e+00 
0.0000000e+00 -3.0228968e-03 0.0000000e+00 
0.0000000e+00 -2.3226563e-03 0.0000000e+00 
0.0000000e+00 -1.4724043e-03 0.0000000e+00 
0.0000000e+00 -1.5459623e-03 0.0000000e+00 
0.0000000e+00 -1.5424158e-03 0.0000000e+00 
0.0000000e+00 -1.4839544e-03 0.0000000e+00 
0.0000000e+00 -1.3687399e-03 0.0000000e+00 
0.0000000e+00 -1.1833069e-03 0.0000000e+00 
0.0000000e+00 -5.3745380e-04 0.0000000e+00 
0.0000000e+00 5.5521424e-04 0.0000000e+00 
0.0000000e+00 9.7461435e-04 0.0000000e+00 
0.0000000e+00 3.7547591e-04 0.0000000e+00 
0.0000000e+00 6.8583188e-04 0.0000000e+00 
0.0000000e+00 5.6097197e-04 0.0000000e+00 
0.0000000e+00 -4.9303275e-05 0.0000000e+00 
0.0000000e+00 -6.3072954e-04 0.0000000e+00 
REACTION 3 30  float
1.4437687e+03 -0.0000000e+00 1.2710331e+04 
2.9103830e-11 -0.0000000e+00 -0.0000000e+00 
-5.8207661e-10 -0.0000000e+00 -0.0000000e+00 
1.0186341e-10 -0.0000000e+00 1.8189894e-12 
1.0477379e-09 -0.0000000e+00 -0.0000000e+00 
1.1132215e-09 -0.0000000e+00 3.0922820e-11 
7.1777322e-09 -0.0000000e+00 5.8571459e-10 
8.1490725e-10 -0.0000000e+00 -3.2741809e-11 
-5.8716978e-09 -0.0000000e+00 -4.0017767e-11 
5.0749804e-10 -0.0000000e+00 -1.2732926e-11 
-4.6138666e-09 -0.0000000e+00 2.3646862e-11 
1.2473816e+04 -0.0000000e+00 -2.1987756e+04 
-7.0394890e-10 -0.0000000e+00 3.2741809e-11 
-7.7852746e-10 -0.0000000e+00 -1.2732926e-10 
-9.0221874e-10 -0.0000000e+00 8.3673513e-11 
3.5543053e-09 -0.0000000e+00 9.0949470e-11 
5.9444574e-09 -0.0000000e+00 4.3655746e-10 
8.7311491e-10 -0.0000000e+00 -4.3655746e-11 
-2.4306246e-09 -0.0000000e+00 3.6379788e-11 
-1.2514647e-09 -0.0000000e+00 7.7488949e-10 
-8.9676178e-10 -0.0000000e+00 1.8189894e-12 
-1.8626451e-09 -0.0000000e+00 2.3355824e-09 
1.7280399e-10 -0.0000000e+00 -9.4405550e-10 
1.0004442e-10 -0.0000000e+00 8.1854523e-11 
-3.6925485e-10 -0.0000000e+00 2.4792826e-09 
-6.7175279e-09 -0.0000000e+00 -6.5483619e-11 
4.4019544e-10 -0.0000000e+00 -5.2750693e-11 
5.0786184e-09 -0.0000000e+00 1.7735147e-11 
3.7252903e-09 -0.0000000e+00 -4.7980393e-09 
-3.7252903e-09 -0.0000000e+00 -2.9103830e-11 
REACTION_MOMENT 3 30  float
-0.0000000e+00 1.7462298e-10 -0.0000000e+00 
-0.0000000e+00 1.7462298e-10 -0.0000000e+00 
-0.0000000e+00 -1.2223609e-09 -0.0000000e+00 
-0.0000000e+00 9.3132257e-10 -0.0000000e+00 
-0.0000000e+00 -1.6298145e-09 -0.0000000e+00 
-0.0000000e+00 -1.7025741e-09 -0.0000000e+00 
-0.0000000e+00 -4.7730282e-09 -0.0000000e+00 
-0.0000000e+00 3.2159733e-09 -0.0000000e+00 
-0.0000000e+00 2.2555469e-09 -0.0000000e+00 
-0.0000000e+00 2.3173925e-09 -0.0000000e+00 
-0.0000000e+00 8.0399332e-10 -0.0000000e+00 
-0.0000000e+00 2.3283064e-10 -0.0000000e+00 
-0.0000000e+00 -1.1641532e-10 -0.0000000e+00 
-0.0000000e+00 5.5297278e-10 -0.0000000e+00 
-0.0000000e+00 -5.5297278e-10 -0.0000000e+00 
-0.0000000e+00 -3.4924597e-10 -0.0000000e+00 
-0.0000000e+00 -0.0000000e+00 -0.0000000e+00 
-0.0000000e+00 -4.6566129e-10 -0.0000000e+00 
-0.0000000e+00 -1.9063009e-09 -0.0000000e+00 
-0.0000000e+00 -6.2573235e-10 -0.0000000e+00 
-0.0000000e+00 -2.6193447e-10 -0.0000000e+00 
-0.0000000e+00 -2.7648639e-10 -0.0000000e+00 
-0.0000000e+00 -4.3655746e-11 -0.0000000e+00 
-0.0000000e+00 -2.5465852e-11 -0.0000000e+00 
-0.0000000e+00 -3.0922820e-11 -0.0000000e+00 
-0.0000000e+00 -5.4569682e-11 -0.0000000e+00 
-0.0000000e+00 -4.0017767e-11 -0.0000000e+00 
-0.0000000e+00 -9.0949470e-12 -0.0000000e+00 
-0.0000000e+00 -3.6379788e-12 -0.0000000e+00 
-0.0000000e+00 -1.4551915e-11 -0.0000000e+00 
VOLUME_ACCELERATION 3 30  float
0.0000000e+00 0.0000000e+00 0.0000000e+00 
0.0000000e+00 0.0000000e+00 0.0000000e+00 
0.0000000e+00 0.0000000e+00 0.0000000e+00 
0.0000000e+00 0.0000000e+00 0.0000000e+00 
0.0000000e+00 0.0000000e+00 0.0000000e+00 
0.0000000e+00 0.0000000e+00 0.0000000e+00 
0.0000000e+00 0.0000000e+00 0.0000000e+00 
0.0000000e+00 0.0000000e+00 0.0000000e+00 
0.0000000e+00 0.0000000e+00 0.0000000e+00 
0.0000000e+00 0.0000000e+00 0.0000000e+00 
0.0000000e+00 0.0000000e+00 0.0000000e+00 
0.0000000e+00 0.0000000e+00 0.0000000e+00 
0.0000000e+00 0.0000000e+00 0.0000000e+00 
0.0000000e+00 0.0000000e+00 0.0000000e+00 
0.0000000e+00 0.0000000e+00 0.0000000e+00 
0.0000000e+00 0.0000000e+00 0.0000000e+00 
0.0000000e+00 0.0000000e+00 0.0000000e+00 
0.0000000e+00 0.0000000e+00 0.0000000e+00 
0.0000000e+00 0.0000000e+00 0.0000000e+00 
0.0000000e+00 0.0000000e+00 0.0000000e+00 
0.0000000e+00 0.0000000e+00 0.0000000e+00 
0.0000000e+00 0.0000000e+00 0.0000000e+00 
0.0000000e+00 0.0000000e+00 0.0000000e+00 
0.0000000e+00 0.0000000e+00 0.0000000e+00 
0.0000000e+00 0.0000000e+00 0.0000000e+00 
0.0000000e+00 0.0000000e+00 0.0000000e+00 
0.0000000e+00 0.0000000e+00 0.0000000e+00 
0.0000000e+00 0.0000000e+00 0.0000000e+00 
0.0000000e+00 0.0000000e+00 0.0000000e+00 
0.0000000e+00 0.0000000e+00 0.0000000e+00 
POINT_LOAD 3 30  float
0.0000000e+00 0.0000000e+00 0.0000000e+00 
8.2222686e+03 0.0000000e+00 -7.9699194e+03 
0.0000000e+00 0.0000000e+00 0.0000000e+00 
-2.4987925e+03 0.0000000e+00 -9.0746465e+03 
0.0000000e+00 0.0000000e+00 0.0000000e+00 
-9.8421650e+03 0.0000000e+00 2.5783597e+02 
2.3822128e+02 0.0000000e+00 -1.8373914e+03 
0.0000000e+00 0.0000000e+00 0.0000000e+00 
3.3885376e+03 0.0000000e+00 4.5733848e+03 
-1.4662321e+02 0.0000000e+00 6.7680469e+03 
-4.6153018e+03 0.0000000e+00 8.3758643e+03 
0.0000000e+00 0.0000000e+00 0.0000000e+00 
-1.1132389e+03 0.0000000e+00 7.5300601e+03 
-4.9275547e+03 0.0000000e+00 8.6741638e+02 
1.9620707e+03 0.0000000e+00 -4.6891885e+03 
-2.0234321e+03 0.0000000e+00 -6.1880464e+03 
7.7527905e+02 0.0000000e+00 7.7874302e+03 
0.0000000e+00 0.0000000e+00 0.0000000e+00 
-2.1842603e+03 0.0000000e+00 -6.6373896e+03 
2.3651975e+03 0.0000000e+00 7.7219014e+03 
-1.0397080e+03 0.0000000e+00 4.4852007e+03 
0.0000000e+00 0.0000000e+00 0.0000000e+00 
-2.5100401e+02 0.0000000e+00 -1.9605231e+02 
4.0369646e+03 0.0000000e+00 4.8197383e+03 
4.5497852e+03 0.0000000e+00 6.1827319e+02 
-4.1478750e+03 0.0000000e+00 3.0074292e+03 
-1.8088673e+02 0.0000000e+00 -2.8428608e+03 
-6.4850674e+03 0.0000000e+00 -8.0996626e+03 
0.0000000e+00 0.0000000e+00 0.0000000e+00 
0.0000000e+00 0.0000000e+00 0.0000000e+00 
POINT_MOMENT 3 30  float
0.0000000e+00 0.0000000e+00 0.0000000e+00 
0.0000000e+00 0.0000000e+00 0.0000000e+00 
0.0000000e+00 0.0000000e+00 0.0000000e+00 
0.0000000e+00 0.0000000e+00 0.0000000e+00 
0.0000000e+00 0.0000000e+00 0.0000000e+00 
0.0000000e+00 0.0000000e+00 0.0000000e+00 
0.0000000e+00 0.0000000e+00 0.0000000e+00 
0.0000000e+00 0.0000000e+00 0.0000000e+00 
0.0000000e+00 0.0000000e+00 0.0000000e+00 
0.0000000e+00 0.0000000e+00 0.0000000e+00 
0.0000000e+00 0.0000000e+00 0.0000000e+00 
0.0000000e+00 0.0000000e+00 0.0000000e+00 
0.0000000e+00 0.0000000e+00 0.0000000e+00 
0.0000000e+00 0.0000000e+00 0.0000000e+00 
0.0000000e+00 0.0000000e+00 0.0000000e+00 
0.0000000e+00 0.0000000e+00 0.0000000e+00 
0.0000000e+00 0.0000000e+00 0.0000000e+00 
0.0000000e+00 0.0000000e+00 0.0000000e+00 
0.0000000e+00 0.0000000e+00 0.0000000e+00 
0.0000000e+00 0.0000000e+00 0.0000000e+00 
0.0000000e+00 0.0000000e+00 0.0000000e+00 
0.0000000e+00 0.0000000e+00 0.0000000e+00 
0.0000000e+00 0.0000000e+00 0.0000000e+00 
0.0000000e+00 0.0000000e+00 0.0000000e+00 
0.0000000e+00 0.0000000e+00 0.0000000e+00 
0.0000000e+00 0.0000000e+00 0.0000000e+00 
0.0000000e+00 0.0000000e+00 0.0000000e+00 
0.0000000e+00 0.0000000e+00 0.0000000e+00 
0.0000000e+00 0.0000000e+00 0.0000000e+00 
0.0000000e+00 0.0000000e+00 0.0000000e+00 
CELL_DATA 30
FIELD FieldData 9
YOUNG_MODULUS 1 30  float
2.1000000e+11
2.1000000e+11
2.1000000e+11
2.1000000e+11
2.1000000e+11
2.1000000e+11
2.1000000e+11
2.1000000e+11
2.1000000e+11
2.1000000e+11
2.1000000e+11
2.1000000e+11
2.1000000e+11
2.1000000e+11
2.1000000e+11
2.1000000e+11
2.1000000e+11
2.1000000e+11
2.1000000e+11
2.1000000e+11
2.1000000e+11
2.1000000e+11
2.1000000e+11
2.1000000e+11
2.1000000e+11
2.1000000e+11
2.1000000e+11
2.1000000e+11
2.1000000e+11
2.1000000e+11
DENSITY 1 30  float
7.8500000e+03
7.8500000e+03
7.8500000e+03
7.8500000e+03
7.8500000e+03
7.8500000e+03
7.8500000e+03
7.8500000e+03
7.8500000e+03
7.8500000e+03
7.8500000e+03
7.8500000e+03
7.8500000e+03
7.8500000e+03
7.8500000e+03
7.8500000e+03
7.8500000e+03
7.8500000e+03
7.8500000e+03
7.8500000e+03
7.8500000e+03
7.8500000e+03
7.8500000e+03
7.8500000e+03
7.8500000e+03
7.8500000e+03
7.8500000e+03
7.8500000e+03
7.8500000e+03
7.8500000e+03
CROSS_AREA 1 30  float
9.9999998e-03
9.9999998e-03
9.9999998e-03
9.9999998e-03
9.9999998e-03
9.9999998e-03
9.9999998e-03
9.9999998e-03
9.9999998e-03
9.9999998e-03
9.9999998e-03
9.9999998e-03
9.9999998e-03
9.9999998e-03
9.9999998e-03
9.9999998e-03
9.9999998e-03
9.9999998e-03
9.9999998e-03
9.9999998e-03
9.9999998e-03
9.9999998e-03
9.9999998e-03
9.9999998e-03
9.9999998e-03
9.9999998e-03
9.9999998e-03
9.9999998e-03
9.9999998e-03
9.9999998e-03
I22 1 30  float
1.5000001e-04
1.5000001e-04
1.5000001e-04
1.5000001e-04
1.5000001e-04
1.5000001e-04
1.5000001e-04
1.5000001e-04
1.5000001e-04
1.5000001e-04
1.5000001e-04
1.5000001e-04
1.5000001e-04
1.5000001e-04
1.5000001e-04
1.5000001e-04
1.5000001e-04
1.5000001e-04
1.5000001e-04
1.5000001e-04
1.5000001e-04
1.5000001e-04
1.5000001e-04
1.5000001e-04
1.5000001e-04
1.5000001e-04
1.5000001e-04
1.5000001e-04
1.5000001e-04
1.5000001e-04
I33 1 30  float
1.5000001e-04
1.5000001e-04
1.5000001e-04
1.5000001e-04
1.5000001e-04
1.5000001e-04
1.5000001e-04
1.5000001e-04
1.5000001e-04
1.5000001e-04
1.5000001e-04
1.5000001e-04
1.5000001e-04
1.5000001e-04
1.5000001e-04
1.5000001e-04
1.5000001e-04
1.5000001e-04
1.5000001e-04
1.5000001e-04
1.5000001e-04
1.5000001e-04
1.5000001e-04
1.5000001e-04
1.5000001e-04
1.5000001e-04
1.5000001e-04
1.5000001e-04
1.5000001e-04
1.5000001e-04
TORSIONAL_INERTIA 1 30  float
3.0000001e-04
3.0000001e-04
3.0000001e-04
3.0000001e-04
3.0000001e-04
3.0000001e-04
3.0000001e-04
3.0000001e-04
3.0000001e-04
3.0000001e-04
3.0000001e-04
3.0000001e-04
3.0000001e-04
3.0000001e-04
3.0000001e-04
3.0000001e-04
3.0000001e-04
3.0000001e-04
3.0000001e-04
3.0000001e-04
3.0000001e-04
3.0000001e-04
3.0000001e-04
3.0000001e-04
3.0000001e-04
3.0000001e-04
3.0000001e-04
3.0000001e-04
3.0000001e-04
3.0000001e-04
POISSON_RATIO 1 30  float
3.0000001e-01
3.0000001e-01
3.0000001e-01
3.0000001e-01
3.0000001e-01
3.0000001e-01
3.0000001e-01
3.0000001e-01
3.0000001e-01
3.0000001e-01
3.0000001e-01
3.0000001e-01
3.0000001e-01
3.0000001e-01
3.0000001e-01
3.0000001e-01
3.0000001e-01
3.0000001e-01
3.0000001e-01
3.0000001e-01
3.0000001e-01
3.0000001e-01
3.0000001e-01
3.0000001e-01
3.0000001e-01
3.0000001e-01
3.0000001e-01
3.0000001e-01
3.0000001e-01
3.0000001e-01
MOMENT 3 30  float
0.0000000e+00 5.7750751e+02 0.0000000e+00 
0.0000000e+00 5.0214302e+03 0.0000000e+00 
0.0000000e+00 1.2754260e+04 0.0000000e+00 
0.0000000e+00 1.9487574e+04 0.0000000e+00 
0.0000000e+00 2.5221369e+04 0.0000000e+00 
0.0000000e+00 3.7562581e+03 0.0000000e+00 
0.0000000e+00 7.7434756e+03 0.0000000e+00 
0.0000000e+00 1.1825982e+04 0.0000000e+00 
0.0000000e+00 1.7263902e+04 0.0000000e+00 
0.0000000e+00 2.3998590e+04 0.0000000e+00 
0.0000000e+00 4.9895264e+03 0.0000000e+00 
0.0000000e+00 1.4523283e+04 0.0000000e+00 
0.0000000e+00 2.1640723e+04 0.0000000e+00 
0.0000000e+00 2.7571969e+04 0.0000000e+00 
0.0000000e+00 3.3478672e+04 0.0000000e+00 
0.0000000e+00 -2.8963438e+03 0.0000000e+00 
0.0000000e+00 1.3963980e+02 0.0000000e+00 
0.0000000e+00 2.3019192e+03 0.0000000e+00 
0.0000000e+00 4.5365737e+03 0.0000000e+00 
0.0000000e+00 7.3014238e+03 0.0000000e+00 
0.0000000e+00 2.3189807e+04 0.0000000e+00 
0.0000000e+00 1.7209521e+04 0.0000000e+00 
0.0000000e+00 6.6055513e+03 0.0000000e+00 
0.0000000e+00 -9.4364297e+03 0.0000000e+00 
0.0000000e+00 -2.9104113e+04 0.0000000e+00 
0.0000000e+00 1.6621271e+04 0.0000000e+00 
0.0000000e+00 -1.9665437e+03 0.0000000e+00 
0.0000000e+00 -9.6118350e+03 0.0000000e+00 
0.0000000e+00 -9.1574639e+03 0.0000000e+00 
0.0000000e+00 -8.7030928e+03 0.0000000e+00 
FORCE 3 30  float
-1.2710331e+04 0.0000000e+00 1.4437687e+03 
-4.7404111e+03 0.0000000e+00 9.6660381e+03 
-4.7404111e+03 0.0000000e+00 9.6660381e+03 
4.3342349e+03 0.0000000e+00 7.1672451e+03 
4.3342349e+03 0.0000000e+00 7.1672451e+03 
7.1645674e+03 0.0000000e+00 4.8649116e+03 
9.0019590e+03 0.0000000e+00 5.1031328e+03 
9.0019590e+03 0.0000000e+00 5.1031328e+03 
4.4285737e+03 0.0000000e+00 8.4916709e+03 
-2.3394731e+03 0.0000000e+00 8.3450469e+03 
2.1987756e+04 0.0000000e+00 1.2473816e+04 
1.4457695e+04 0.0000000e+00 1.1360577e+04 
1.3590278e+04 0.0000000e+00 6.4330225e+03 
1.8279467e+04 0.0000000e+00 8.3950928e+03 
2.4467514e+04 0.0000000e+00 6.3716606e+03 
5.3425273e+03 0.0000000e+00 3.7949792e+03 
5.3425273e+03 0.0000000e+00 3.7949792e+03 
1.1979917e+04 0.0000000e+00 1.6107191e+03 
4.2580151e+03 0.0000000e+00 3.9759167e+03 
-2.2718562e+02 0.0000000e+00 2.9362087e+03 
7.5398311e+03 0.0000000e+00 -3.0881682e+03 
7.7908350e+03 0.0000000e+00 -2.8921160e+03 
3.7538704e+03 0.0000000e+00 -7.7118540e+03 
-7.9591467e+02 0.0000000e+00 -8.3301270e+03 
3.3519604e+03 0.0000000e+00 -1.1337557e+04 
-3.7297456e+03 0.0000000e+00 -1.0715338e+04 
-3.5488589e+03 0.0000000e+00 -7.8724771e+03 
2.9362087e+03 0.0000000e+00 2.2718562e+02 
2.9362087e+03 0.0000000e+00 2.2718562e+02 
2.9362087e+03 0.0000000e+00 2.2718562e+02 
