# vtk DataFile Version 4.0
vtk output
ASCII
DATASET UNSTRUCTURED_GRID
POINTS 30 float
0.0000000e+00 0.0000000e+00 0.0000000e+00 
0.0000000e+00 0.0000000e+00 8.0000001e-01 
0.0000000e+00 0.0000000e+00 1.6000000e+00 
0.0000000e+00 0.0000000e+00 2.4000001e+00 
0.0000000e+00 0.0000000e+00 3.2000000e+00 
0.0000000e+00 0.0000000e+00 4.0000000e+00 
0.0000000e+00 0.0000000e+00 4.8000002e+00 
0.0000000e+00 0.0000000e+00 5.5999999e+00 
0.0000000e+00 0.0000000e+00 6.4000001e+00 
0.0000000e+00 0.0000000e+00 7.1999998e+00 
0.0000000e+00 0.0000000e+00 8.0000000e+00 
1.0000000e+01 0.0000000e+00 0.0000000e+00 
1.0000000e+01 0.0000000e+00 8.0000001e-01 
1.0000000e+01 0.0000000e+00 1.6000000e+00 
1.0000000e+01 0.0000000e+00 2.4000001e+00 
1.0000000e+01 0.0000000e+00 3.2000000e+00 
1.0000000e+01 0.0000000e+00 4.0000000e+00 
1.0000000e+01 0.0000000e+00 4.8000002e+00 
1.0000000e+01 0.0000000e+00 5.5999999e+00 
1.0000000e+01 0.0000000e+00 6.4000001e+00 
1.0000000e+01 0.0000000e+00 7.1999998e+00 
1.0000000e+01 0.0000000e+00 8.0000000e+00 
2.0000000e+00 0.0000000e+00 4.0000000e+00 
4.0000000e+00 0.0000000e+00 4.0000000e+00 
6.0000000e+00 0.0000000e+00 4.0000000e+00 
8.0000000e+00 0.0000000e+00 4.0000000e+00 
2.0000000e+00 0.0000000e+00 8.0000000e+00 
4.0000000e+00 0.0000000e+00 8.0000000e+00 
6.0000000e+00 0.0000000e+00 8.0000000e+00 
8.0000000e+00 0.0000000e+00 8.0000000e+00 

CELLS 30 90
2 0 1
2 1 2
2 2 3
2 3 4
2 4 5
2 5 6
2 6 7
2 7 8
2 8 9
2 9 10
2 11 12
2 12 13
2 13 14
2 14 15
2 15 16
2 16 17
2 17 18
2 18 19
2 19 20
2 20 21
2 5 22
2 22 23
2 23 24
2 24 25
2 25 16
2 10 26
2 26 27
2 27 28
2 28 29
2 29 21

CELL_TYPES 30
3
3
3
3
3
3
3
3
3
3
3
3
3
3
3
3
3
3
3
3
3
3
3
3
3
3
3
3
3
3
POINT_DATA 30
FIELD FieldData 3
ADJOINT_DISPLACEMENT 3 30  float
0.0000000e+00 0.0000000e+00 0.0000000e+00 
-3.9692026e-02 0.0000000e+00 -1.6806120e-17 
-8.4910639e-02 0.0000000e+00 -3.3612239e-17 
-1.4118242e-01 0.0000000e+00 -5.0418356e-17 
-2.1403398e-01 0.0000000e+00 -6.7224479e-17 
-3.0899188e-01 0.0000000e+00 -8.4030598e-17 
-3.9904937e-01 0.0000000e+00 -3.2716565e-05 
-4.5778570e-01 0.0000000e+00 -6.5433131e-05 
-4.9160653e-01 0.0000000e+00 -9.8149700e-05 
-5.0691754e-01 0.0000000e+00 -1.3086626e-04 
-5.1012439e-01 0.0000000e+00 -1.6358282e-04 
0.0000000e+00 0.0000000e+00 0.0000000e+00 
-8.3956234e-02 0.0000000e+00 4.1421681e-17 
-1.6238588e-01 0.0000000e+00 8.2921257e-17 
-2.2976236e-01 0.0000000e+00 1.2476790e-16 
-2.8055906e-01 0.0000000e+00 1.6660393e-16 
-3.0924943e-01 0.0000000e+00 2.0628973e-16 
-3.3411577e-01 0.0000000e+00 3.2716565e-05 
-3.7285447e-01 0.0000000e+00 6.5433131e-05 
-4.1905981e-01 0.0000000e+00 9.8149700e-05 
-4.6632612e-01 0.0000000e+00 1.3086626e-04 
-5.0824773e-01 0.0000000e+00 1.6358282e-04 
-3.0904338e-01 0.0000000e+00 4.7024724e-01 
-3.0909491e-01 0.0000000e+00 1.3271819e+00 
-3.0914640e-01 0.0000000e+00 5.4899293e-01 
-3.0919790e-01 0.0000000e+00 1.1386933e-01 
-5.0974905e-01 0.0000000e+00 -1.6111176e-02 
-5.0937372e-01 0.0000000e+00 -4.5863301e-02 
-5.0899839e-01 0.0000000e+00 -6.7608908e-02 
-5.0862306e-01 0.0000000e+00 -5.9536964e-02 
ADJOINT_ROTATION 3 30  float
0.0000000e+00 -4.8463657e-02 0.0000000e+00 
0.0000000e+00 -5.1917776e-02 0.0000000e+00 
0.0000000e+00 -6.2280130e-02 0.0000000e+00 
0.0000000e+00 -7.9550713e-02 0.0000000e+00 
0.0000000e+00 -1.0372954e-01 0.0000000e+00 
0.0000000e+00 -1.3481659e-01 0.0000000e+00 
0.0000000e+00 -9.1661617e-02 0.0000000e+00 
0.0000000e+00 -5.6513719e-02 0.0000000e+00 
0.0000000e+00 -2.9372901e-02 0.0000000e+00 
0.0000000e+00 -1.0239165e-02 0.0000000e+00 
0.0000000e+00 8.8749017e-04 0.0000000e+00 
0.0000000e+00 -1.0609667e-01 0.0000000e+00 
0.0000000e+00 -1.0264255e-01 0.0000000e+00 
0.0000000e+00 -9.2280194e-02 0.0000000e+00 
0.0000000e+00 -7.5009614e-02 0.0000000e+00 
0.0000000e+00 -5.0830789e-02 0.0000000e+00 
0.0000000e+00 -1.9743731e-02 0.0000000e+00 
0.0000000e+00 -4.1087668e-02 0.0000000e+00 
0.0000000e+00 -5.4424521e-02 0.0000000e+00 
0.0000000e+00 -5.9754293e-02 0.0000000e+00 
0.0000000e+00 -5.7076987e-02 0.0000000e+00 
0.0000000e+00 -4.6392597e-02 0.0000000e+00 
0.0000000e+00 -3.3361307e-01 0.0000000e+00 
0.0000000e+00 -5.2150398e-01 0.0000000e+00 
0.0000000e+00 3.0151057e-01 0.0000000e+00 
0.0000000e+00 1.3543065e-01 0.0000000e+00 
0.0000000e+00 1.3242517e-02 0.0000000e+00 
0.0000000e+00 1.4692021e-02 0.0000000e+00 
0.0000000e+00 5.2360031e-03 0.0000000e+00 
0.0000000e+00 -1.5125536e-02 0.0000000e+00 
SHAPE_SENSITIVITY 3 30  float
0.0000000e+00 0.0000000e+00 0.0000000e+00 
0.0000000e+00 0.0000000e+00 0.0000000e+00 
0.0000000e+00 0.0000000e+00 0.0000000e+00 
0.0000000e+00 0.0000000e+00 0.0000000e+00 
0.0000000e+00 0.0000000e+00 0.0000000e+00 
0.0000000e+00 0.0000000e+00 0.0000000e+00 
0.0000000e+00 0.0000000e+00 0.0000000e+00 
0.0000000e+00 0.0000000e+00 0.0000000e+00 
0.0000000e+00 0.0000000e+00 0.0000000e+00 
0.0000000e+00 0.0000000e+00 0.0000000e+00 
0.0000000e+00 0.0000000e+00 0.0000000e+00 
0.0000000e+00 0.0000000e+00 0.0000000e+00 
0.0000000e+00 0.0000000e+00 0.0000000e+00 
0.0000000e+00 0.0000000e+00 0.0000000e+00 
0.0000000e+00 0.0000000e+00 0.0000000e+00 
0.0000000e+00 0.0000000e+00 0.0000000e+00 
0.0000000e+00 0.0000000e+00 0.0000000e+00 
0.0000000e+00 0.0000000e+00 0.0000000e+00 
0.0000000e+00 0.0000000e+00 0.0000000e+00 
0.0000000e+00 0.0000000e+00 0.0000000e+00 
0.0000000e+00 0.0000000e+00 0.0000000e+00 
0.0000000e+00 0.0000000e+00 0.0000000e+00 
0.0000000e+00 0.0000000e+00 0.0000000e+00 
0.0000000e+00 0.0000000e+00 0.0000000e+00 
0.0000000e+00 0.0000000e+00 0.0000000e+00 
0.0000000e+00 0.0000000e+00 0.0000000e+00 
0.0000000e+00 0.0000000e+00 0.0000000e+00 
0.0000000e+00 0.0000000e+00 0.0000000e+00 
0.0000000e+00 0.0000000e+00 0.0000000e+00 
0.0000000e+00 0.0000000e+00 0.0000000e+00 
CELL_DATA 30
FIELD FieldData 1
I22_SENSITIVITY 1 30  float
1.2236887e+05
8.5658075e+05
2.5220812e+06
5.3159465e+06
9.7806040e+06
2.0972870e+06
-2.1438585e+06
-4.6237380e+06
-4.9263460e+06
-3.5507332e+06
-2.4117936e+05
-1.4900992e+06
-3.9775982e+06
-7.8863975e+06
-1.2944153e+07
-1.7847376e+06
-5.3547506e+05
9.4591789e+04
-3.2421481e+05
-1.5780386e+06
8.0370904e+07
4.4420784e+07
6.3343205e+06
-2.7374938e+07
-6.4147876e+07
-3.4296262e+06
-2.9270094e+05
-1.1269541e+06
-3.9094448e+06
-5.6823365e+06
