# vtk DataFile Version 4.0
vtk output
ASCII
DATASET UNSTRUCTURED_GRID
POINTS 212 float
0.0000000e+00 0.0000000e+00 0.0000000e+00 
0.0000000e+00 0.0000000e+00 2.5000000e-01 
0.0000000e+00 0.0000000e+00 5.0000000e-01 
0.0000000e+00 0.0000000e+00 7.5000000e-01 
0.0000000e+00 0.0000000e+00 1.0000000e+00 
0.0000000e+00 0.0000000e+00 1.2500000e+00 
0.0000000e+00 0.0000000e+00 1.5000000e+00 
0.0000000e+00 0.0000000e+00 1.7500000e+00 
0.0000000e+00 0.0000000e+00 2.0000000e+00 
0.0000000e+00 0.0000000e+00 2.2500000e+00 
0.0000000e+00 0.0000000e+00 2.5000000e+00 
0.0000000e+00 0.0000000e+00 2.7500000e+00 
0.0000000e+00 0.0000000e+00 3.0000000e+00 
0.0000000e+00 0.0000000e+00 3.2500000e+00 
0.0000000e+00 0.0000000e+00 3.5000000e+00 
0.0000000e+00 0.0000000e+00 3.7500000e+00 
0.0000000e+00 0.0000000e+00 4.0000000e+00 
0.0000000e+00 0.0000000e+00 4.2500000e+00 
0.0000000e+00 0.0000000e+00 4.5000000e+00 
0.0000000e+00 0.0000000e+00 4.7500000e+00 
0.0000000e+00 0.0000000e+00 5.0000000e+00 
0.0000000e+00 0.0000000e+00 5.2500000e+00 
0.0000000e+00 0.0000000e+00 5.5000000e+00 
0.0000000e+00 0.0000000e+00 5.7500000e+00 
0.0000000e+00 0.0000000e+00 6.0000000e+00 
0.0000000e+00 0.0000000e+00 6.2500000e+00 
0.0000000e+00 0.0000000e+00 6.5000000e+00 
0.0000000e+00 0.0000000e+00 6.7500000e+00 
0.0000000e+00 0.0000000e+00 7.0000000e+00 
0.0000000e+00 0.0000000e+00 7.2500000e+00 
0.0000000e+00 0.0000000e+00 7.5000000e+00 
0.0000000e+00 0.0000000e+00 7.7500000e+00 
0.0000000e+00 0.0000000e+00 8.0000000e+00 
0.0000000e+00 0.0000000e+00 8.2500000e+00 
0.0000000e+00 0.0000000e+00 8.5000000e+00 
0.0000000e+00 0.0000000e+00 8.7500000e+00 
0.0000000e+00 0.0000000e+00 9.0000000e+00 
0.0000000e+00 0.0000000e+00 9.2500000e+00 
0.0000000e+00 0.0000000e+00 9.5000000e+00 
0.0000000e+00 0.0000000e+00 9.7500000e+00 
0.0000000e+00 0.0000000e+00 1.0000000e+01 
0.0000000e+00 0.0000000e+00 1.0250000e+01 
0.0000000e+00 0.0000000e+00 1.0500000e+01 
0.0000000e+00 0.0000000e+00 1.0750000e+01 
0.0000000e+00 0.0000000e+00 1.1000000e+01 
0.0000000e+00 0.0000000e+00 1.1250000e+01 
0.0000000e+00 0.0000000e+00 1.1500000e+01 
0.0000000e+00 0.0000000e+00 1.1750000e+01 
0.0000000e+00 0.0000000e+00 1.2000000e+01 
0.0000000e+00 0.0000000e+00 1.2250000e+01 
0.0000000e+00 0.0000000e+00 1.2500000e+01 
0.0000000e+00 0.0000000e+00 1.2750000e+01 
0.0000000e+00 0.0000000e+00 1.3000000e+01 
0.0000000e+00 0.0000000e+00 1.3250000e+01 
0.0000000e+00 0.0000000e+00 1.3500000e+01 
0.0000000e+00 0.0000000e+00 1.3750000e+01 
0.0000000e+00 0.0000000e+00 1.4000000e+01 
0.0000000e+00 0.0000000e+00 1.4250000e+01 
0.0000000e+00 0.0000000e+00 1.4500000e+01 
0.0000000e+00 0.0000000e+00 1.4750000e+01 
0.0000000e+00 0.0000000e+00 1.5000000e+01 
0.0000000e+00 0.0000000e+00 1.5250000e+01 
0.0000000e+00 0.0000000e+00 1.5500000e+01 
0.0000000e+00 0.0000000e+00 1.5750000e+01 
0.0000000e+00 0.0000000e+00 1.6000000e+01 
0.0000000e+00 0.0000000e+00 1.6250000e+01 
0.0000000e+00 0.0000000e+00 1.6500000e+01 
0.0000000e+00 0.0000000e+00 1.6750000e+01 
0.0000000e+00 0.0000000e+00 1.7000000e+01 
0.0000000e+00 0.0000000e+00 1.7250000e+01 
0.0000000e+00 0.0000000e+00 1.7500000e+01 
0.0000000e+00 0.0000000e+00 1.7750000e+01 
0.0000000e+00 0.0000000e+00 1.8000000e+01 
5.0000000e-01 0.0000000e+00 3.0000000e+00 
5.0000000e-01 0.0000000e+00 6.0000000e+00 
5.0000000e-01 0.0000000e+00 9.0000000e+00 
5.0000000e-01 0.0000000e+00 1.2000000e+01 
5.0000000e-01 0.0000000e+00 1.5000000e+01 
5.0000000e-01 0.0000000e+00 1.8000000e+01 
1.0000000e+00 0.0000000e+00 3.0000000e+00 
1.0000000e+00 0.0000000e+00 6.0000000e+00 
1.0000000e+00 0.0000000e+00 9.0000000e+00 
1.0000000e+00 0.0000000e+00 1.2000000e+01 
1.0000000e+00 0.0000000e+00 1.5000000e+01 
1.0000000e+00 0.0000000e+00 1.8000000e+01 
1.5000000e+00 0.0000000e+00 3.0000000e+00 
1.5000000e+00 0.0000000e+00 6.0000000e+00 
1.5000000e+00 0.0000000e+00 9.0000000e+00 
1.5000000e+00 0.0000000e+00 1.2000000e+01 
1.5000000e+00 0.0000000e+00 1.5000000e+01 
1.5000000e+00 0.0000000e+00 1.8000000e+01 
2.0000000e+00 0.0000000e+00 3.0000000e+00 
2.0000000e+00 0.0000000e+00 6.0000000e+00 
2.0000000e+00 0.0000000e+00 9.0000000e+00 
2.0000000e+00 0.0000000e+00 1.2000000e+01 
2.0000000e+00 0.0000000e+00 1.5000000e+01 
2.0000000e+00 0.0000000e+00 1.8000000e+01 
2.5000000e+00 0.0000000e+00 3.0000000e+00 
2.5000000e+00 0.0000000e+00 6.0000000e+00 
2.5000000e+00 0.0000000e+00 9.0000000e+00 
2.5000000e+00 0.0000000e+00 1.2000000e+01 
2.5000000e+00 0.0000000e+00 1.5000000e+01 
2.5000000e+00 0.0000000e+00 1.8000000e+01 
3.0000000e+00 0.0000000e+00 3.0000000e+00 
3.0000000e+00 0.0000000e+00 6.0000000e+00 
3.0000000e+00 0.0000000e+00 9.0000000e+00 
3.0000000e+00 0.0000000e+00 1.2000000e+01 
3.0000000e+00 0.0000000e+00 1.5000000e+01 
3.0000000e+00 0.0000000e+00 1.8000000e+01 
3.5000000e+00 0.0000000e+00 3.0000000e+00 
3.5000000e+00 0.0000000e+00 6.0000000e+00 
3.5000000e+00 0.0000000e+00 9.0000000e+00 
3.5000000e+00 0.0000000e+00 1.2000000e+01 
3.5000000e+00 0.0000000e+00 1.5000000e+01 
3.5000000e+00 0.0000000e+00 1.8000000e+01 
4.0000000e+00 0.0000000e+00 3.0000000e+00 
4.0000000e+00 0.0000000e+00 6.0000000e+00 
4.0000000e+00 0.0000000e+00 9.0000000e+00 
4.0000000e+00 0.0000000e+00 1.2000000e+01 
4.0000000e+00 0.0000000e+00 1.5000000e+01 
4.0000000e+00 0.0000000e+00 1.8000000e+01 
4.5000000e+00 0.0000000e+00 3.0000000e+00 
4.5000000e+00 0.0000000e+00 6.0000000e+00 
4.5000000e+00 0.0000000e+00 9.0000000e+00 
4.5000000e+00 0.0000000e+00 1.2000000e+01 
4.5000000e+00 0.0000000e+00 1.5000000e+01 
4.5000000e+00 0.0000000e+00 1.8000000e+01 
5.0000000e+00 0.0000000e+00 3.0000000e+00 
5.0000000e+00 0.0000000e+00 6.0000000e+00 
5.0000000e+00 0.0000000e+00 9.0000000e+00 
5.0000000e+00 0.0000000e+00 1.2000000e+01 
5.0000000e+00 0.0000000e+00 1.5000000e+01 
5.0000000e+00 0.0000000e+00 1.8000000e+01 
5.5000000e+00 0.0000000e+00 3.0000000e+00 
5.5000000e+00 0.0000000e+00 6.0000000e+00 
5.5000000e+00 0.0000000e+00 9.0000000e+00 
5.5000000e+00 0.0000000e+00 1.2000000e+01 
5.5000000e+00 0.0000000e+00 1.5000000e+01 
5.5000000e+00 0.0000000e+00 1.8000000e+01 
6.0000000e+00 0.0000000e+00 0.0000000e+00 
6.0000000e+00 0.0000000e+00 2.5000000e-01 
6.0000000e+00 0.0000000e+00 5.0000000e-01 
6.0000000e+00 0.0000000e+00 7.5000000e-01 
6.0000000e+00 0.0000000e+00 1.0000000e+00 
6.0000000e+00 0.0000000e+00 1.2500000e+00 
6.0000000e+00 0.0000000e+00 1.5000000e+00 
6.0000000e+00 0.0000000e+00 1.7500000e+00 
6.0000000e+00 0.0000000e+00 2.0000000e+00 
6.0000000e+00 0.0000000e+00 2.2500000e+00 
6.0000000e+00 0.0000000e+00 2.5000000e+00 
6.0000000e+00 0.0000000e+00 2.7500000e+00 
6.0000000e+00 0.0000000e+00 3.0000000e+00 
6.0000000e+00 0.0000000e+00 3.2500000e+00 
6.0000000e+00 0.0000000e+00 3.5000000e+00 
6.0000000e+00 0.0000000e+00 3.7500000e+00 
6.0000000e+00 0.0000000e+00 4.0000000e+00 
6.0000000e+00 0.0000000e+00 4.2500000e+00 
6.0000000e+00 0.0000000e+00 4.5000000e+00 
6.0000000e+00 0.0000000e+00 4.7500000e+00 
6.0000000e+00 0.0000000e+00 5.0000000e+00 
6.0000000e+00 0.0000000e+00 5.2500000e+00 
6.0000000e+00 0.0000000e+00 5.5000000e+00 
6.0000000e+00 0.0000000e+00 5.7500000e+00 
6.0000000e+00 0.0000000e+00 6.0000000e+00 
6.0000000e+00 0.0000000e+00 6.2500000e+00 
6.0000000e+00 0.0000000e+00 6.5000000e+00 
6.0000000e+00 0.0000000e+00 6.7500000e+00 
6.0000000e+00 0.0000000e+00 7.0000000e+00 
6.0000000e+00 0.0000000e+00 7.2500000e+00 
6.0000000e+00 0.0000000e+00 7.5000000e+00 
6.0000000e+00 0.0000000e+00 7.7500000e+00 
6.0000000e+00 0.0000000e+00 8.0000000e+00 
6.0000000e+00 0.0000000e+00 8.2500000e+00 
6.0000000e+00 0.0000000e+00 8.5000000e+00 
6.0000000e+00 0.0000000e+00 8.7500000e+00 
6.0000000e+00 0.0000000e+00 9.0000000e+00 
6.0000000e+00 0.0000000e+00 9.2500000e+00 
6.0000000e+00 0.0000000e+00 9.5000000e+00 
6.0000000e+00 0.0000000e+00 9.7500000e+00 
6.0000000e+00 0.0000000e+00 1.0000000e+01 
6.0000000e+00 0.0000000e+00 1.0250000e+01 
6.0000000e+00 0.0000000e+00 1.0500000e+01 
6.0000000e+00 0.0000000e+00 1.0750000e+01 
6.0000000e+00 0.0000000e+00 1.1000000e+01 
6.0000000e+00 0.0000000e+00 1.1250000e+01 
6.0000000e+00 0.0000000e+00 1.1500000e+01 
6.0000000e+00 0.0000000e+00 1.1750000e+01 
6.0000000e+00 0.0000000e+00 1.2000000e+01 
6.0000000e+00 0.0000000e+00 1.2250000e+01 
6.0000000e+00 0.0000000e+00 1.2500000e+01 
6.0000000e+00 0.0000000e+00 1.2750000e+01 
6.0000000e+00 0.0000000e+00 1.3000000e+01 
6.0000000e+00 0.0000000e+00 1.3250000e+01 
6.0000000e+00 0.0000000e+00 1.3500000e+01 
6.0000000e+00 0.0000000e+00 1.3750000e+01 
6.0000000e+00 0.0000000e+00 1.4000000e+01 
6.0000000e+00 0.0000000e+00 1.4250000e+01 
6.0000000e+00 0.0000000e+00 1.4500000e+01 
6.0000000e+00 0.0000000e+00 1.4750000e+01 
6.0000000e+00 0.0000000e+00 1.5000000e+01 
6.0000000e+00 0.0000000e+00 1.5250000e+01 
6.0000000e+00 0.0000000e+00 1.5500000e+01 
6.0000000e+00 0.0000000e+00 1.5750000e+01 
6.0000000e+00 0.0000000e+00 1.6000000e+01 
6.0000000e+00 0.0000000e+00 1.6250000e+01 
6.0000000e+00 0.0000000e+00 1.6500000e+01 
6.0000000e+00 0.0000000e+00 1.6750000e+01 
6.0000000e+00 0.0000000e+00 1.7000000e+01 
6.0000000e+00 0.0000000e+00 1.7250000e+01 
6.0000000e+00 0.0000000e+00 1.7500000e+01 
6.0000000e+00 0.0000000e+00 1.7750000e+01 
6.0000000e+00 0.0000000e+00 1.8000000e+01 

CELLS 216 648
2 0 1
2 1 2
2 2 3
2 3 4
2 4 5
2 5 6
2 6 7
2 7 8
2 8 9
2 9 10
2 10 11
2 11 12
2 12 13
2 13 14
2 14 15
2 15 16
2 16 17
2 17 18
2 18 19
2 19 20
2 20 21
2 21 22
2 22 23
2 23 24
2 24 25
2 25 26
2 26 27
2 27 28
2 28 29
2 29 30
2 30 31
2 31 32
2 32 33
2 33 34
2 34 35
2 35 36
2 36 37
2 37 38
2 38 39
2 39 40
2 40 41
2 41 42
2 42 43
2 43 44
2 44 45
2 45 46
2 46 47
2 47 48
2 48 49
2 49 50
2 50 51
2 51 52
2 52 53
2 53 54
2 54 55
2 55 56
2 56 57
2 57 58
2 58 59
2 59 60
2 60 61
2 61 62
2 62 63
2 63 64
2 64 65
2 65 66
2 66 67
2 67 68
2 68 69
2 69 70
2 70 71
2 71 72
2 139 140
2 140 141
2 141 142
2 142 143
2 143 144
2 144 145
2 145 146
2 146 147
2 147 148
2 148 149
2 149 150
2 150 151
2 151 152
2 152 153
2 153 154
2 154 155
2 155 156
2 156 157
2 157 158
2 158 159
2 159 160
2 160 161
2 161 162
2 162 163
2 163 164
2 164 165
2 165 166
2 166 167
2 167 168
2 168 169
2 169 170
2 170 171
2 171 172
2 172 173
2 173 174
2 174 175
2 175 176
2 176 177
2 177 178
2 178 179
2 179 180
2 180 181
2 181 182
2 182 183
2 183 184
2 184 185
2 185 186
2 186 187
2 187 188
2 188 189
2 189 190
2 190 191
2 191 192
2 192 193
2 193 194
2 194 195
2 195 196
2 196 197
2 197 198
2 198 199
2 199 200
2 200 201
2 201 202
2 202 203
2 203 204
2 204 205
2 205 206
2 206 207
2 207 208
2 208 209
2 209 210
2 210 211
2 12 73
2 73 79
2 79 85
2 85 91
2 91 97
2 97 103
2 103 109
2 109 115
2 115 121
2 121 127
2 127 133
2 133 151
2 24 74
2 74 80
2 80 86
2 86 92
2 92 98
2 98 104
2 104 110
2 110 116
2 116 122
2 122 128
2 128 134
2 134 163
2 36 75
2 75 81
2 81 87
2 87 93
2 93 99
2 99 105
2 105 111
2 111 117
2 117 123
2 123 129
2 129 135
2 135 175
2 48 76
2 76 82
2 82 88
2 88 94
2 94 100
2 100 106
2 106 112
2 112 118
2 118 124
2 124 130
2 130 136
2 136 187
2 60 77
2 77 83
2 83 89
2 89 95
2 95 101
2 101 107
2 107 113
2 113 119
2 119 125
2 125 131
2 131 137
2 137 199
2 72 78
2 78 84
2 84 90
2 90 96
2 96 102
2 102 108
2 108 114
2 114 120
2 120 126
2 126 132
2 132 138
2 138 211

CELL_TYPES 216
3
3
3
3
3
3
3
3
3
3
3
3
3
3
3
3
3
3
3
3
3
3
3
3
3
3
3
3
3
3
3
3
3
3
3
3
3
3
3
3
3
3
3
3
3
3
3
3
3
3
3
3
3
3
3
3
3
3
3
3
3
3
3
3
3
3
3
3
3
3
3
3
3
3
3
3
3
3
3
3
3
3
3
3
3
3
3
3
3
3
3
3
3
3
3
3
3
3
3
3
3
3
3
3
3
3
3
3
3
3
3
3
3
3
3
3
3
3
3
3
3
3
3
3
3
3
3
3
3
3
3
3
3
3
3
3
3
3
3
3
3
3
3
3
3
3
3
3
3
3
3
3
3
3
3
3
3
3
3
3
3
3
3
3
3
3
3
3
3
3
3
3
3
3
3
3
3
3
3
3
3
3
3
3
3
3
3
3
3
3
3
3
3
3
3
3
3
3
3
3
3
3
3
3
3
3
3
3
3
3
3
3
3
3
3
3
POINT_DATA 212
FIELD FieldData 8
DISPLACEMENT 3 212  float
0.0000000e+00 0.0000000e+00 0.0000000e+00 
-4.6219991e-04 0.0000000e+00 -4.8329977e-05 
-9.0504898e-04 0.0000000e+00 -9.6325035e-05 
-1.3091962e-03 0.0000000e+00 -1.4398516e-04 
-1.6552908e-03 0.0000000e+00 -1.9131038e-04 
-1.9239819e-03 0.0000000e+00 -2.3830066e-04 
-2.0959186e-03 0.0000000e+00 -2.8495604e-04 
-2.1517500e-03 0.0000000e+00 -3.3127647e-04 
-2.0721254e-03 0.0000000e+00 -3.7726198e-04 
-1.8376936e-03 0.0000000e+00 -4.2291259e-04 
-1.4291039e-03 0.0000000e+00 -4.6822827e-04 
-8.2700537e-04 0.0000000e+00 -5.1320903e-04 
-1.2047173e-05 0.0000000e+00 -5.5785483e-04 
7.2168210e-04 0.0000000e+00 -5.9810193e-04 
1.1097000e-03 0.0000000e+00 -6.3801405e-04 
1.2157661e-03 0.0000000e+00 -6.7759131e-04 
1.1036404e-03 0.0000000e+00 -7.1683357e-04 
8.3708280e-04 0.0000000e+00 -7.5574097e-04 
4.7985319e-04 0.0000000e+00 -7.9431344e-04 
9.5711315e-05 0.0000000e+00 -8.3255098e-04 
-2.5158291e-04 0.0000000e+00 -8.7045360e-04 
-4.9826963e-04 0.0000000e+00 -9.0802129e-04 
-5.8058900e-04 0.0000000e+00 -9.4525405e-04 
-4.3478113e-04 0.0000000e+00 -9.8215195e-04 
2.9137939e-06 0.0000000e+00 -1.0187149e-03 
4.6016840e-04 0.0000000e+00 -1.0508790e-03 
6.5749470e-04 0.0000000e+00 -1.0827082e-03 
6.4791151e-04 0.0000000e+00 -1.1142025e-03 
4.8443768e-04 0.0000000e+00 -1.1453619e-03 
2.2009212e-04 0.0000000e+00 -1.1761864e-03 
-9.2106333e-05 0.0000000e+00 -1.2066760e-03 
-3.9913881e-04 0.0000000e+00 -1.2368306e-03 
-6.4798642e-04 0.0000000e+00 -1.2666503e-03 
-7.8563037e-04 0.0000000e+00 -1.2961351e-03 
-7.5905171e-04 0.0000000e+00 -1.3252849e-03 
-5.1523157e-04 0.0000000e+00 -1.3540999e-03 
-1.1512014e-06 0.0000000e+00 -1.3825799e-03 
5.0520158e-04 0.0000000e+00 -1.4066611e-03 
7.2866777e-04 0.0000000e+00 -1.4304075e-03 
7.2651001e-04 0.0000000e+00 -1.4538189e-03 
5.5599073e-04 0.0000000e+00 -1.4768954e-03 
2.7437240e-04 0.0000000e+00 -1.4996370e-03 
-6.1082472e-05 0.0000000e+00 -1.5220436e-03 
-3.9311140e-04 0.0000000e+00 -1.5441154e-03 
-6.6445192e-04 0.0000000e+00 -1.5658522e-03 
-8.1784150e-04 0.0000000e+00 -1.5872540e-03 
-7.9601770e-04 0.0000000e+00 -1.6083210e-03 
-5.4171798e-04 0.0000000e+00 -1.6290530e-03 
2.3201210e-06 0.0000000e+00 -1.6494502e-03 
5.6193257e-04 0.0000000e+00 -1.6654485e-03 
8.5725356e-04 0.0000000e+00 -1.6811119e-03 
9.3699311e-04 0.0000000e+00 -1.6964404e-03 
8.4986107e-04 0.0000000e+00 -1.7114340e-03 
6.4456736e-04 0.0000000e+00 -1.7260927e-03 
3.6982200e-04 0.0000000e+00 -1.7404164e-03 
7.4334821e-05 0.0000000e+00 -1.7544052e-03 
-1.9318421e-04 0.0000000e+00 -1.7680591e-03 
-3.8402519e-04 0.0000000e+00 -1.7813781e-03 
-4.4947816e-04 0.0000000e+00 -1.7943621e-03 
-3.4083324e-04 0.0000000e+00 -1.8070113e-03 
-9.3804547e-06 0.0000000e+00 -1.8193255e-03 
2.5898122e-04 0.0000000e+00 -1.8272409e-03 
2.0140536e-04 0.0000000e+00 -1.8348214e-03 
-9.8819357e-05 0.0000000e+00 -1.8420670e-03 
-5.5840425e-04 0.0000000e+00 -1.8489778e-03 
-1.0940606e-03 0.0000000e+00 -1.8555535e-03 
-1.6224997e-03 0.0000000e+00 -1.8617943e-03 
-2.0604329e-03 0.0000000e+00 -1.8677003e-03 
-2.3245714e-03 0.0000000e+00 -1.8732712e-03 
-2.3316266e-03 0.0000000e+00 -1.8785073e-03 
-1.9983100e-03 0.0000000e+00 -1.8834084e-03 
-1.2413325e-03 0.0000000e+00 -1.8879747e-03 
2.2594380e-05 0.0000000e+00 -1.8922059e-03 
-1.0039311e-05 0.0000000e+00 -3.4673067e-03 
2.4281615e-06 0.0000000e+00 -3.3360978e-03 
-9.5933456e-07 0.0000000e+00 -3.8136146e-03 
1.9334343e-06 0.0000000e+00 -4.1558556e-03 
-7.8170451e-06 0.0000000e+00 -3.8694115e-03 
1.8828650e-05 0.0000000e+00 -5.9334221e-03 
-8.0314485e-06 0.0000000e+00 -7.6454091e-03 
1.9425293e-06 0.0000000e+00 -7.0297807e-03 
-7.6746767e-07 0.0000000e+00 -7.6002851e-03 
1.5467474e-06 0.0000000e+00 -8.0041932e-03 
-6.2536365e-06 0.0000000e+00 -7.3443968e-03 
1.5062920e-05 0.0000000e+00 -1.1037514e-02 
-6.0235866e-06 0.0000000e+00 -1.2013578e-02 
1.4568969e-06 0.0000000e+00 -1.1021178e-02 
-5.7560072e-07 0.0000000e+00 -1.1664006e-02 
1.1600605e-06 0.0000000e+00 -1.2115877e-02 
-4.6902273e-06 0.0000000e+00 -1.1165695e-02 
1.1297190e-05 0.0000000e+00 -1.6125895e-02 
-4.0157242e-06 0.0000000e+00 -1.5732912e-02 
9.7126463e-07 0.0000000e+00 -1.4471389e-02 
-3.8373383e-07 0.0000000e+00 -1.5165878e-02 
7.7337370e-07 0.0000000e+00 -1.5652008e-02 
-3.1268182e-06 0.0000000e+00 -1.4494409e-02 
7.5314601e-06 0.0000000e+00 -2.0359669e-02 
-2.0078621e-06 0.0000000e+00 -1.8204197e-02 
4.8563231e-07 0.0000000e+00 -1.6781202e-02 
-1.9186693e-07 0.0000000e+00 -1.7506687e-02 
3.8668682e-07 0.0000000e+00 -1.8013373e-02 
-1.5634091e-06 0.0000000e+00 -1.6731322e-02 
3.7657301e-06 0.0000000e+00 -2.3139618e-02 
-1.1132214e-14 0.0000000e+00 -1.9067908e-02 
-1.5925400e-14 0.0000000e+00 -1.7591087e-02 
-1.8781382e-14 0.0000000e+00 -1.8326903e-02 
-2.1108225e-14 0.0000000e+00 -1.8840441e-02 
-2.2296575e-14 0.0000000e+00 -1.7516907e-02 
-2.2228791e-14 0.0000000e+00 -2.4106216e-02 
2.0078621e-06 0.0000000e+00 -1.8204197e-02 
-4.8563231e-07 0.0000000e+00 -1.6781202e-02 
1.9186689e-07 0.0000000e+00 -1.7506687e-02 
-3.8668688e-07 0.0000000e+00 -1.8013373e-02 
1.5634091e-06 0.0000000e+00 -1.6731322e-02 
-3.7657301e-06 0.0000000e+00 -2.3139618e-02 
4.0157242e-06 0.0000000e+00 -1.5732912e-02 
-9.7126463e-07 0.0000000e+00 -1.4471389e-02 
3.8373381e-07 0.0000000e+00 -1.5165878e-02 
-7.7337370e-07 0.0000000e+00 -1.5652008e-02 
3.1268182e-06 0.0000000e+00 -1.4494409e-02 
-7.5314601e-06 0.0000000e+00 -2.0359669e-02 
6.0235866e-06 0.0000000e+00 -1.2013578e-02 
-1.4568969e-06 0.0000000e+00 -1.1021178e-02 
5.7560072e-07 0.0000000e+00 -1.1664006e-02 
-1.1600606e-06 0.0000000e+00 -1.2115877e-02 
4.6902273e-06 0.0000000e+00 -1.1165695e-02 
-1.1297190e-05 0.0000000e+00 -1.6125895e-02 
8.0314485e-06 0.0000000e+00 -7.6454091e-03 
-1.9425293e-06 0.0000000e+00 -7.0297807e-03 
7.6746761e-07 0.0000000e+00 -7.6002851e-03 
-1.5467474e-06 0.0000000e+00 -8.0041932e-03 
6.2536365e-06 0.0000000e+00 -7.3443968e-03 
-1.5062920e-05 0.0000000e+00 -1.1037514e-02 
1.0039311e-05 0.0000000e+00 -3.4673067e-03 
-2.4281615e-06 0.0000000e+00 -3.3360978e-03 
9.5933456e-07 0.0000000e+00 -3.8136146e-03 
-1.9334343e-06 0.0000000e+00 -4.1558556e-03 
7.8170451e-06 0.0000000e+00 -3.8694115e-03 
-1.8828650e-05 0.0000000e+00 -5.9334221e-03 
0.0000000e+00 0.0000000e+00 0.0000000e+00 
4.6219991e-04 0.0000000e+00 -4.8329977e-05 
9.0504898e-04 0.0000000e+00 -9.6325035e-05 
1.3091962e-03 0.0000000e+00 -1.4398516e-04 
1.6552908e-03 0.0000000e+00 -1.9131038e-04 
1.9239819e-03 0.0000000e+00 -2.3830066e-04 
2.0959186e-03 0.0000000e+00 -2.8495604e-04 
2.1517500e-03 0.0000000e+00 -3.3127647e-04 
2.0721254e-03 0.0000000e+00 -3.7726198e-04 
1.8376936e-03 0.0000000e+00 -4.2291259e-04 
1.4291039e-03 0.0000000e+00 -4.6822827e-04 
8.2700537e-04 0.0000000e+00 -5.1320903e-04 
1.2047173e-05 0.0000000e+00 -5.5785483e-04 
-7.2168210e-04 0.0000000e+00 -5.9810193e-04 
-1.1097000e-03 0.0000000e+00 -6.3801405e-04 
-1.2157661e-03 0.0000000e+00 -6.7759131e-04 
-1.1036404e-03 0.0000000e+00 -7.1683357e-04 
-8.3708280e-04 0.0000000e+00 -7.5574097e-04 
-4.7985319e-04 0.0000000e+00 -7.9431344e-04 
-9.5711315e-05 0.0000000e+00 -8.3255098e-04 
2.5158291e-04 0.0000000e+00 -8.7045360e-04 
4.9826963e-04 0.0000000e+00 -9.0802129e-04 
5.8058900e-04 0.0000000e+00 -9.4525405e-04 
4.3478113e-04 0.0000000e+00 -9.8215195e-04 
-2.9137939e-06 0.0000000e+00 -1.0187149e-03 
-4.6016840e-04 0.0000000e+00 -1.0508790e-03 
-6.5749470e-04 0.0000000e+00 -1.0827082e-03 
-6.4791151e-04 0.0000000e+00 -1.1142025e-03 
-4.8443768e-04 0.0000000e+00 -1.1453619e-03 
-2.2009212e-04 0.0000000e+00 -1.1761864e-03 
9.2106333e-05 0.0000000e+00 -1.2066760e-03 
3.9913881e-04 0.0000000e+00 -1.2368306e-03 
6.4798642e-04 0.0000000e+00 -1.2666503e-03 
7.8563037e-04 0.0000000e+00 -1.2961351e-03 
7.5905171e-04 0.0000000e+00 -1.3252849e-03 
5.1523157e-04 0.0000000e+00 -1.3540999e-03 
1.1512014e-06 0.0000000e+00 -1.3825799e-03 
-5.0520158e-04 0.0000000e+00 -1.4066611e-03 
-7.2866777e-04 0.0000000e+00 -1.4304075e-03 
-7.2651001e-04 0.0000000e+00 -1.4538189e-03 
-5.5599073e-04 0.0000000e+00 -1.4768954e-03 
-2.7437240e-04 0.0000000e+00 -1.4996370e-03 
6.1082472e-05 0.0000000e+00 -1.5220436e-03 
3.9311140e-04 0.0000000e+00 -1.5441154e-03 
6.6445192e-04 0.0000000e+00 -1.5658522e-03 
8.1784150e-04 0.0000000e+00 -1.5872540e-03 
7.9601770e-04 0.0000000e+00 -1.6083210e-03 
5.4171798e-04 0.0000000e+00 -1.6290530e-03 
-2.3201212e-06 0.0000000e+00 -1.6494502e-03 
-5.6193257e-04 0.0000000e+00 -1.6654485e-03 
-8.5725356e-04 0.0000000e+00 -1.6811119e-03 
-9.3699311e-04 0.0000000e+00 -1.6964404e-03 
-8.4986107e-04 0.0000000e+00 -1.7114340e-03 
-6.4456736e-04 0.0000000e+00 -1.7260927e-03 
-3.6982200e-04 0.0000000e+00 -1.7404164e-03 
-7.4334821e-05 0.0000000e+00 -1.7544052e-03 
1.9318421e-04 0.0000000e+00 -1.7680591e-03 
3.8402519e-04 0.0000000e+00 -1.7813781e-03 
4.4947816e-04 0.0000000e+00 -1.7943621e-03 
3.4083324e-04 0.0000000e+00 -1.8070113e-03 
9.3804547e-06 0.0000000e+00 -1.8193255e-03 
-2.5898122e-04 0.0000000e+00 -1.8272409e-03 
-2.0140536e-04 0.0000000e+00 -1.8348214e-03 
9.8819357e-05 0.0000000e+00 -1.8420670e-03 
5.5840425e-04 0.0000000e+00 -1.8489778e-03 
1.0940606e-03 0.0000000e+00 -1.8555535e-03 
1.6224997e-03 0.0000000e+00 -1.8617943e-03 
2.0604329e-03 0.0000000e+00 -1.8677003e-03 
2.3245714e-03 0.0000000e+00 -1.8732712e-03 
2.3316266e-03 0.0000000e+00 -1.8785073e-03 
1.9983100e-03 0.0000000e+00 -1.8834084e-03 
1.2413325e-03 0.0000000e+00 -1.8879747e-03 
-2.2594380e-05 0.0000000e+00 -1.8922059e-03 
ROTATION 3 212  float
0.0000000e+00 -1.8617002e-03 0.0000000e+00 
0.0000000e+00 -1.8229985e-03 0.0000000e+00 
0.0000000e+00 -1.7068932e-03 0.0000000e+00 
0.0000000e+00 -1.5133844e-03 0.0000000e+00 
0.0000000e+00 -1.2424721e-03 0.0000000e+00 
0.0000000e+00 -8.9415623e-04 0.0000000e+00 
0.0000000e+00 -4.6843686e-04 0.0000000e+00 
0.0000000e+00 3.4686036e-05 0.0000000e+00 
0.0000000e+00 6.1521243e-04 0.0000000e+00 
0.0000000e+00 1.2731424e-03 0.0000000e+00 
0.0000000e+00 2.0084758e-03 0.0000000e+00 
0.0000000e+00 2.8212129e-03 0.0000000e+00 
0.0000000e+00 3.7113533e-03 0.0000000e+00 
0.0000000e+00 2.2009877e-03 0.0000000e+00 
0.0000000e+00 9.4566128e-04 0.0000000e+00 
0.0000000e+00 -5.4625580e-05 0.0000000e+00 
0.0000000e+00 -7.9987303e-04 0.0000000e+00 
0.0000000e+00 -1.2900811e-03 0.0000000e+00 
0.0000000e+00 -1.5252496e-03 0.0000000e+00 
0.0000000e+00 -1.5053788e-03 0.0000000e+00 
0.0000000e+00 -1.2304685e-03 0.0000000e+00 
0.0000000e+00 -7.0051872e-04 0.0000000e+00 
0.0000000e+00 8.4470412e-05 0.0000000e+00 
0.0000000e+00 1.1244990e-03 0.0000000e+00 
0.0000000e+00 2.4195670e-03 0.0000000e+00 
0.0000000e+00 1.2738159e-03 0.0000000e+00 
0.0000000e+00 3.4014025e-04 0.0000000e+00 
0.0000000e+00 -3.8145995e-04 0.0000000e+00 
0.0000000e+00 -8.9098467e-04 0.0000000e+00 
0.0000000e+00 -1.1884340e-03 0.0000000e+00 
0.0000000e+00 -1.2738077e-03 0.0000000e+00 
0.0000000e+00 -1.1471061e-03 0.0000000e+00 
0.0000000e+00 -8.0832897e-04 0.0000000e+00 
0.0000000e+00 -2.5747644e-04 0.0000000e+00 
0.0000000e+00 5.0545158e-04 0.0000000e+00 
0.0000000e+00 1.4804550e-03 0.0000000e+00 
0.0000000e+00 2.6675339e-03 0.0000000e+00 
0.0000000e+00 1.4214630e-03 0.0000000e+00 
0.0000000e+00 4.0444196e-04 0.0000000e+00 
0.0000000e+00 -3.8352911e-04 0.0000000e+00 
0.0000000e+00 -9.4245025e-04 0.0000000e+00 
0.0000000e+00 -1.2723214e-03 0.0000000e+00 
0.0000000e+00 -1.3731426e-03 0.0000000e+00 
0.0000000e+00 -1.2449139e-03 0.0000000e+00 
0.0000000e+00 -8.8763522e-04 0.0000000e+00 
0.0000000e+00 -3.0130654e-04 0.0000000e+00 
0.0000000e+00 5.1407208e-04 0.0000000e+00 
0.0000000e+00 1.5585007e-03 0.0000000e+00 
0.0000000e+00 2.8319792e-03 0.0000000e+00 
0.0000000e+00 1.6773937e-03 0.0000000e+00 
0.0000000e+00 7.1764784e-04 0.0000000e+00 
0.0000000e+00 -4.7258305e-05 0.0000000e+00 
0.0000000e+00 -6.1732472e-04 0.0000000e+00 
0.0000000e+00 -9.9255145e-04 0.0000000e+00 
0.0000000e+00 -1.1729384e-03 0.0000000e+00 
0.0000000e+00 -1.1584858e-03 0.0000000e+00 
0.0000000e+00 -9.4919332e-04 0.0000000e+00 
0.0000000e+00 -5.4506119e-04 0.0000000e+00 
0.0000000e+00 5.3910630e-05 0.0000000e+00 
0.0000000e+00 8.4772217e-04 0.0000000e+00 
0.0000000e+00 1.8363734e-03 0.0000000e+00 
0.0000000e+00 3.6604583e-04 0.0000000e+00 
0.0000000e+00 -7.7112694e-04 0.0000000e+00 
0.0000000e+00 -1.5751449e-03 0.0000000e+00 
0.0000000e+00 -2.0460081e-03 0.0000000e+00 
0.0000000e+00 -2.1837167e-03 0.0000000e+00 
0.0000000e+00 -1.9882703e-03 0.0000000e+00 
0.0000000e+00 -1.4596693e-03 0.0000000e+00 
0.0000000e+00 -5.9791340e-04 0.0000000e+00 
0.0000000e+00 5.9699721e-04 0.0000000e+00 
0.0000000e+00 2.1250625e-03 0.0000000e+00 
0.0000000e+00 3.9862827e-03 0.0000000e+00 
0.0000000e+00 6.1806575e-03 0.0000000e+00 
0.0000000e+00 7.4870302e-03 0.0000000e+00 
0.0000000e+00 6.4105419e-03 0.0000000e+00 
0.0000000e+00 6.6171810e-03 0.0000000e+00 
0.0000000e+00 6.7542186e-03 0.0000000e+00 
0.0000000e+00 5.9245471e-03 0.0000000e+00 
0.0000000e+00 9.5447842e-03 0.0000000e+00 
0.0000000e+00 8.8658519e-03 0.0000000e+00 
0.0000000e+00 8.0046607e-03 0.0000000e+00 
0.0000000e+00 8.1699723e-03 0.0000000e+00 
0.0000000e+00 8.2796020e-03 0.0000000e+00 
0.0000000e+00 7.6158647e-03 0.0000000e+00 
0.0000000e+00 1.0512055e-02 0.0000000e+00 
0.0000000e+00 8.3271880e-03 0.0000000e+00 
0.0000000e+00 7.6812948e-03 0.0000000e+00 
0.0000000e+00 7.8052781e-03 0.0000000e+00 
0.0000000e+00 7.8875003e-03 0.0000000e+00 
0.0000000e+00 7.3896977e-03 0.0000000e+00 
0.0000000e+00 9.5618404e-03 0.0000000e+00 
0.0000000e+00 6.3504106e-03 0.0000000e+00 
0.0000000e+00 5.9198150e-03 0.0000000e+00 
0.0000000e+00 6.0024709e-03 0.0000000e+00 
0.0000000e+00 6.0572857e-03 0.0000000e+00 
0.0000000e+00 5.7254173e-03 0.0000000e+00 
0.0000000e+00 7.1735121e-03 0.0000000e+00 
0.0000000e+00 3.4148910e-03 0.0000000e+00 
0.0000000e+00 3.1995932e-03 0.0000000e+00 
0.0000000e+00 3.2409211e-03 0.0000000e+00 
0.0000000e+00 3.2683285e-03 0.0000000e+00 
0.0000000e+00 3.1023943e-03 0.0000000e+00 
0.0000000e+00 3.8264417e-03 0.0000000e+00 
0.0000000e+00 8.2614967e-16 0.0000000e+00 
0.0000000e+00 6.3108656e-16 0.0000000e+00 
0.0000000e+00 3.0980614e-16 0.0000000e+00 
0.0000000e+00 2.4096033e-16 0.0000000e+00 
0.0000000e+00 -1.2621731e-16 0.0000000e+00 
0.0000000e+00 -2.2362564e-16 0.0000000e+00 
0.0000000e+00 -3.4148910e-03 0.0000000e+00 
0.0000000e+00 -3.1995932e-03 0.0000000e+00 
0.0000000e+00 -3.2409211e-03 0.0000000e+00 
0.0000000e+00 -3.2683285e-03 0.0000000e+00 
0.0000000e+00 -3.1023943e-03 0.0000000e+00 
0.0000000e+00 -3.8264417e-03 0.0000000e+00 
0.0000000e+00 -6.3504106e-03 0.0000000e+00 
0.0000000e+00 -5.9198150e-03 0.0000000e+00 
0.0000000e+00 -6.0024709e-03 0.0000000e+00 
0.0000000e+00 -6.0572857e-03 0.0000000e+00 
0.0000000e+00 -5.7254173e-03 0.0000000e+00 
0.0000000e+00 -7.1735121e-03 0.0000000e+00 
0.0000000e+00 -8.3271880e-03 0.0000000e+00 
0.0000000e+00 -7.6812948e-03 0.0000000e+00 
0.0000000e+00 -7.8052781e-03 0.0000000e+00 
0.0000000e+00 -7.8875003e-03 0.0000000e+00 
0.0000000e+00 -7.3896977e-03 0.0000000e+00 
0.0000000e+00 -9.5618404e-03 0.0000000e+00 
0.0000000e+00 -8.8658519e-03 0.0000000e+00 
0.0000000e+00 -8.0046607e-03 0.0000000e+00 
0.0000000e+00 -8.1699723e-03 0.0000000e+00 
0.0000000e+00 -8.2796020e-03 0.0000000e+00 
0.0000000e+00 -7.6158647e-03 0.0000000e+00 
0.0000000e+00 -1.0512055e-02 0.0000000e+00 
0.0000000e+00 -7.4870302e-03 0.0000000e+00 
0.0000000e+00 -6.4105419e-03 0.0000000e+00 
0.0000000e+00 -6.6171810e-03 0.0000000e+00 
0.0000000e+00 -6.7542186e-03 0.0000000e+00 
0.0000000e+00 -5.9245471e-03 0.0000000e+00 
0.0000000e+00 -9.5447842e-03 0.0000000e+00 
0.0000000e+00 1.8617002e-03 0.0000000e+00 
0.0000000e+00 1.8229985e-03 0.0000000e+00 
0.0000000e+00 1.7068932e-03 0.0000000e+00 
0.0000000e+00 1.5133844e-03 0.0000000e+00 
0.0000000e+00 1.2424721e-03 0.0000000e+00 
0.0000000e+00 8.9415623e-04 0.0000000e+00 
0.0000000e+00 4.6843686e-04 0.0000000e+00 
0.0000000e+00 -3.4686036e-05 0.0000000e+00 
0.0000000e+00 -6.1521243e-04 0.0000000e+00 
0.0000000e+00 -1.2731424e-03 0.0000000e+00 
0.0000000e+00 -2.0084758e-03 0.0000000e+00 
0.0000000e+00 -2.8212129e-03 0.0000000e+00 
0.0000000e+00 -3.7113533e-03 0.0000000e+00 
0.0000000e+00 -2.2009877e-03 0.0000000e+00 
0.0000000e+00 -9.4566128e-04 0.0000000e+00 
0.0000000e+00 5.4625580e-05 0.0000000e+00 
0.0000000e+00 7.9987303e-04 0.0000000e+00 
0.0000000e+00 1.2900811e-03 0.0000000e+00 
0.0000000e+00 1.5252496e-03 0.0000000e+00 
0.0000000e+00 1.5053788e-03 0.0000000e+00 
0.0000000e+00 1.2304685e-03 0.0000000e+00 
0.0000000e+00 7.0051872e-04 0.0000000e+00 
0.0000000e+00 -8.4470412e-05 0.0000000e+00 
0.0000000e+00 -1.1244990e-03 0.0000000e+00 
0.0000000e+00 -2.4195670e-03 0.0000000e+00 
0.0000000e+00 -1.2738159e-03 0.0000000e+00 
0.0000000e+00 -3.4014025e-04 0.0000000e+00 
0.0000000e+00 3.8145995e-04 0.0000000e+00 
0.0000000e+00 8.9098467e-04 0.0000000e+00 
0.0000000e+00 1.1884340e-03 0.0000000e+00 
0.0000000e+00 1.2738077e-03 0.0000000e+00 
0.0000000e+00 1.1471061e-03 0.0000000e+00 
0.0000000e+00 8.0832897e-04 0.0000000e+00 
0.0000000e+00 2.5747644e-04 0.0000000e+00 
0.0000000e+00 -5.0545158e-04 0.0000000e+00 
0.0000000e+00 -1.4804550e-03 0.0000000e+00 
0.0000000e+00 -2.6675339e-03 0.0000000e+00 
0.0000000e+00 -1.4214630e-03 0.0000000e+00 
0.0000000e+00 -4.0444196e-04 0.0000000e+00 
0.0000000e+00 3.8352911e-04 0.0000000e+00 
0.0000000e+00 9.4245025e-04 0.0000000e+00 
0.0000000e+00 1.2723214e-03 0.0000000e+00 
0.0000000e+00 1.3731426e-03 0.0000000e+00 
0.0000000e+00 1.2449139e-03 0.0000000e+00 
0.0000000e+00 8.8763522e-04 0.0000000e+00 
0.0000000e+00 3.0130654e-04 0.0000000e+00 
0.0000000e+00 -5.1407208e-04 0.0000000e+00 
0.0000000e+00 -1.5585007e-03 0.0000000e+00 
0.0000000e+00 -2.8319792e-03 0.0000000e+00 
0.0000000e+00 -1.6773937e-03 0.0000000e+00 
0.0000000e+00 -7.1764784e-04 0.0000000e+00 
0.0000000e+00 4.7258305e-05 0.0000000e+00 
0.0000000e+00 6.1732472e-04 0.0000000e+00 
0.0000000e+00 9.9255145e-04 0.0000000e+00 
0.0000000e+00 1.1729384e-03 0.0000000e+00 
0.0000000e+00 1.1584858e-03 0.0000000e+00 
0.0000000e+00 9.4919332e-04 0.0000000e+00 
0.0000000e+00 5.4506119e-04 0.0000000e+00 
0.0000000e+00 -5.3910630e-05 0.0000000e+00 
0.0000000e+00 -8.4772217e-04 0.0000000e+00 
0.0000000e+00 -1.8363734e-03 0.0000000e+00 
0.0000000e+00 -3.6604583e-04 0.0000000e+00 
0.0000000e+00 7.7112694e-04 0.0000000e+00 
0.0000000e+00 1.5751449e-03 0.0000000e+00 
0.0000000e+00 2.0460081e-03 0.0000000e+00 