# vtk DataFile Version 4.0
vtk output
ASCII
DATASET UNSTRUCTURED_GRID
POINTS 60 float
0.0000000e+00 0.0000000e+00 0.0000000e+00 
0.0000000e+00 2.0000000e-01 0.0000000e+00 
0.0000000e+00 4.0000001e-01 0.0000000e+00 
0.0000000e+00 6.0000002e-01 0.0000000e+00 
0.0000000e+00 8.0000001e-01 0.0000000e+00 
0.0000000e+00 1.0000000e+00 0.0000000e+00 
0.0000000e+00 1.2000000e+00 0.0000000e+00 
0.0000000e+00 1.4000000e+00 0.0000000e+00 
0.0000000e+00 1.6000000e+00 0.0000000e+00 
0.0000000e+00 1.8000000e+00 0.0000000e+00 
0.0000000e+00 2.0000000e+00 0.0000000e+00 
0.0000000e+00 2.2000000e+00 0.0000000e+00 
0.0000000e+00 2.4000001e+00 0.0000000e+00 
0.0000000e+00 2.5999999e+00 0.0000000e+00 
0.0000000e+00 2.8000000e+00 0.0000000e+00 
0.0000000e+00 3.0000000e+00 0.0000000e+00 
0.0000000e+00 3.2000000e+00 0.0000000e+00 
0.0000000e+00 3.4000001e+00 0.0000000e+00 
0.0000000e+00 3.5999999e+00 0.0000000e+00 
0.0000000e+00 3.8000000e+00 0.0000000e+00 
0.0000000e+00 4.0000000e+00 0.0000000e+00 
2.0000000e-01 4.0000000e+00 0.0000000e+00 
4.0000001e-01 4.0000000e+00 0.0000000e+00 
6.0000002e-01 4.0000000e+00 0.0000000e+00 
8.0000001e-01 4.0000000e+00 0.0000000e+00 
1.0000000e+00 4.0000000e+00 0.0000000e+00 
1.2000000e+00 4.0000000e+00 0.0000000e+00 
1.4000000e+00 4.0000000e+00 0.0000000e+00 
1.6000000e+00 4.0000000e+00 0.0000000e+00 
1.8000000e+00 4.0000000e+00 0.0000000e+00 
2.0000000e+00 4.0000000e+00 0.0000000e+00 
2.0000000e+00 3.8000000e+00 0.0000000e+00 
2.0000000e+00 3.5999999e+00 0.0000000e+00 
2.0000000e+00 3.4000001e+00 0.0000000e+00 
2.0000000e+00 3.2000000e+00 0.0000000e+00 
2.0000000e+00 3.0000000e+00 0.0000000e+00 
2.0000000e+00 2.8000000e+00 0.0000000e+00 
2.0000000e+00 2.5999999e+00 0.0000000e+00 
2.0000000e+00 2.4000001e+00 0.0000000e+00 
2.0000000e+00 2.2000000e+00 0.0000000e+00 
2.0000000e+00 2.0000000e+00 0.0000000e+00 
2.0000000e+00 1.8000000e+00 0.0000000e+00 
2.0000000e+00 1.6000000e+00 0.0000000e+00 
2.0000000e+00 1.4000000e+00 0.0000000e+00 
2.0000000e+00 1.2000000e+00 0.0000000e+00 
2.0000000e+00 1.0000000e+00 0.0000000e+00 
2.0000000e+00 8.0000001e-01 0.0000000e+00 
2.0000000e+00 6.0000002e-01 0.0000000e+00 
2.0000000e+00 4.0000001e-01 0.0000000e+00 
2.0000000e+00 2.0000000e-01 0.0000000e+00 
2.0000000e+00 0.0000000e+00 0.0000000e+00 
2.0000000e-01 2.0000000e+00 0.0000000e+00 
4.0000001e-01 2.0000000e+00 0.0000000e+00 
6.0000002e-01 2.0000000e+00 0.0000000e+00 
8.0000001e-01 2.0000000e+00 0.0000000e+00 
1.0000000e+00 2.0000000e+00 0.0000000e+00 
1.2000000e+00 2.0000000e+00 0.0000000e+00 
1.4000000e+00 2.0000000e+00 0.0000000e+00 
1.6000000e+00 2.0000000e+00 0.0000000e+00 
1.8000000e+00 2.0000000e+00 0.0000000e+00 

CELLS 60 180
2 0 1
2 1 2
2 2 3
2 3 4
2 4 5
2 5 6
2 6 7
2 7 8
2 8 9
2 9 10
2 10 11
2 11 12
2 12 13
2 13 14
2 14 15
2 15 16
2 16 17
2 17 18
2 18 19
2 19 20
2 20 21
2 21 22
2 22 23
2 23 24
2 24 25
2 25 26
2 26 27
2 27 28
2 28 29
2 29 30
2 30 31
2 31 32
2 32 33
2 33 34
2 34 35
2 35 36
2 36 37
2 37 38
2 38 39
2 39 40
2 40 41
2 41 42
2 42 43
2 43 44
2 44 45
2 45 46
2 46 47
2 47 48
2 48 49
2 49 50
2 10 51
2 51 52
2 52 53
2 53 54
2 54 55
2 55 56
2 56 57
2 57 58
2 58 59
2 59 40

CELL_TYPES 60
3
3
3
3
3
3
3
3
3
3
3
3
3
3
3
3
3
3
3
3
3
3
3
3
3
3
3
3
3
3
3
3
3
3
3
3
3
3
3
3
3
3
3
3
3
3
3
3
3
3
3
3
3
3
3
3
3
3
3
3
POINT_DATA 60
FIELD FieldData 6
DISPLACEMENT 3 60  float
0.0000000e+00 0.0000000e+00 0.0000000e+00 
-8.2383767e-06 -6.7038395e-06 0.0000000e+00 
-2.9302475e-05 -1.3407679e-05 0.0000000e+00 
-5.7715755e-05 -2.0111518e-05 0.0000000e+00 
-8.8001667e-05 -2.6815358e-05 0.0000000e+00 
-1.1468367e-04 -3.3519198e-05 0.0000000e+00 
-1.3228522e-04 -4.0223036e-05 0.0000000e+00 
-1.3532977e-04 -4.6926878e-05 0.0000000e+00 
-1.1834077e-04 -5.3630716e-05 0.0000000e+00 
-7.5841686e-05 -6.0334554e-05 0.0000000e+00 
-2.3559719e-06 -6.7038396e-05 0.0000000e+00 
5.4984415e-05 -7.0390313e-05 0.0000000e+00 
5.6259927e-05 -7.3742231e-05 0.0000000e+00 
1.7765731e-05 -7.7094155e-05 0.0000000e+00 
-4.4203003e-05 -8.0446072e-05 0.0000000e+00 
-1.1335111e-04 -8.3797990e-05 0.0000000e+00 
-1.7338342e-04 -8.7149914e-05 0.0000000e+00 
-2.0800479e-04 -9.0501831e-05 0.0000000e+00 
-2.0092001e-04 -9.3853756e-05 0.0000000e+00 
-1.3583394e-04 -9.7205673e-05 0.0000000e+00 
3.5485991e-06 -1.0055759e-04 0.0000000e+00 
2.8388793e-06 -3.1627188e-04 0.0000000e+00 
2.1291594e-06 -5.5587909e-04 0.0000000e+00 
1.4194396e-06 -7.6550711e-04 0.0000000e+00 
7.0971981e-07 -9.0667594e-04 0.0000000e+00 
-1.0773756e-16 -9.5629756e-04 0.0000000e+00 
-7.0971981e-07 -9.0667594e-04 0.0000000e+00 
-1.4194396e-06 -7.6550711e-04 0.0000000e+00 
-2.1291594e-06 -5.5587909e-04 0.0000000e+00 
-2.8388793e-06 -3.1627188e-04 0.0000000e+00 
-3.5485991e-06 -1.0055759e-04 0.0000000e+00 
1.3583394e-04 -9.7205673e-05 0.0000000e+00 
2.0092001e-04 -9.3853756e-05 0.0000000e+00 
2.0800479e-04 -9.0501831e-05 0.0000000e+00 
1.7338342e-04 -8.7149914e-05 0.0000000e+00 
1.1335111e-04 -8.3797990e-05 0.0000000e+00 
4.4203003e-05 -8.0446072e-05 0.0000000e+00 
-1.7765731e-05 -7.7094155e-05 0.0000000e+00 
-5.6259927e-05 -7.3742231e-05 0.0000000e+00 
-5.4984415e-05 -7.0390313e-05 0.0000000e+00 
2.3559719e-06 -6.7038396e-05 0.0000000e+00 
7.5841686e-05 -6.0334554e-05 0.0000000e+00 
1.1834077e-04 -5.3630716e-05 0.0000000e+00 
1.3532977e-04 -4.6926878e-05 0.0000000e+00 
1.3228522e-04 -4.0223036e-05 0.0000000e+00 
1.1468367e-04 -3.3519198e-05 0.0000000e+00 
8.8001667e-05 -2.6815358e-05 0.0000000e+00 
5.7715755e-05 -2.0111518e-05 0.0000000e+00 
2.9302475e-05 -1.3407679e-05 0.0000000e+00 
8.2383767e-06 -6.7038395e-06 0.0000000e+00 
0.0000000e+00 0.0000000e+00 0.0000000e+00 
-1.8847775e-06 -2.0071054e-04 0.0000000e+00 
-1.4135830e-06 -3.7650717e-04 0.0000000e+00 
-9.4238874e-07 -5.4055621e-04 0.0000000e+00 
-4.7119437e-07 -6.5437768e-04 0.0000000e+00 
-1.0184319e-16 -6.9488352e-04 0.0000000e+00 
4.7119437e-07 -6.5437768e-04 0.0000000e+00 
9.4238874e-07 -5.4055621e-04 0.0000000e+00 
1.4135830e-06 -3.7650717e-04 0.0000000e+00 
1.8847775e-06 -2.0071054e-04 0.0000000e+00 
REACTION 3 60  float
7.1125378e+02 2.0000193e+04 0.0000000e+00 
-6.1206067e-01 -2.7577002e+00 0.0000000e+00 
-3.5050821e-01 -2.6861312e+00 0.0000000e+00 
-8.9279413e-02 -8.1326216e-01 0.0000000e+00 
1.7183229e-01 1.5185939e+00 0.0000000e+00 
4.3315670e-01 2.9671233e+00 0.0000000e+00 
6.9478720e-01 2.1900129e+00 0.0000000e+00 
9.5622110e-01 -2.1550500e+00 0.0000000e+00 
1.2160015e+00 -1.1410379e+01 0.0000000e+00 
1.4713566e+00 -2.6918283e+01 0.0000000e+00 
-1.2936485e+02 1.5377848e+01 0.0000000e+00 
-1.3333546e+00 2.5105312e+01 0.0000000e+00 
-9.4794476e-01 -1.0619260e+01 0.0000000e+00 
-5.5606025e-01 -1.7341671e+01 0.0000000e+00 
-1.6917162e-01 -6.9452143e+00 0.0000000e+00 
2.1488149e-01 8.6868153e+00 0.0000000e+00 
6.0242981e-01 1.7671131e+01 0.0000000e+00 
9.9450964e-01 8.1244411e+00 0.0000000e+00 
1.3774010e+00 -3.1836550e+01 0.0000000e+00 
1.7131652e+00 -1.1409508e+02 0.0000000e+00 
-3.4066531e+02 1.4540216e+02 0.0000000e+00 
-8.2461250e+01 -4.7076054e-02 0.0000000e+00 
9.7302864e+01 2.9677974e-02 0.0000000e+00 
1.7599423e+02 1.7789330e-01 0.0000000e+00 
1.2840298e+02 3.8088748e-01 0.0000000e+00 
-8.2822226e-08 4.7730967e-01 0.0000000e+00 
-1.2840298e+02 3.8076478e-01 0.0000000e+00 
-1.7599423e+02 1.7793339e-01 0.0000000e+00 
-9.7302864e+01 2.9760513e-02 0.0000000e+00 
8.2461250e+01 -4.7076054e-02 0.0000000e+00 
3.4066531e+02 1.4540216e+02 0.0000000e+00 
-1.7131646e+00 -1.1409508e+02 0.0000000e+00 
-1.3774016e+00 -3.1836550e+01 0.0000000e+00 
-9.9450952e-01 8.1244411e+00 0.0000000e+00 
-6.0242939e-01 1.7671131e+01 0.0000000e+00 
-2.1488164e-01 8.6868153e+00 0.0000000e+00 
1.6917112e-01 -6.9452143e+00 0.0000000e+00 
5.5606061e-01 -1.7341671e+01 0.0000000e+00 
9.4794482e-01 -1.0619260e+01 0.0000000e+00 
1.3333544e+00 2.5105312e+01 0.0000000e+00 
1.2936485e+02 1.5377848e+01 0.0000000e+00 
-1.4713559e+00 -2.6918283e+01 0.0000000e+00 
-1.2160023e+00 -1.1410379e+01 0.0000000e+00 
-9.5622027e-01 -2.1550500e+00 0.0000000e+00 
-6.9478697e-01 2.1900129e+00 0.0000000e+00 
-4.3315765e-01 2.9671233e+00 0.0000000e+00 
-1.7183182e-01 1.5185939e+00 0.0000000e+00 
8.9279965e-02 -8.1326216e-01 0.0000000e+00 
3.5050753e-01 -2.6861312e+00 0.0000000e+00 
6.1206061e-01 -2.7577002e+00 0.0000000e+00 
-7.1125378e+02 2.0000193e+04 0.0000000e+00 
-9.7091034e+01 2.2642212e-01 0.0000000e+00 
2.7724787e+01 -4.8435729e-02 0.0000000e+00 
1.0170065e+02 -2.2404525e-01 0.0000000e+00 
8.2883568e+01 -2.6637778e-01 0.0000000e+00 
-8.2790848e-08 -2.6266453e-01 0.0000000e+00 
-8.2883568e+01 -2.6637772e-01 0.0000000e+00 
-1.0170065e+02 -2.2404525e-01 0.0000000e+00 
-2.7724787e+01 -4.8435729e-02 0.0000000e+00 
9.7091034e+01 2.2642219e-01 0.0000000e+00 
ROTATION 3 60  float
0.0000000e+00 0.0000000e+00 0.0000000e+00 
0.0000000e+00 0.0000000e+00 7.7819976e-05 
0.0000000e+00 0.0000000e+00 1.2825723e-04 
0.0000000e+00 0.0000000e+00 1.5131176e-04 
0.0000000e+00 0.0000000e+00 1.4698357e-04 
0.0000000e+00 0.0000000e+00 1.1527266e-04 
0.0000000e+00 0.0000000e+00 5.6179026e-05 
0.0000000e+00 0.0000000e+00 -3.0297329e-05 
0.0000000e+00 0.0000000e+00 -1.4415641e-04 
0.0000000e+00 0.0000000e+00 -2.8539822e-04 
0.0000000e+00 0.0000000e+00 -4.5402272e-04 
0.0000000e+00 0.0000000e+00 -1.3296044e-04 
0.0000000e+00 0.0000000e+00 1.0662602e-04 
0.0000000e+00 0.0000000e+00 2.6473662e-04 
0.0000000e+00 0.0000000e+00 3.4137143e-04 
0.0000000e+00 0.0000000e+00 3.3653036e-04 
0.0000000e+00 0.0000000e+00 2.5021349e-04 
0.0000000e+00 0.0000000e+00 8.2420753e-05 
0.0000000e+00 0.0000000e+00 -1.6684781e-04 
0.0000000e+00 0.0000000e+00 -4.9759221e-04 
0.0000000e+00 0.0000000e+00 -9.0981246e-04 
0.0000000e+00 0.0000000e+00 -1.1896105e-03 
0.0000000e+00 0.0000000e+00 -1.1615681e-03 
0.0000000e+00 0.0000000e+00 -9.0264552e-04 
0.0000000e+00 0.0000000e+00 -4.8980280e-04 
0.0000000e+00 0.0000000e+00 2.2398330e-17 
0.0000000e+00 0.0000000e+00 4.8980280e-04 
0.0000000e+00 0.0000000e+00 9.0264552e-04 
0.0000000e+00 0.0000000e+00 1.1615681e-03 
0.0000000e+00 0.0000000e+00 1.1896105e-03 
0.0000000e+00 0.0000000e+00 9.0981246e-04 
0.0000000e+00 0.0000000e+00 4.9759221e-04 
0.0000000e+00 0.0000000e+00 1.6684781e-04 
0.0000000e+00 0.0000000e+00 -8.2420753e-05 
0.0000000e+00 0.0000000e+00 -2.5021349e-04 
0.0000000e+00 0.0000000e+00 -3.3653036e-04 
0.0000000e+00 0.0000000e+00 -3.4137143e-04 
0.0000000e+00 0.0000000e+00 -2.6473662e-04 
0.0000000e+00 0.0000000e+00 -1.0662602e-04 
0.0000000e+00 0.0000000e+00 1.3296044e-04 
0.0000000e+00 0.0000000e+00 4.5402272e-04 
0.0000000e+00 0.0000000e+00 2.8539822e-04 
0.0000000e+00 0.0000000e+00 1.4415641e-04 
0.0000000e+00 0.0000000e+00 3.0297329e-05 
0.0000000e+00 0.0000000e+00 -5.6179026e-05 
0.0000000e+00 0.0000000e+00 -1.1527266e-04 
0.0000000e+00 0.0000000e+00 -1.4698357e-04 
0.0000000e+00 0.0000000e+00 -1.5131176e-04 
0.0000000e+00 0.0000000e+00 -1.2825723e-04 
0.0000000e+00 0.0000000e+00 -7.7819976e-05 
0.0000000e+00 0.0000000e+00 0.0000000e+00 
0.0000000e+00 0.0000000e+00 -8.2497863e-04 
0.0000000e+00 0.0000000e+00 -8.8809425e-04 
0.0000000e+00 0.0000000e+00 -7.2032964e-04 
0.0000000e+00 0.0000000e+00 -3.9864486e-04 
0.0000000e+00 0.0000000e+00 -2.0905109e-17 
0.0000000e+00 0.0000000e+00 3.9864486e-04 
0.0000000e+00 0.0000000e+00 7.2032964e-04 
0.0000000e+00 0.0000000e+00 8.8809425e-04 
0.0000000e+00 0.0000000e+00 8.2497863e-04 
REACTION_MOMENT 3 60  float
0.0000000e+00 0.0000000e+00 -4.7566232e+02 
0.0000000e+00 0.0000000e+00 -1.6044705e-01 
0.0000000e+00 0.0000000e+00 -2.6586577e-01 
0.0000000e+00 0.0000000e+00 -3.1404069e-01 
0.0000000e+00 0.0000000e+00 -3.0499715e-01 
0.0000000e+00 0.0000000e+00 -2.3872966e-01 
0.0000000e+00 0.0000000e+00 -1.1520807e-01 
0.0000000e+00 0.0000000e+00 6.5577999e-02 
0.0000000e+00 0.0000000e+00 3.0353630e-01 
0.0000000e+00 0.0000000e+00 5.9835052e-01 
0.0000000e+00 0.0000000e+00 5.3268522e-01 
0.0000000e+00 0.0000000e+00 1.4214113e-01 
0.0000000e+00 0.0000000e+00 -1.0806479e-01 
0.0000000e+00 0.0000000e+00 -2.7301586e-01 
0.0000000e+00 0.0000000e+00 -3.5274076e-01 
0.0000000e+00 0.0000000e+00 -3.4771055e-01 
0.0000000e+00 0.0000000e+00 -2.5788656e-01 
0.0000000e+00 0.0000000e+00 -8.2780786e-02 
0.0000000e+00 0.0000000e+00 1.7747208e-01 
0.0000000e+00 0.0000000e+00 5.2003032e-01 
0.0000000e+00 0.0000000e+00 4.9491420e-01 
0.0000000e+00 0.0000000e+00 2.2821076e-01 
0.0000000e+00 0.0000000e+00 2.2418410e-01 
0.0000000e+00 0.0000000e+00 1.8278246e-01 
0.0000000e+00 0.0000000e+00 1.0428350e-01 
0.0000000e+00 0.0000000e+00 6.9044290e-09 
0.0000000e+00 0.0000000e+00 -1.0429575e-01 
0.0000000e+00 0.0000000e+00 -1.8280298e-01 
0.0000000e+00 0.0000000e+00 -2.2419235e-01 
0.0000000e+00 0.0000000e+00 -2.2821076e-01 
0.0000000e+00 0.0000000e+00 -4.9491420e-01 
0.0000000e+00 0.0000000e+00 -5.2003026e-01 
0.0000000e+00 0.0000000e+00 -1.7747207e-01 
0.0000000e+00 0.0000000e+00 8.2780741e-02 
0.0000000e+00 0.0000000e+00 2.5788656e-01 
0.0000000e+00 0.0000000e+00 3.4771058e-01 
0.0000000e+00 0.0000000e+00 3.5274076e-01 
0.0000000e+00 0.0000000e+00 2.7301583e-01 
0.0000000e+00 0.0000000e+00 1.0806479e-01 
0.0000000e+00 0.0000000e+00 -1.4214115e-01 
0.0000000e+00 0.0000000e+00 -5.3268528e-01 
0.0000000e+00 0.0000000e+00 -5.9835052e-01 
0.0000000e+00 0.0000000e+00 -3.0353633e-01 
0.0000000e+00 0.0000000e+00 -6.5578029e-02 
0.0000000e+00 0.0000000e+00 1.1520815e-01 
0.0000000e+00 0.0000000e+00 2.3872966e-01 
0.0000000e+00 0.0000000e+00 3.0499709e-01 
0.0000000e+00 0.0000000e+00 3.1404075e-01 
0.0000000e+00 0.0000000e+00 2.6586583e-01 
0.0000000e+00 0.0000000e+00 1.6044702e-01 
0.0000000e+00 0.0000000e+00 4.7566232e+02 
0.0000000e+00 0.0000000e+00 -1.3018033e-01 
0.0000000e+00 0.0000000e+00 -1.4261857e-01 
0.0000000e+00 0.0000000e+00 -1.1273054e-01 
0.0000000e+00 0.0000000e+00 -5.9958477e-02 
0.0000000e+00 0.0000000e+00 -6.9981070e-09 
0.0000000e+00 0.0000000e+00 5.9958469e-02 
0.0000000e+00 0.0000000e+00 1.1273054e-01 
0.0000000e+00 0.0000000e+00 1.4261857e-01 
0.0000000e+00 0.0000000e+00 1.3018033e-01 
FORCE 3 60  float
-2.0000164e+04 7.1207770e+02 0.0000000e+00 
-1.9998762e+04 7.1241278e+02 0.0000000e+00 
-1.9996004e+04 7.1293994e+02 0.0000000e+00 
-1.9994238e+04 7.1318079e+02 0.0000000e+00 
-1.9994594e+04 7.1313562e+02 0.0000000e+00 
-1.9996859e+04 7.1280426e+02 0.0000000e+00 
-1.9999480e+04 7.1218658e+02 0.0000000e+00 
-1.9999559e+04 7.1128265e+02 0.0000000e+00 
-1.9992857e+04 7.1009290e+02 0.0000000e+00 
-1.9973793e+04 7.0861884e+02 0.0000000e+00 
-9.4655459e+03 -2.0586316e+03 0.0000000e+00 
-9.9878994e+03 2.1166460e+03 0.0000000e+00 
-9.9946357e+03 2.1178965e+03 0.0000000e+00 
-9.9803203e+03 2.1187214e+03 0.0000000e+00 
-9.9680146e+03 2.1191201e+03 0.0000000e+00 
-9.9688955e+03 2.1190950e+03 0.0000000e+00 
-9.9822568e+03 2.1186458e+03 0.0000000e+00 
-9.9955098e+03 2.1177703e+03 0.0000000e+00 
-9.9841816e+03 2.1164692e+03 0.0000000e+00 
-9.9119160e+03 2.1147578e+03 0.0000000e+00 
-5.8127524e+03 -3.4436897e+03 0.0000000e+00 
-1.7297274e+03 -8.0011426e+03 0.0000000e+00 
-1.7393815e+03 -6.0011221e+03 0.0000000e+00 
-1.8791646e+03 -4.0009126e+03 0.0000000e+00 
-2.0338595e+03 -2.0005197e+03 0.0000000e+00 
-2.0989956e+03 -3.4622531e-08 0.0000000e+00 
-2.0338595e+03 2.0005198e+03 0.0000000e+00 
-1.8791646e+03 4.0009126e+03 0.0000000e+00 
-1.7393815e+03 6.0011221e+03 0.0000000e+00 
-1.7297274e+03 8.0011426e+03 0.0000000e+00 
-5.8127524e+03 3.4436897e+03 0.0000000e+00 
-9.9119160e+03 -2.1147578e+03 0.0000000e+00 
-9.9841816e+03 -2.1164692e+03 0.0000000e+00 
-9.9955098e+03 -2.1177703e+03 0.0000000e+00 
-9.9822568e+03 -2.1186458e+03 0.0000000e+00 
-9.9688955e+03 -2.1190950e+03 0.0000000e+00 
-9.9680146e+03 -2.1191201e+03 0.0000000e+00 
-9.9803203e+03 -2.1187214e+03 0.0000000e+00 
-9.9946357e+03 -2.1178965e+03 0.0000000e+00 
-9.9878994e+03 -2.1166460e+03 0.0000000e+00 
-9.4655459e+03 2.0586316e+03 0.0000000e+00 
-1.9973793e+04 -7.0861884e+02 0.0000000e+00 
-1.9992857e+04 -7.1009290e+02 0.0000000e+00 
-1.9999559e+04 -7.1128265e+02 0.0000000e+00 
-1.9999480e+04 -7.1218658e+02 0.0000000e+00 
-1.9996859e+04 -7.1280426e+02 0.0000000e+00 
-1.9994594e+04 -7.1313562e+02 0.0000000e+00 
-1.9994238e+04 -7.1318079e+02 0.0000000e+00 
-1.9996004e+04 -7.1293994e+02 0.0000000e+00 
-1.9998762e+04 -7.1241278e+02 0.0000000e+00 
-2.0000164e+04 -7.1207770e+02 0.0000000e+00 
1.5876235e+03 -7.9993462e+03 0.0000000e+00 
1.6213496e+03 -5.9992856e+03 0.0000000e+00 
1.5544142e+03 -3.9994343e+03 0.0000000e+00 
1.4601727e+03 -1.9996986e+03 0.0000000e+00 
1.4179785e+03 3.4622339e-08 0.0000000e+00 
1.4601727e+03 1.9996986e+03 0.0000000e+00 
1.5544142e+03 3.9994343e+03 0.0000000e+00 
1.6213496e+03 5.9992856e+03 0.0000000e+00 
1.5876235e+03 7.9993462e+03 0.0000000e+00 
MOMENT 3 60  float
0.0000000e+00 0.0000000e+00 -4.1977789e+02 
0.0000000e+00 0.0000000e+00 -3.3330548e+02 
0.0000000e+00 0.0000000e+00 -1.9098506e+02 
0.0000000e+00 0.0000000e+00 -4.8664646e+01 
0.0000000e+00 0.0000000e+00 9.3655777e+01 
0.0000000e+00 0.0000000e+00 2.3597620e+02 
0.0000000e+00 0.0000000e+00 3.7829660e+02 
0.0000000e+00 0.0000000e+00 5.2061707e+02 
0.0000000e+00 0.0000000e+00 6.6293744e+02 
0.0000000e+00 0.0000000e+00 8.0525787e+02 
0.0000000e+00 0.0000000e+00 4.3303885e+02 
0.0000000e+00 0.0000000e+00 -1.4569794e+03 
0.0000000e+00 0.0000000e+00 -1.0335106e+03 
0.0000000e+00 0.0000000e+00 -6.1004187e+02 
0.0000000e+00 0.0000000e+00 -1.8657310e+02 
0.0000000e+00 0.0000000e+00 2.3689563e+02 
0.0000000e+00 0.0000000e+00 6.6036438e+02 
0.0000000e+00 0.0000000e+00 1.0838331e+03 
0.0000000e+00 0.0000000e+00 1.5073019e+03 
0.0000000e+00 0.0000000e+00 1.9307706e+03 
0.0000000e+00 0.0000000e+00 1.9179391e+03 
0.0000000e+00 0.0000000e+00 6.3273242e+02 
0.0000000e+00 0.0000000e+00 -7.6726569e+02 
0.0000000e+00 0.0000000e+00 -1.7672646e+03 
0.0000000e+00 0.0000000e+00 -2.3672644e+03 
0.0000000e+00 0.0000000e+00 -2.5672644e+03 
0.0000000e+00 0.0000000e+00 -2.3672644e+03 
0.0000000e+00 0.0000000e+00 -1.7672646e+03 
0.0000000e+00 0.0000000e+00 -7.6726569e+02 
0.0000000e+00 0.0000000e+00 6.3273242e+02 
0.0000000e+00 0.0000000e+00 1.9179391e+03 
0.0000000e+00 0.0000000e+00 1.9307706e+03 
0.0000000e+00 0.0000000e+00 1.5073019e+03 
0.0000000e+00 0.0000000e+00 1.0838331e+03 
0.0000000e+00 0.0000000e+00 6.6036438e+02 
0.0000000e+00 0.0000000e+00 2.3689563e+02 
0.0000000e+00 0.0000000e+00 -1.8657310e+02 
0.0000000e+00 0.0000000e+00 -6.1004187e+02 
0.0000000e+00 0.0000000e+00 -1.0335106e+03 
0.0000000e+00 0.0000000e+00 -1.4569794e+03 
0.0000000e+00 0.0000000e+00 4.3303885e+02 
0.0000000e+00 0.0000000e+00 8.0525787e+02 
0.0000000e+00 0.0000000e+00 6.6293744e+02 
0.0000000e+00 0.0000000e+00 5.2061707e+02 
0.0000000e+00 0.0000000e+00 3.7829660e+02 
0.0000000e+00 0.0000000e+00 2.3597620e+02 
0.0000000e+00 0.0000000e+00 9.3655777e+01 
0.0000000e+00 0.0000000e+00 -4.8664646e+01 
0.0000000e+00 0.0000000e+00 -1.9098506e+02 
0.0000000e+00 0.0000000e+00 -3.3330548e+02 
0.0000000e+00 0.0000000e+00 -4.1977789e+02 
0.0000000e+00 0.0000000e+00 1.1065273e+03 
0.0000000e+00 0.0000000e+00 -2.9347321e+02 
0.0000000e+00 0.0000000e+00 -1.2934738e+03 
0.0000000e+00 0.0000000e+00 -1.8934742e+03 
0.0000000e+00 0.0000000e+00 -2.0934744e+03 
0.0000000e+00 0.0000000e+00 -1.8934742e+03 
0.0000000e+00 0.0000000e+00 -1.2934738e+03 
0.0000000e+00 0.0000000e+00 -2.9347321e+02 
0.0000000e+00 0.0000000e+00 1.1065273e+03 
CELL_DATA 60
FIELD FieldData 2
FORCE 3 60  float
-2.0000164e+04 7.1207770e+02 0.0000000e+00 
-1.9997361e+04 7.1274792e+02 0.0000000e+00 
-1.9994648e+04 7.1313190e+02 0.0000000e+00 
-1.9993828e+04 7.1322974e+02 0.0000000e+00 
-1.9995359e+04 7.1304144e+02 0.0000000e+00 
-1.9998359e+04 7.1256702e+02 0.0000000e+00 
-2.0000602e+04 7.1180621e+02 0.0000000e+00 
-1.9998518e+04 7.1075909e+02 0.0000000e+00 
-1.9987197e+04 7.0942664e+02 0.0000000e+00 
-1.9960391e+04 7.0781110e+02 0.0000000e+00 
-9.9756436e+03 2.1159146e+03 0.0000000e+00 
-1.0000155e+04 2.1173774e+03 0.0000000e+00 
-9.9891152e+03 2.1184158e+03 0.0000000e+00 
-9.9715254e+03 2.1190269e+03 0.0000000e+00 
-9.9645039e+03 2.1192131e+03 0.0000000e+00 
-9.9732871e+03 2.1189766e+03 0.0000000e+00 
-9.9912275e+03 2.1183149e+03 0.0000000e+00 
-9.9997930e+03 2.1172256e+03 0.0000000e+00 
-9.9685703e+03 2.1157131e+03 0.0000000e+00 
-9.8552617e+03 2.1138025e+03 0.0000000e+00 
-1.7702976e+03 -9.0011064e+03 0.0000000e+00 
-1.6891572e+03 -7.0011792e+03 0.0000000e+00 
-1.7896057e+03 -5.0010645e+03 0.0000000e+00 
-1.9687233e+03 -3.0007605e+03 0.0000000e+00 
-2.0989956e+03 -1.0002786e+03 0.0000000e+00 
-2.0989956e+03 1.0002786e+03 0.0000000e+00 
-1.9687233e+03 3.0007605e+03 0.0000000e+00 
-1.7896057e+03 5.0010645e+03 0.0000000e+00 
-1.6891572e+03 7.0011792e+03 0.0000000e+00 
-1.7702976e+03 9.0011064e+03 0.0000000e+00 
-9.8552617e+03 -2.1138025e+03 0.0000000e+00 
-9.9685703e+03 -2.1157131e+03 0.0000000e+00 
-9.9997930e+03 -2.1172256e+03 0.0000000e+00 
-9.9912275e+03 -2.1183149e+03 0.0000000e+00 
-9.9732871e+03 -2.1189766e+03 0.0000000e+00 
-9.9645039e+03 -2.1192131e+03 0.0000000e+00 
-9.9715254e+03 -2.1190269e+03 0.0000000e+00 
-9.9891152e+03 -2.1184158e+03 0.0000000e+00 
-1.0000155e+04 -2.1173774e+03 0.0000000e+00 
-9.9756436e+03 -2.1159146e+03 0.0000000e+00 
-1.9960391e+04 -7.0781110e+02 0.0000000e+00 
-1.9987197e+04 -7.0942664e+02 0.0000000e+00 
-1.9998518e+04 -7.1075909e+02 0.0000000e+00 
-2.0000602e+04 -7.1180621e+02 0.0000000e+00 
-1.9998359e+04 -7.1256702e+02 0.0000000e+00 
-1.9995359e+04 -7.1304144e+02 0.0000000e+00 
-1.9993828e+04 -7.1322974e+02 0.0000000e+00 
-1.9994648e+04 -7.1313190e+02 0.0000000e+00 
-1.9997361e+04 -7.1274792e+02 0.0000000e+00 
-2.0000164e+04 -7.1207770e+02 0.0000000e+00 
1.5390092e+03 -8.9994404e+03 0.0000000e+00 
1.6362379e+03 -6.9992524e+03 0.0000000e+00 
1.6064614e+03 -4.9993184e+03 0.0000000e+00 
1.5023669e+03 -2.9995505e+03 0.0000000e+00 
1.4179785e+03 -9.9984656e+02 0.0000000e+00 
1.4179785e+03 9.9984656e+02 0.0000000e+00 
1.5023669e+03 2.9995505e+03 0.0000000e+00 
1.6064614e+03 4.9993184e+03 0.0000000e+00 
1.6362379e+03 6.9992524e+03 0.0000000e+00 
1.5390092e+03 8.9994404e+03 0.0000000e+00 
MOMENT 3 60  float
0.0000000e+00 0.0000000e+00 -4.0445694e+02 
0.0000000e+00 0.0000000e+00 -2.6213962e+02 
0.0000000e+00 0.0000000e+00 -1.1982227e+02 
0.0000000e+00 0.0000000e+00 2.2495079e+01 
0.0000000e+00 0.0000000e+00 1.6481242e+02 
0.0000000e+00 0.0000000e+00 3.0712976e+02 
0.0000000e+00 0.0000000e+00 4.4944711e+02 
0.0000000e+00 0.0000000e+00 5.9176447e+02 
0.0000000e+00 0.0000000e+00 7.3408179e+02 
0.0000000e+00 0.0000000e+00 8.7639917e+02 
0.0000000e+00 0.0000000e+00 -1.6686958e+03 
0.0000000e+00 0.0000000e+00 -1.2452316e+03 
0.0000000e+00 0.0000000e+00 -8.2176740e+02 
0.0000000e+00 0.0000000e+00 -3.9830319e+02 
0.0000000e+00 0.0000000e+00 2.5160990e+01 
0.0000000e+00 0.0000000e+00 4.4862518e+02 
0.0000000e+00 0.0000000e+00 8.7208936e+02 
0.0000000e+00 0.0000000e+00 1.2955535e+03 
0.0000000e+00 0.0000000e+00 1.7190178e+03 
0.0000000e+00 0.0000000e+00 2.1424824e+03 
0.0000000e+00 0.0000000e+00 1.4542461e+03 
0.0000000e+00 0.0000000e+00 -1.4574965e+02 
0.0000000e+00 0.0000000e+00 -1.3457463e+03 
0.0000000e+00 0.0000000e+00 -2.1457437e+03 
0.0000000e+00 0.0000000e+00 -2.5457419e+03 
0.0000000e+00 0.0000000e+00 -2.5457419e+03 
0.0000000e+00 0.0000000e+00 -2.1457437e+03 
0.0000000e+00 0.0000000e+00 -1.3457463e+03 
0.0000000e+00 0.0000000e+00 -1.4574965e+02 
0.0000000e+00 0.0000000e+00 1.4542461e+03 
0.0000000e+00 0.0000000e+00 2.1424824e+03 
0.0000000e+00 0.0000000e+00 1.7190178e+03 
0.0000000e+00 0.0000000e+00 1.2955535e+03 
0.0000000e+00 0.0000000e+00 8.7208936e+02 
0.0000000e+00 0.0000000e+00 4.4862518e+02 
0.0000000e+00 0.0000000e+00 2.5160990e+01 
0.0000000e+00 0.0000000e+00 -3.9830319e+02 
0.0000000e+00 0.0000000e+00 -8.2176740e+02 
0.0000000e+00 0.0000000e+00 -1.2452316e+03 
0.0000000e+00 0.0000000e+00 -1.6686958e+03 
0.0000000e+00 0.0000000e+00 8.7639917e+02 
0.0000000e+00 0.0000000e+00 7.3408179e+02 
0.0000000e+00 0.0000000e+00 5.9176447e+02 
0.0000000e+00 0.0000000e+00 4.4944711e+02 
0.0000000e+00 0.0000000e+00 3.0712976e+02 
0.0000000e+00 0.0000000e+00 1.6481242e+02 
0.0000000e+00 0.0000000e+00 2.2495079e+01 
0.0000000e+00 0.0000000e+00 -1.1982227e+02 
0.0000000e+00 0.0000000e+00 -2.6213962e+02 
0.0000000e+00 0.0000000e+00 -4.0445694e+02 
0.0000000e+00 0.0000000e+00 1.9280480e+03 
0.0000000e+00 0.0000000e+00 3.2804419e+02 
0.0000000e+00 0.0000000e+00 -8.7195874e+02 
0.0000000e+00 0.0000000e+00 -1.6719604e+03 
0.0000000e+00 0.0000000e+00 -2.0719612e+03 
0.0000000e+00 0.0000000e+00 -2.0719612e+03 
0.0000000e+00 0.0000000e+00 -1.6719604e+03 
0.0000000e+00 0.0000000e+00 -8.7195874e+02 
0.0000000e+00 0.0000000e+00 3.2804419e+02 
0.0000000e+00 0.0000000e+00 1.9280480e+03 
