# vtk DataFile Version 4.0
vtk output
ASCII
DATASET UNSTRUCTURED_GRID
POINTS 212 float
0.0000000e+00 0.0000000e+00 0.0000000e+00 
0.0000000e+00 0.0000000e+00 2.5000000e-01 
0.0000000e+00 0.0000000e+00 5.0000000e-01 
0.0000000e+00 0.0000000e+00 7.5000000e-01 
0.0000000e+00 0.0000000e+00 1.0000000e+00 
0.0000000e+00 0.0000000e+00 1.2500000e+00 
0.0000000e+00 0.0000000e+00 1.5000000e+00 
0.0000000e+00 0.0000000e+00 1.7500000e+00 
0.0000000e+00 0.0000000e+00 2.0000000e+00 
0.0000000e+00 0.0000000e+00 2.2500000e+00 
0.0000000e+00 0.0000000e+00 2.5000000e+00 
0.0000000e+00 0.0000000e+00 2.7500000e+00 
0.0000000e+00 0.0000000e+00 3.0000000e+00 
0.0000000e+00 0.0000000e+00 3.2500000e+00 
0.0000000e+00 0.0000000e+00 3.5000000e+00 
0.0000000e+00 0.0000000e+00 3.7500000e+00 
0.0000000e+00 0.0000000e+00 4.0000000e+00 
0.0000000e+00 0.0000000e+00 4.2500000e+00 
0.0000000e+00 0.0000000e+00 4.5000000e+00 
0.0000000e+00 0.0000000e+00 4.7500000e+00 
0.0000000e+00 0.0000000e+00 5.0000000e+00 
0.0000000e+00 0.0000000e+00 5.2500000e+00 
0.0000000e+00 0.0000000e+00 5.5000000e+00 
0.0000000e+00 0.0000000e+00 5.7500000e+00 
0.0000000e+00 0.0000000e+00 6.0000000e+00 
0.0000000e+00 0.0000000e+00 6.2500000e+00 
0.0000000e+00 0.0000000e+00 6.5000000e+00 
0.0000000e+00 0.0000000e+00 6.7500000e+00 
0.0000000e+00 0.0000000e+00 7.0000000e+00 
0.0000000e+00 0.0000000e+00 7.2500000e+00 
0.0000000e+00 0.0000000e+00 7.5000000e+00 
0.0000000e+00 0.0000000e+00 7.7500000e+00 
0.0000000e+00 0.0000000e+00 8.0000000e+00 
0.0000000e+00 0.0000000e+00 8.2500000e+00 
0.0000000e+00 0.0000000e+00 8.5000000e+00 
0.0000000e+00 0.0000000e+00 8.7500000e+00 
0.0000000e+00 0.0000000e+00 9.0000000e+00 
0.0000000e+00 0.0000000e+00 9.2500000e+00 
0.0000000e+00 0.0000000e+00 9.5000000e+00 
0.0000000e+00 0.0000000e+00 9.7500000e+00 
0.0000000e+00 0.0000000e+00 1.0000000e+01 
0.0000000e+00 0.0000000e+00 1.0250000e+01 
0.0000000e+00 0.0000000e+00 1.0500000e+01 
0.0000000e+00 0.0000000e+00 1.0750000e+01 
0.0000000e+00 0.0000000e+00 1.1000000e+01 
0.0000000e+00 0.0000000e+00 1.1250000e+01 
0.0000000e+00 0.0000000e+00 1.1500000e+01 
0.0000000e+00 0.0000000e+00 1.1750000e+01 
0.0000000e+00 0.0000000e+00 1.2000000e+01 
0.0000000e+00 0.0000000e+00 1.2250000e+01 
0.0000000e+00 0.0000000e+00 1.2500000e+01 
0.0000000e+00 0.0000000e+00 1.2750000e+01 
0.0000000e+00 0.0000000e+00 1.3000000e+01 
0.0000000e+00 0.0000000e+00 1.3250000e+01 
0.0000000e+00 0.0000000e+00 1.3500000e+01 
0.0000000e+00 0.0000000e+00 1.3750000e+01 
0.0000000e+00 0.0000000e+00 1.4000000e+01 
0.0000000e+00 0.0000000e+00 1.4250000e+01 
0.0000000e+00 0.0000000e+00 1.4500000e+01 
0.0000000e+00 0.0000000e+00 1.4750000e+01 
0.0000000e+00 0.0000000e+00 1.5000000e+01 
0.0000000e+00 0.0000000e+00 1.5250000e+01 
0.0000000e+00 0.0000000e+00 1.5500000e+01 
0.0000000e+00 0.0000000e+00 1.5750000e+01 
0.0000000e+00 0.0000000e+00 1.6000000e+01 
0.0000000e+00 0.0000000e+00 1.6250000e+01 
0.0000000e+00 0.0000000e+00 1.6500000e+01 
0.0000000e+00 0.0000000e+00 1.6750000e+01 
0.0000000e+00 0.0000000e+00 1.7000000e+01 
0.0000000e+00 0.0000000e+00 1.7250000e+01 
0.0000000e+00 0.0000000e+00 1.7500000e+01 
0.0000000e+00 0.0000000e+00 1.7750000e+01 
0.0000000e+00 0.0000000e+00 1.8000000e+01 
5.0000000e-01 0.0000000e+00 3.0000000e+00 
5.0000000e-01 0.0000000e+00 6.0000000e+00 
5.0000000e-01 0.0000000e+00 9.0000000e+00 
5.0000000e-01 0.0000000e+00 1.2000000e+01 
5.0000000e-01 0.0000000e+00 1.5000000e+01 
5.0000000e-01 0.0000000e+00 1.8000000e+01 
1.0000000e+00 0.0000000e+00 3.0000000e+00 
1.0000000e+00 0.0000000e+00 6.0000000e+00 
1.0000000e+00 0.0000000e+00 9.0000000e+00 
1.0000000e+00 0.0000000e+00 1.2000000e+01 
1.0000000e+00 0.0000000e+00 1.5000000e+01 
1.0000000e+00 0.0000000e+00 1.8000000e+01 
1.5000000e+00 0.0000000e+00 3.0000000e+00 
1.5000000e+00 0.0000000e+00 6.0000000e+00 
1.5000000e+00 0.0000000e+00 9.0000000e+00 
1.5000000e+00 0.0000000e+00 1.2000000e+01 
1.5000000e+00 0.0000000e+00 1.5000000e+01 
1.5000000e+00 0.0000000e+00 1.8000000e+01 
2.0000000e+00 0.0000000e+00 3.0000000e+00 
2.0000000e+00 0.0000000e+00 6.0000000e+00 
2.0000000e+00 0.0000000e+00 9.0000000e+00 
2.0000000e+00 0.0000000e+00 1.2000000e+01 
2.0000000e+00 0.0000000e+00 1.5000000e+01 
2.0000000e+00 0.0000000e+00 1.8000000e+01 
2.5000000e+00 0.0000000e+00 3.0000000e+00 
2.5000000e+00 0.0000000e+00 6.0000000e+00 
2.5000000e+00 0.0000000e+00 9.0000000e+00 
2.5000000e+00 0.0000000e+00 1.2000000e+01 
2.5000000e+00 0.0000000e+00 1.5000000e+01 
2.5000000e+00 0.0000000e+00 1.8000000e+01 
3.0000000e+00 0.0000000e+00 3.0000000e+00 
3.0000000e+00 0.0000000e+00 6.0000000e+00 
3.0000000e+00 0.0000000e+00 9.0000000e+00 
3.0000000e+00 0.0000000e+00 1.2000000e+01 
3.0000000e+00 0.0000000e+00 1.5000000e+01 
3.0000000e+00 0.0000000e+00 1.8000000e+01 
3.5000000e+00 0.0000000e+00 3.0000000e+00 
3.5000000e+00 0.0000000e+00 6.0000000e+00 
3.5000000e+00 0.0000000e+00 9.0000000e+00 
3.5000000e+00 0.0000000e+00 1.2000000e+01 
3.5000000e+00 0.0000000e+00 1.5000000e+01 
3.5000000e+00 0.0000000e+00 1.8000000e+01 
4.0000000e+00 0.0000000e+00 3.0000000e+00 
4.0000000e+00 0.0000000e+00 6.0000000e+00 
4.0000000e+00 0.0000000e+00 9.0000000e+00 
4.0000000e+00 0.0000000e+00 1.2000000e+01 
4.0000000e+00 0.0000000e+00 1.5000000e+01 
4.0000000e+00 0.0000000e+00 1.8000000e+01 
4.5000000e+00 0.0000000e+00 3.0000000e+00 
4.5000000e+00 0.0000000e+00 6.0000000e+00 
4.5000000e+00 0.0000000e+00 9.0000000e+00 
4.5000000e+00 0.0000000e+00 1.2000000e+01 
4.5000000e+00 0.0000000e+00 1.5000000e+01 
4.5000000e+00 0.0000000e+00 1.8000000e+01 
5.0000000e+00 0.0000000e+00 3.0000000e+00 
5.0000000e+00 0.0000000e+00 6.0000000e+00 
5.0000000e+00 0.0000000e+00 9.0000000e+00 
5.0000000e+00 0.0000000e+00 1.2000000e+01 
5.0000000e+00 0.0000000e+00 1.5000000e+01 
5.0000000e+00 0.0000000e+00 1.8000000e+01 
5.5000000e+00 0.0000000e+00 3.0000000e+00 
5.5000000e+00 0.0000000e+00 6.0000000e+00 
5.5000000e+00 0.0000000e+00 9.0000000e+00 
5.5000000e+00 0.0000000e+00 1.2000000e+01 
5.5000000e+00 0.0000000e+00 1.5000000e+01 
5.5000000e+00 0.0000000e+00 1.8000000e+01 
6.0000000e+00 0.0000000e+00 0.0000000e+00 
6.0000000e+00 0.0000000e+00 2.5000000e-01 
6.0000000e+00 0.0000000e+00 5.0000000e-01 
6.0000000e+00 0.0000000e+00 7.5000000e-01 
6.0000000e+00 0.0000000e+00 1.0000000e+00 
6.0000000e+00 0.0000000e+00 1.2500000e+00 
6.0000000e+00 0.0000000e+00 1.5000000e+00 
6.0000000e+00 0.0000000e+00 1.7500000e+00 
6.0000000e+00 0.0000000e+00 2.0000000e+00 
6.0000000e+00 0.0000000e+00 2.2500000e+00 
6.0000000e+00 0.0000000e+00 2.5000000e+00 
6.0000000e+00 0.0000000e+00 2.7500000e+00 
6.0000000e+00 0.0000000e+00 3.0000000e+00 
6.0000000e+00 0.0000000e+00 3.2500000e+00 
6.0000000e+00 0.0000000e+00 3.5000000e+00 
6.0000000e+00 0.0000000e+00 3.7500000e+00 
6.0000000e+00 0.0000000e+00 4.0000000e+00 
6.0000000e+00 0.0000000e+00 4.2500000e+00 
6.0000000e+00 0.0000000e+00 4.5000000e+00 
6.0000000e+00 0.0000000e+00 4.7500000e+00 
6.0000000e+00 0.0000000e+00 5.0000000e+00 
6.0000000e+00 0.0000000e+00 5.2500000e+00 
6.0000000e+00 0.0000000e+00 5.5000000e+00 
6.0000000e+00 0.0000000e+00 5.7500000e+00 
6.0000000e+00 0.0000000e+00 6.0000000e+00 
6.0000000e+00 0.0000000e+00 6.2500000e+00 
6.0000000e+00 0.0000000e+00 6.5000000e+00 
6.0000000e+00 0.0000000e+00 6.7500000e+00 
6.0000000e+00 0.0000000e+00 7.0000000e+00 
6.0000000e+00 0.0000000e+00 7.2500000e+00 
6.0000000e+00 0.0000000e+00 7.5000000e+00 
6.0000000e+00 0.0000000e+00 7.7500000e+00 
6.0000000e+00 0.0000000e+00 8.0000000e+00 
6.0000000e+00 0.0000000e+00 8.2500000e+00 
6.0000000e+00 0.0000000e+00 8.5000000e+00 
6.0000000e+00 0.0000000e+00 8.7500000e+00 
6.0000000e+00 0.0000000e+00 9.0000000e+00 
6.0000000e+00 0.0000000e+00 9.2500000e+00 
6.0000000e+00 0.0000000e+00 9.5000000e+00 
6.0000000e+00 0.0000000e+00 9.7500000e+00 
6.0000000e+00 0.0000000e+00 1.0000000e+01 
6.0000000e+00 0.0000000e+00 1.0250000e+01 
6.0000000e+00 0.0000000e+00 1.0500000e+01 
6.0000000e+00 0.0000000e+00 1.0750000e+01 
6.0000000e+00 0.0000000e+00 1.1000000e+01 
6.0000000e+00 0.0000000e+00 1.1250000e+01 
6.0000000e+00 0.0000000e+00 1.1500000e+01 
6.0000000e+00 0.0000000e+00 1.1750000e+01 
6.0000000e+00 0.0000000e+00 1.2000000e+01 
6.0000000e+00 0.0000000e+00 1.2250000e+01 
6.0000000e+00 0.0000000e+00 1.2500000e+01 
6.0000000e+00 0.0000000e+00 1.2750000e+01 
6.0000000e+00 0.0000000e+00 1.3000000e+01 
6.0000000e+00 0.0000000e+00 1.3250000e+01 
6.0000000e+00 0.0000000e+00 1.3500000e+01 
6.0000000e+00 0.0000000e+00 1.3750000e+01 
6.0000000e+00 0.0000000e+00 1.4000000e+01 
6.0000000e+00 0.0000000e+00 1.4250000e+01 
6.0000000e+00 0.0000000e+00 1.4500000e+01 
6.0000000e+00 0.0000000e+00 1.4750000e+01 
6.0000000e+00 0.0000000e+00 1.5000000e+01 
6.0000000e+00 0.0000000e+00 1.5250000e+01 
6.0000000e+00 0.0000000e+00 1.5500000e+01 
6.0000000e+00 0.0000000e+00 1.5750000e+01 
6.0000000e+00 0.0000000e+00 1.6000000e+01 
6.0000000e+00 0.0000000e+00 1.6250000e+01 
6.0000000e+00 0.0000000e+00 1.6500000e+01 
6.0000000e+00 0.0000000e+00 1.6750000e+01 
6.0000000e+00 0.0000000e+00 1.7000000e+01 
6.0000000e+00 0.0000000e+00 1.7250000e+01 
6.0000000e+00 0.0000000e+00 1.7500000e+01 
6.0000000e+00 0.0000000e+00 1.7750000e+01 
6.0000000e+00 0.0000000e+00 1.8000000e+01 

CELLS 216 648
2 0 1
2 1 2
2 2 3
2 3 4
2 4 5
2 5 6
2 6 7
2 7 8
2 8 9
2 9 10
2 10 11
2 11 12
2 12 13
2 13 14
2 14 15
2 15 16
2 16 17
2 17 18
2 18 19
2 19 20
2 20 21
2 21 22
2 22 23
2 23 24
2 24 25
2 25 26
2 26 27
2 27 28
2 28 29
2 29 30
2 30 31
2 31 32
2 32 33
2 33 34
2 34 35
2 35 36
2 36 37
2 37 38
2 38 39
2 39 40
2 40 41
2 41 42
2 42 43
2 43 44
2 44 45
2 45 46
2 46 47
2 47 48
2 48 49
2 49 50
2 50 51
2 51 52
2 52 53
2 53 54
2 54 55
2 55 56
2 56 57
2 57 58
2 58 59
2 59 60
2 60 61
2 61 62
2 62 63
2 63 64
2 64 65
2 65 66
2 66 67
2 67 68
2 68 69
2 69 70
2 70 71
2 71 72
2 139 140
2 140 141
2 141 142
2 142 143
2 143 144
2 144 145
2 145 146
2 146 147
2 147 148
2 148 149
2 149 150
2 150 151
2 151 152
2 152 153
2 153 154
2 154 155
2 155 156
2 156 157
2 157 158
2 158 159
2 159 160
2 160 161
2 161 162
2 162 163
2 163 164
2 164 165
2 165 166
2 166 167
2 167 168
2 168 169
2 169 170
2 170 171
2 171 172
2 172 173
2 173 174
2 174 175
2 175 176
2 176 177
2 177 178
2 178 179
2 179 180
2 180 181
2 181 182
2 182 183
2 183 184
2 184 185
2 185 186
2 186 187
2 187 188
2 188 189
2 189 190
2 190 191
2 191 192
2 192 193
2 193 194
2 194 195
2 195 196
2 196 197
2 197 198
2 198 199
2 199 200
2 200 201
2 201 202
2 202 203
2 203 204
2 204 205
2 205 206
2 206 207
2 207 208
2 208 209
2 209 210
2 210 211
2 12 73
2 73 79
2 79 85
2 85 91
2 91 97
2 97 103
2 103 109
2 109 115
2 115 121
2 121 127
2 127 133
2 133 151
2 24 74
2 74 80
2 80 86
2 86 92
2 92 98
2 98 104
2 104 110
2 110 116
2 116 122
2 122 128
2 128 134
2 134 163
2 36 75
2 75 81
2 81 87
2 87 93
2 93 99
2 99 105
2 105 111
2 111 117
2 117 123
2 123 129
2 129 135
2 135 175
2 48 76
2 76 82
2 82 88
2 88 94
2 94 100
2 100 106
2 106 112
2 112 118
2 118 124
2 124 130
2 130 136
2 136 187
2 60 77
2 77 83
2 83 89
2 89 95
2 95 101
2 101 107
2 107 113
2 113 119
2 119 125
2 125 131
2 131 137
2 137 199
2 72 78
2 78 84
2 84 90
2 90 96
2 96 102
2 102 108
2 108 114
2 114 120
2 120 126
2 126 132
2 132 138
2 138 211

CELL_TYPES 216
3
3
3
3
3
3
3
3
3
3
3
3
3
3
3
3
3
3
3
3
3
3
3
3
3
3
3
3
3
3
3
3
3
3
3
3
3
3
3
3
3
3
3
3
3
3
3
3
3
3
3
3
3
3
3
3
3
3
3
3
3
3
3
3
3
3
3
3
3
3
3
3
3
3
3
3
3
3
3
3
3
3
3
3
3
3
3
3
3
3
3
3
3
3
3
3
3
3
3
3
3
3
3
3
3
3
3
3
3
3
3
3
3
3
3
3
3
3
3
3
3
3
3
3
3
3
3
3
3
3
3
3
3
3
3
3
3
3
3
3
3
3
3
3
3
3
3
3
3
3
3
3
3
3
3
3
3
3
3
3
3
3
3
3
3
3
3
3
3
3
3
3
3
3
3
3
3
3
3
3
3
3
3
3
3
3
3
3
3
3
3
3
3
3
3
3
3
3
3
3
3
3
3
3
3
3
3
3
3
3
3
3
3
3
3
3
POINT_DATA 212
FIELD FieldData 8
DISPLACEMENT 3 212  float
0.0000000e+00 0.0000000e+00 0.0000000e+00 
-2.2133125e-05 0.0000000e+00 -1.3273705e-05 
-4.3349050e-05 0.0000000e+00 -2.6455526e-05 
-6.2730585e-05 0.0000000e+00 -3.9545463e-05 
-7.9360521e-05 0.0000000e+00 -5.2543517e-05 
-9.2321672e-05 0.0000000e+00 -6.5449691e-05 
-1.0069683e-04 0.0000000e+00 -7.8263976e-05 
-1.0356881e-04 0.0000000e+00 -9.0986381e-05 
-1.0002040e-04 0.0000000e+00 -1.0361690e-04 
-8.9134417e-05 0.0000000e+00 -1.1615554e-04 
-6.9993650e-05 0.0000000e+00 -1.2860229e-04 
-4.1680913e-05 0.0000000e+00 -1.4095716e-04 
-3.2790003e-06 0.0000000e+00 -1.5322014e-04 
3.1381314e-05 0.0000000e+00 -1.6427391e-04 
4.9848328e-05 0.0000000e+00 -1.7523579e-04 
5.5107830e-05 0.0000000e+00 -1.8610578e-04 
5.0145623e-05 0.0000000e+00 -1.9688391e-04 
3.7947491e-05 0.0000000e+00 -2.0757013e-04 
2.1499236e-05 0.0000000e+00 -2.1816448e-04 
3.7866487e-06 0.0000000e+00 -2.2866695e-04 
-1.2204476e-05 0.0000000e+00 -2.3907752e-04 
-2.3488345e-05 0.0000000e+00 -2.4939622e-04 
-2.7079161e-05 0.0000000e+00 -2.5962302e-04 
-1.9991134e-05 0.0000000e+00 -2.6975796e-04 
7.6153350e-07 0.0000000e+00 -2.7980100e-04 
2.2359663e-05 0.0000000e+00 -2.8863482e-04 
3.1663800e-05 0.0000000e+00 -2.9737677e-04 
3.1179316e-05 0.0000000e+00 -3.0602684e-04 
2.3411581e-05 0.0000000e+00 -3.1458499e-04 
1.0865968e-05 0.0000000e+00 -3.2305130e-04 
-3.9521524e-06 0.0000000e+00 -3.3142569e-04 
-1.8537408e-05 0.0000000e+00 -3.3970820e-04 
-3.0384428e-05 0.0000000e+00 -3.4789884e-04 
-3.6987840e-05 0.0000000e+00 -3.5599759e-04 
-3.5842269e-05 0.0000000e+00 -3.6400446e-04 
-2.4442352e-05 0.0000000e+00 -3.7191945e-04 
-2.8270881e-07 0.0000000e+00 -3.7974256e-04 
2.3563287e-05 0.0000000e+00 -3.8635643e-04 
3.4141165e-05 0.0000000e+00 -3.9287846e-04 
3.4134646e-05 0.0000000e+00 -3.9930857e-04 
2.6227455e-05 0.0000000e+00 -4.0564680e-04 
1.3103312e-05 0.0000000e+00 -4.1189315e-04 
-2.5540608e-06 0.0000000e+00 -4.1804760e-04 
-1.8060942e-05 0.0000000e+00 -4.2411019e-04 
-3.0733609e-05 0.0000000e+00 -4.3008089e-04 
-3.7888338e-05 0.0000000e+00 -4.3595969e-04 
-3.6841411e-05 0.0000000e+00 -4.4174664e-04 
-2.4909106e-05 0.0000000e+00 -4.4744168e-04 
5.9230183e-07 0.0000000e+00 -4.5304484e-04 
2.6751035e-05 0.0000000e+00 -4.5743879e-04 
4.0406212e-05 0.0000000e+00 -4.6174083e-04 
4.3867891e-05 0.0000000e+00 -4.6595102e-04 
3.9446139e-05 0.0000000e+00 -4.7006930e-04 
2.9451010e-05 0.0000000e+00 -4.7409569e-04 
1.6192569e-05 0.0000000e+00 -4.7803024e-04 
1.9808770e-06 0.0000000e+00 -4.8187288e-04 
-1.0874005e-05 0.0000000e+00 -4.8562363e-04 
-2.0062016e-05 0.0000000e+00 -4.8928248e-04 
-2.3273096e-05 0.0000000e+00 -4.9284950e-04 
-1.8197183e-05 0.0000000e+00 -4.9632462e-04 
-2.5242136e-06 0.0000000e+00 -4.9970782e-04 
1.0311429e-05 0.0000000e+00 -5.0188182e-04 
7.9369856e-06 0.0000000e+00 -5.0396391e-04 
-5.7450525e-06 0.0000000e+00 -5.0595414e-04 
-2.6832193e-05 0.0000000e+00 -5.0785253e-04 
-5.1421946e-05 0.0000000e+00 -5.0965900e-04 
-7.5611817e-05 0.0000000e+00 -5.1137357e-04 
-9.5499316e-05 0.0000000e+00 -5.1299628e-04 
-1.0718196e-04 0.0000000e+00 -5.1452708e-04 
-1.0675724e-04 0.0000000e+00 -5.1596598e-04 
-9.0322668e-05 0.0000000e+00 -5.1731308e-04 
-5.3975768e-05 0.0000000e+00 -5.1856821e-04 
6.1859673e-06 0.0000000e+00 -5.1973149e-04 
-2.7325002e-06 0.0000000e+00 -2.9029348e-04 
6.3461124e-07 0.0000000e+00 -3.8905905e-04 
-2.3559068e-07 0.0000000e+00 -4.9412361e-04 
4.9358488e-07 0.0000000e+00 -5.7073671e-04 
-2.1035114e-06 0.0000000e+00 -5.9642817e-04 
5.1549728e-06 0.0000000e+00 -7.1110402e-04 
-2.1860003e-06 0.0000000e+00 -4.8703083e-04 
5.0768898e-07 0.0000000e+00 -5.6303845e-04 
-1.8847254e-07 0.0000000e+00 -6.7229458e-04 
3.9486790e-07 0.0000000e+00 -7.5161655e-04 
-1.6828091e-06 0.0000000e+00 -7.6014944e-04 
4.1239782e-06 0.0000000e+00 -9.5226802e-04 
-1.6395002e-06 0.0000000e+00 -6.9268036e-04 
3.8076675e-07 0.0000000e+00 -7.5098732e-04 
-1.4135441e-07 0.0000000e+00 -8.6350355e-04 
2.9615092e-07 0.0000000e+00 -9.4493240e-04 
-1.2621068e-06 0.0000000e+00 -9.4011979e-04 
3.0929837e-06 0.0000000e+00 -1.1924716e-03 
-1.0930002e-06 0.0000000e+00 -8.6776837e-04 
2.5384449e-07 0.0000000e+00 -9.1343198e-04 
-9.4236270e-08 0.0000000e+00 -1.0282769e-03 
1.9743395e-07 0.0000000e+00 -1.1112107e-03 
-8.4140453e-07 0.0000000e+00 -1.0968655e-03 
2.0619891e-06 0.0000000e+00 -1.3922411e-03 
-5.4650008e-07 0.0000000e+00 -9.8409934e-04 
1.2692225e-07 0.0000000e+00 -1.0221770e-03 
-4.7118135e-08 0.0000000e+00 -1.1384191e-03 
9.8716974e-08 0.0000000e+00 -1.2222559e-03 
-4.2070226e-07 0.0000000e+00 -1.2021912e-03 
1.0309946e-06 0.0000000e+00 -1.5233809e-03 
1.9166454e-16 0.0000000e+00 -1.0247561e-03 
2.2816415e-16 0.0000000e+00 -1.0603050e-03 
2.4847489e-16 0.0000000e+00 -1.1770129e-03 
2.9524440e-16 0.0000000e+00 -1.2611506e-03 
3.4033580e-16 0.0000000e+00 -1.2391794e-03 
3.6770174e-16 0.0000000e+00 -1.5689739e-03 
5.4650008e-07 0.0000000e+00 -9.8409934e-04 
-1.2692225e-07 0.0000000e+00 -1.0221770e-03 
4.7118135e-08 0.0000000e+00 -1.1384191e-03 
-9.8716974e-08 0.0000000e+00 -1.2222559e-03 
4.2070226e-07 0.0000000e+00 -1.2021912e-03 
-1.0309946e-06 0.0000000e+00 -1.5233809e-03 
1.0930002e-06 0.0000000e+00 -8.6776837e-04 
-2.5384449e-07 0.0000000e+00 -9.1343198e-04 
9.4236270e-08 0.0000000e+00 -1.0282769e-03 
-1.9743395e-07 0.0000000e+00 -1.1112107e-03 
8.4140453e-07 0.0000000e+00 -1.0968655e-03 
-2.0619891e-06 0.0000000e+00 -1.3922411e-03 
1.6395002e-06 0.0000000e+00 -6.9268036e-04 
-3.8076675e-07 0.0000000e+00 -7.5098732e-04 
1.4135441e-07 0.0000000e+00 -8.6350355e-04 
-2.9615092e-07 0.0000000e+00 -9.4493240e-04 
1.2621068e-06 0.0000000e+00 -9.4011979e-04 
-3.0929837e-06 0.0000000e+00 -1.1924716e-03 
2.1860003e-06 0.0000000e+00 -4.8703083e-04 
-5.0768898e-07 0.0000000e+00 -5.6303845e-04 
1.8847254e-07 0.0000000e+00 -6.7229458e-04 
-3.9486790e-07 0.0000000e+00 -7.5161655e-04 
1.6828091e-06 0.0000000e+00 -7.6014944e-04 
-4.1239782e-06 0.0000000e+00 -9.5226802e-04 
2.7325002e-06 0.0000000e+00 -2.9029348e-04 
-6.3461124e-07 0.0000000e+00 -3.8905905e-04 
2.3559068e-07 0.0000000e+00 -4.9412361e-04 
-4.9358488e-07 0.0000000e+00 -5.7073671e-04 
2.1035114e-06 0.0000000e+00 -5.9642817e-04 
-5.1549728e-06 0.0000000e+00 -7.1110402e-04 
0.0000000e+00 0.0000000e+00 0.0000000e+00 
2.2133125e-05 0.0000000e+00 -1.3273705e-05 
4.3349050e-05 0.0000000e+00 -2.6455526e-05 
6.2730585e-05 0.0000000e+00 -3.9545463e-05 
7.9360521e-05 0.0000000e+00 -5.2543517e-05 
9.2321672e-05 0.0000000e+00 -6.5449691e-05 
1.0069683e-04 0.0000000e+00 -7.8263976e-05 
1.0356881e-04 0.0000000e+00 -9.0986381e-05 
1.0002040e-04 0.0000000e+00 -1.0361690e-04 
8.9134417e-05 0.0000000e+00 -1.1615554e-04 
6.9993650e-05 0.0000000e+00 -1.2860229e-04 
4.1680913e-05 0.0000000e+00 -1.4095716e-04 
3.2790003e-06 0.0000000e+00 -1.5322014e-04 
-3.1381314e-05 0.0000000e+00 -1.6427391e-04 
-4.9848328e-05 0.0000000e+00 -1.7523579e-04 
-5.5107830e-05 0.0000000e+00 -1.8610578e-04 
-5.0145623e-05 0.0000000e+00 -1.9688391e-04 
-3.7947491e-05 0.0000000e+00 -2.0757013e-04 
-2.1499236e-05 0.0000000e+00 -2.1816448e-04 
-3.7866487e-06 0.0000000e+00 -2.2866695e-04 
1.2204476e-05 0.0000000e+00 -2.3907752e-04 
2.3488345e-05 0.0000000e+00 -2.4939622e-04 
2.7079161e-05 0.0000000e+00 -2.5962302e-04 
1.9991134e-05 0.0000000e+00 -2.6975796e-04 
-7.6153350e-07 0.0000000e+00 -2.7980100e-04 
-2.2359663e-05 0.0000000e+00 -2.8863482e-04 
-3.1663800e-05 0.0000000e+00 -2.9737677e-04 
-3.1179316e-05 0.0000000e+00 -3.0602684e-04 
-2.3411581e-05 0.0000000e+00 -3.1458499e-04 
-1.0865968e-05 0.0000000e+00 -3.2305130e-04 
3.9521524e-06 0.0000000e+00 -3.3142569e-04 
1.8537408e-05 0.0000000e+00 -3.3970820e-04 
3.0384428e-05 0.0000000e+00 -3.4789884e-04 
3.6987840e-05 0.0000000e+00 -3.5599759e-04 
3.5842269e-05 0.0000000e+00 -3.6400446e-04 
2.4442352e-05 0.0000000e+00 -3.7191945e-04 
2.8270881e-07 0.0000000e+00 -3.7974256e-04 
-2.3563287e-05 0.0000000e+00 -3.8635643e-04 
-3.4141165e-05 0.0000000e+00 -3.9287846e-04 
-3.4134646e-05 0.0000000e+00 -3.9930857e-04 
-2.6227455e-05 0.0000000e+00 -4.0564680e-04 
-1.3103312e-05 0.0000000e+00 -4.1189315e-04 
2.5540608e-06 0.0000000e+00 -4.1804760e-04 
1.8060942e-05 0.0000000e+00 -4.2411019e-04 
3.0733609e-05 0.0000000e+00 -4.3008089e-04 
3.7888338e-05 0.0000000e+00 -4.3595969e-04 
3.6841411e-05 0.0000000e+00 -4.4174664e-04 
2.4909106e-05 0.0000000e+00 -4.4744168e-04 
-5.9230183e-07 0.0000000e+00 -4.5304484e-04 
-2.6751035e-05 0.0000000e+00 -4.5743879e-04 
-4.0406212e-05 0.0000000e+00 -4.6174083e-04 
-4.3867891e-05 0.0000000e+00 -4.6595102e-04 
-3.9446139e-05 0.0000000e+00 -4.7006930e-04 
-2.9451010e-05 0.0000000e+00 -4.7409569e-04 
-1.6192569e-05 0.0000000e+00 -4.7803024e-04 
-1.9808770e-06 0.0000000e+00 -4.8187288e-04 
1.0874005e-05 0.0000000e+00 -4.8562363e-04 
2.0062016e-05 0.0000000e+00 -4.8928248e-04 
2.3273096e-05 0.0000000e+00 -4.9284950e-04 
1.8197183e-05 0.0000000e+00 -4.9632462e-04 
2.5242136e-06 0.0000000e+00 -4.9970782e-04 
-1.0311429e-05 0.0000000e+00 -5.0188182e-04 
-7.9369856e-06 0.0000000e+00 -5.0396391e-04 
5.7450525e-06 0.0000000e+00 -5.0595414e-04 
2.6832193e-05 0.0000000e+00 -5.0785253e-04 
5.1421946e-05 0.0000000e+00 -5.0965900e-04 
7.5611817e-05 0.0000000e+00 -5.1137357e-04 
9.5499316e-05 0.0000000e+00 -5.1299628e-04 
1.0718196e-04 0.0000000e+00 -5.1452708e-04 
1.0675724e-04 0.0000000e+00 -5.1596598e-04 
9.0322668e-05 0.0000000e+00 -5.1731308e-04 
5.3975768e-05 0.0000000e+00 -5.1856821e-04 
-6.1859673e-06 0.0000000e+00 -5.1973149e-04 
ROTATION 3 212  float
0.0000000e+00 -8.9143963e-05 0.0000000e+00 
0.0000000e+00 -8.7309571e-05 0.0000000e+00 
0.0000000e+00 -8.1806385e-05 0.0000000e+00 
0.0000000e+00 -7.2634408e-05 0.0000000e+00 
0.0000000e+00 -5.9793641e-05 0.0000000e+00 
0.0000000e+00 -4.3284086e-05 0.0000000e+00 
0.0000000e+00 -2.3105740e-05 0.0000000e+00 
0.0000000e+00 7.4139496e-07 0.0000000e+00 
0.0000000e+00 2.8257320e-05 0.0000000e+00 
0.0000000e+00 5.9442038e-05 0.0000000e+00 
0.0000000e+00 9.4295545e-05 0.0000000e+00 
0.0000000e+00 1.3281783e-04 0.0000000e+00 
0.0000000e+00 1.7500893e-04 0.0000000e+00 
0.0000000e+00 1.0426412e-04 0.0000000e+00 
0.0000000e+00 4.5462504e-05 0.0000000e+00 
0.0000000e+00 -1.3959408e-06 0.0000000e+00 
0.0000000e+00 -3.6311209e-05 0.0000000e+00 
0.0000000e+00 -5.9283302e-05 0.0000000e+00 
0.0000000e+00 -7.0312213e-05 0.0000000e+00 
0.0000000e+00 -6.9397953e-05 0.0000000e+00 
0.0000000e+00 -5.6540517e-05 0.0000000e+00 
0.0000000e+00 -3.1739899e-05 0.0000000e+00 
0.0000000e+00 5.0038916e-06 0.0000000e+00 
0.0000000e+00 5.3690859e-05 0.0000000e+00 
0.0000000e+00 1.1432100e-04 0.0000000e+00 
0.0000000e+00 6.0134287e-05 0.0000000e+00 
0.0000000e+00 1.5969057e-05 0.0000000e+00 
0.0000000e+00 -1.8174687e-05 0.0000000e+00 
0.0000000e+00 -4.2296946e-05 0.0000000e+00 
0.0000000e+00 -5.6397716e-05 0.0000000e+00 
0.0000000e+00 -6.0476999e-05 0.0000000e+00 
0.0000000e+00 -5.4534798e-05 0.0000000e+00 
0.0000000e+00 -3.8571110e-05 0.0000000e+00 
0.0000000e+00 -1.2585934e-05 0.0000000e+00 
0.0000000e+00 2.3420727e-05 0.0000000e+00 
0.0000000e+00 6.9448877e-05 0.0000000e+00 
0.0000000e+00 1.2549851e-04 0.0000000e+00 
0.0000000e+00 6.7058601e-05 0.0000000e+00 
0.0000000e+00 1.9353572e-05 0.0000000e+00 
0.0000000e+00 -1.7616567e-05 0.0000000e+00 
0.0000000e+00 -4.3851818e-05 0.0000000e+00 
0.0000000e+00 -5.9352180e-05 0.0000000e+00 
0.0000000e+00 -6.4117652e-05 0.0000000e+00 
0.0000000e+00 -5.8148242e-05 0.0000000e+00 
0.0000000e+00 -4.1443942e-05 0.0000000e+00 
0.0000000e+00 -1.4004756e-05 0.0000000e+00 
0.0000000e+00 2.4169318e-05 0.0000000e+00 
0.0000000e+00 7.3078278e-05 0.0000000e+00 
0.0000000e+00 1.3272213e-04 0.0000000e+00 
0.0000000e+00 7.8087782e-05 0.0000000e+00 
0.0000000e+00 3.2693672e-05 0.0000000e+00 
0.0000000e+00 -3.4601890e-06 0.0000000e+00 
0.0000000e+00 -3.0373807e-05 0.0000000e+00 
0.0000000e+00 -4.8047179e-05 0.0000000e+00 
0.0000000e+00 -5.6480305e-05 0.0000000e+00 
0.0000000e+00 -5.5673190e-05 0.0000000e+00 
0.0000000e+00 -4.5625828e-05 0.0000000e+00 
0.0000000e+00 -2.6338223e-05 0.0000000e+00 
0.0000000e+00 2.1896287e-06 0.0000000e+00 
0.0000000e+00 3.9957726e-05 0.0000000e+00 
0.0000000e+00 8.6966065e-05 0.0000000e+00 
0.0000000e+00 1.8320738e-05 0.0000000e+00 
0.0000000e+00 -3.4714623e-05 0.0000000e+00 
0.0000000e+00 -7.2140021e-05 0.0000000e+00 
0.0000000e+00 -9.3955445e-05 0.0000000e+00 
0.0000000e+00 -1.0016091e-04 0.0000000e+00 
0.0000000e+00 -9.0756403e-05 0.0000000e+00 
0.0000000e+00 -6.5741937e-05 0.0000000e+00 
0.0000000e+00 -2.5117497e-05 0.0000000e+00 
0.0000000e+00 3.1116906e-05 0.0000000e+00 
0.0000000e+00 1.0296128e-04 0.0000000e+00 
0.0000000e+00 1.9041561e-04 0.0000000e+00 
0.0000000e+00 2.9347991e-04 0.0000000e+00 
0.0000000e+00 3.5260769e-04 0.0000000e+00 
0.0000000e+00 3.0203443e-04 0.0000000e+00 
0.0000000e+00 3.1134899e-04 0.0000000e+00 
0.0000000e+00 3.1736869e-04 0.0000000e+00 
0.0000000e+00 2.7923862e-04 0.0000000e+00 
0.0000000e+00 4.5133350e-04 0.0000000e+00 
0.0000000e+00 4.1742448e-04 0.0000000e+00 
0.0000000e+00 3.7696588e-04 0.0000000e+00 
0.0000000e+00 3.8441754e-04 0.0000000e+00 
0.0000000e+00 3.8923329e-04 0.0000000e+00 
0.0000000e+00 3.5872924e-04 0.0000000e+00 
0.0000000e+00 4.9640518e-04 0.0000000e+00 
0.0000000e+00 3.9201573e-04 0.0000000e+00 
0.0000000e+00 3.6167179e-04 0.0000000e+00 
0.0000000e+00 3.6726054e-04 0.0000000e+00 
0.0000000e+00 3.7087232e-04 0.0000000e+00 
0.0000000e+00 3.4799430e-04 0.0000000e+00 
0.0000000e+00 4.5125122e-04 0.0000000e+00 
0.0000000e+00 2.9893781e-04 0.0000000e+00 
0.0000000e+00 2.7870850e-04 0.0000000e+00 
0.0000000e+00 2.8243434e-04 0.0000000e+00 
0.0000000e+00 2.8484222e-04 0.0000000e+00 
0.0000000e+00 2.6959018e-04 0.0000000e+00 
0.0000000e+00 3.3842813e-04 0.0000000e+00 
0.0000000e+00 1.6074709e-04 0.0000000e+00 
0.0000000e+00 1.5063245e-04 0.0000000e+00 
0.0000000e+00 1.5249537e-04 0.0000000e+00 
0.0000000e+00 1.5369929e-04 0.0000000e+00 
0.0000000e+00 1.4607329e-04 0.0000000e+00 
0.0000000e+00 1.8049226e-04 0.0000000e+00 
0.0000000e+00 -1.0989594e-17 0.0000000e+00 
0.0000000e+00 0.0000000e+00 0.0000000e+00 
0.0000000e+00 -1.6484391e-18 0.0000000e+00 
0.0000000e+00 -5.4947970e-18 0.0000000e+00 
0.0000000e+00 -2.1979188e-18 0.0000000e+00 
0.0000000e+00 -1.2283010e-17 0.0000000e+00 
0.0000000e+00 -1.6074709e-04 0.0000000e+00 
0.0000000e+00 -1.5063245e-04 0.0000000e+00 
0.0000000e+00 -1.5249537e-04 0.0000000e+00 
0.0000000e+00 -1.5369929e-04 0.0000000e+00 
0.0000000e+00 -1.4607329e-04 0.0000000e+00 
0.0000000e+00 -1.8049226e-04 0.0000000e+00 
0.0000000e+00 -2.9893781e-04 0.0000000e+00 
0.0000000e+00 -2.7870850e-04 0.0000000e+00 
0.0000000e+00 -2.8243434e-04 0.0000000e+00 
0.0000000e+00 -2.8484222e-04 0.0000000e+00 
0.0000000e+00 -2.6959018e-04 0.0000000e+00 
0.0000000e+00 -3.3842813e-04 0.0000000e+00 
0.0000000e+00 -3.9201573e-04 0.0000000e+00 
0.0000000e+00 -3.6167179e-04 0.0000000e+00 
0.0000000e+00 -3.6726054e-04 0.0000000e+00 
0.0000000e+00 -3.7087232e-04 0.0000000e+00 
0.0000000e+00 -3.4799430e-04 0.0000000e+00 
0.0000000e+00 -4.5125122e-04 0.0000000e+00 
0.0000000e+00 -4.1742448e-04 0.0000000e+00 
0.0000000e+00 -3.7696588e-04 0.0000000e+00 
0.0000000e+00 -3.8441754e-04 0.0000000e+00 
0.0000000e+00 -3.8923329e-04 0.0000000e+00 
0.0000000e+00 -3.5872924e-04 0.0000000e+00 
0.0000000e+00 -4.9640518e-04 0.0000000e+00 
0.0000000e+00 -3.5260769e-04 0.0000000e+00 
0.0000000e+00 -3.0203443e-04 0.0000000e+00 
0.0000000e+00 -3.1134899e-04 0.0000000e+00 
0.0000000e+00 -3.1736869e-04 0.0000000e+00 
0.0000000e+00 -2.7923862e-04 0.0000000e+00 
0.0000000e+00 -4.5133350e-04 0.0000000e+00 
0.0000000e+00 8.9143963e-05 0.0000000e+00 
0.0000000e+00 8.7309571e-05 0.0000000e+00 
0.0000000e+00 8.1806385e-05 0.0000000e+00 
0.0000000e+00 7.2634408e-05 0.0000000e+00 
0.0000000e+00 5.9793641e-05 0.0000000e+00 
0.0000000e+00 4.3284086e-05 0.0000000e+00 
0.0000000e+00 2.3105740e-05 0.0000000e+00 
0.0000000e+00 -7.4139496e-07 0.0000000e+00 
0.0000000e+00 -2.8257320e-05 0.0000000e+00 
0.0000000e+00 -5.9442038e-05 0.0000000e+00 
0.0000000e+00 -9.4295545e-05 0.0000000e+00 
0.0000000e+00 -1.3281783e-04 0.0000000e+00 
0.0000000e+00 -1.7500893e-04 0.0000000e+00 
0.0000000e+00 -1.0426412e-04 0.0000000e+00 
0.0000000e+00 -4.5462504e-05 0.0000000e+00 
0.0000000e+00 1.3959408e-06 0.0000000e+00 
0.0000000e+00 3.6311209e-05 0.0000000e+00 
0.0000000e+00 5.9283302e-05 0.0000000e+00 
0.0000000e+00 7.0312213e-05 0.0000000e+00 
0.0000000e+00 6.9397953e-05 0.0000000e+00 
0.0000000e+00 5.6540517e-05 0.0000000e+00 
0.0000000e+00 3.1739899e-05 0.0000000e+00 
0.0000000e+00 -5.0038916e-06 0.0000000e+00 
0.0000000e+00 -5.3690859e-05 0.0000000e+00 
0.0000000e+00 -1.1432100e-04 0.0000000e+00 
0.0000000e+00 -6.0134287e-05 0.0000000e+00 
0.0000000e+00 -1.5969057e-05 0.0000000e+00 
0.0000000e+00 1.8174687e-05 0.0000000e+00 
0.0000000e+00 4.2296946e-05 0.0000000e+00 
0.0000000e+00 5.6397716e-05 0.0000000e+00 
0.0000000e+00 6.0476999e-05 0.0000000e+00 
0.0000000e+00 5.4534798e-05 0.0000000e+00 
0.0000000e+00 3.8571110e-05 0.0000000e+00 
0.0000000e+00 1.2585934e-05 0.0000000e+00 
0.0000000e+00 -2.3420727e-05 0.0000000e+00 
0.0000000e+00 -6.9448877e-05 0.0000000e+00 
0.0000000e+00 -1.2549851e-04 0.0000000e+00 
0.0000000e+00 -6.7058601e-05 0.0000000e+00 
0.0000000e+00 -1.9353572e-05 0.0000000e+00 
0.0000000e+00 1.7616567e-05 0.0000000e+00 
0.0000000e+00 4.3851818e-05 0.0000000e+00 
0.0000000e+00 5.9352180e-05 0.0000000e+00 
0.0000000e+00 6.4117652e-05 0.0000000e+00 
0.0000000e+00 5.8148242e-05 0.0000000e+00 
0.0000000e+00 4.1443942e-05 0.0000000e+00 
0.0000000e+00 1.4004756e-05 0.0000000e+00 
0.0000000e+00 -2.4169318e-05 0.0000000e+00 
0.0000000e+00 -7.3078278e-05 0.0000000e+00 
0.0000000e+00 -1.3272213e-04 0.0000000e+00 
0.0000000e+00 -7.8087782e-05 0.0000000e+00 
0.0000000e+00 -3.2693672e-05 0.0000000e+00 
0.0000000e+00 3.4601890e-06 0.0000000e+00 
0.0000000e+00 3.0373807e-05 0.0000000e+00 
0.0000000e+00 4.8047179e-05 0.0000000e+00 
0.0000000e+00 5.6480305e-05 0.0000000e+00 
0.0000000e+00 5.5673190e-05 0.0000000e+00 
0.0000000e+00 4.5625828e-05 0.0000000e+00 
0.0000000e+00 2.6338223e-05 0.0000000e+00 
0.0000000e+00 -2.1896287e-06 0.0000000e+00 
0.0000000e+00 -3.9957726e-05 0.0000000e+00 
0.0000000e+00 -8.6966065e-05 0.0000000e+00 
0.0000000e+00 -1.8320738e-05 0.0000000e+00 
0.0000000e+00 3.4714623e-05 0.0000000e+00 
0.0000000e+00 7.2140021e-05 0.0000000e+00 
0.0000000e+00 9.3955445e-05 0.0000000e+00 