# vtk DataFile Version 4.0
vtk output
ASCII
DATASET UNSTRUCTURED_GRID
POINTS 30 float
0.0000000e+00 0.0000000e+00 0.0000000e+00 
0.0000000e+00 0.0000000e+00 8.0000001e-01 
0.0000000e+00 0.0000000e+00 1.6000000e+00 
0.0000000e+00 0.0000000e+00 2.4000001e+00 
0.0000000e+00 0.0000000e+00 3.2000000e+00 
0.0000000e+00 0.0000000e+00 4.0000000e+00 
0.0000000e+00 0.0000000e+00 4.8000002e+00 
0.0000000e+00 0.0000000e+00 5.5999999e+00 
0.0000000e+00 0.0000000e+00 6.4000001e+00 
0.0000000e+00 0.0000000e+00 7.1999998e+00 
0.0000000e+00 0.0000000e+00 8.0000000e+00 
1.0000000e+01 0.0000000e+00 0.0000000e+00 
1.0000000e+01 0.0000000e+00 8.0000001e-01 
1.0000000e+01 0.0000000e+00 1.6000000e+00 
1.0000000e+01 0.0000000e+00 2.4000001e+00 
1.0000000e+01 0.0000000e+00 3.2000000e+00 
1.0000000e+01 0.0000000e+00 4.0000000e+00 
1.0000000e+01 0.0000000e+00 4.8000002e+00 
1.0000000e+01 0.0000000e+00 5.5999999e+00 
1.0000000e+01 0.0000000e+00 6.4000001e+00 
1.0000000e+01 0.0000000e+00 7.1999998e+00 
1.0000000e+01 0.0000000e+00 8.0000000e+00 
2.0000000e+00 0.0000000e+00 4.0000000e+00 
4.0000000e+00 0.0000000e+00 4.0000000e+00 
6.0000000e+00 0.0000000e+00 4.0000000e+00 
8.0000000e+00 0.0000000e+00 4.0000000e+00 
2.0000000e+00 0.0000000e+00 8.0000000e+00 
4.0000000e+00 0.0000000e+00 8.0000000e+00 
6.0000000e+00 0.0000000e+00 8.0000000e+00 
8.0000000e+00 0.0000000e+00 8.0000000e+00 

CELLS 30 90
2 0 1
2 1 2
2 2 3
2 3 4
2 4 5
2 5 6
2 6 7
2 7 8
2 8 9
2 9 10
2 11 12
2 12 13
2 13 14
2 14 15
2 15 16
2 16 17
2 17 18
2 18 19
2 19 20
2 20 21
2 5 22
2 22 23
2 23 24
2 24 25
2 25 16
2 10 26
2 26 27
2 27 28
2 28 29
2 29 21

CELL_TYPES 30
3
3
3
3
3
3
3
3
3
3
3
3
3
3
3
3
3
3
3
3
3
3
3
3
3
3
3
3
3
3
POINT_DATA 30
FIELD FieldData 7
DISPLACEMENT 3 30  float
0.0000000e+00 0.0000000e+00 0.0000000e+00 
-1.3587348e-03 0.0000000e+00 1.1083752e-07 
-2.7269702e-03 0.0000000e+00 -3.8210979e-07 
-4.0798765e-03 0.0000000e+00 -3.3082101e-06 
-5.3408612e-03 0.0000000e+00 -2.5585089e-06 
-6.4361691e-03 0.0000000e+00 -1.8088078e-06 
-7.5350367e-03 0.0000000e+00 -2.2384422e-07 
-8.7566143e-03 0.0000000e+00 -1.7053989e-06 
-9.9400189e-03 0.0000000e+00 -6.4025376e-06 
-1.0969183e-02 0.0000000e+00 -1.2673836e-05 
-1.1710558e-02 0.0000000e+00 -1.7326734e-05 
0.0000000e+00 0.0000000e+00 0.0000000e+00 
-1.4936099e-03 0.0000000e+00 -1.1199393e-05 
-2.9383558e-03 0.0000000e+00 -2.3745391e-05 
-4.2465292e-03 0.0000000e+00 -3.4901099e-05 
-5.4034195e-03 0.0000000e+00 -4.6056808e-05 
-6.4163720e-03 0.0000000e+00 -5.7212517e-05 
-7.3842416e-03 0.0000000e+00 -6.3355779e-05 
-8.4143560e-03 0.0000000e+00 -6.7051493e-05 
-9.5051285e-03 0.0000000e+00 -7.0747206e-05 
-1.0629565e-02 0.0000000e+00 -7.4155621e-05 
-1.1680956e-02 0.0000000e+00 -7.5720411e-05 
-6.4325840e-03 0.0000000e+00 1.0055070e-03 
-6.4329333e-03 0.0000000e+00 -2.1658037e-04 
-6.4269640e-03 0.0000000e+00 -1.6294959e-03 
-6.4213900e-03 0.0000000e+00 -1.7196315e-03 
-1.1706535e-02 0.0000000e+00 4.9061934e-04 
-1.1700488e-02 0.0000000e+00 -1.1452445e-04 
-1.1697144e-02 0.0000000e+00 -1.3187295e-03 
-1.1689157e-02 0.0000000e+00 -1.6690034e-03 
ROTATION 3 30  float
0.0000000e+00 -1.6953043e-03 0.0000000e+00 
0.0000000e+00 -1.7046469e-03 0.0000000e+00 
0.0000000e+00 -1.7122464e-03 0.0000000e+00 
0.0000000e+00 -1.6506494e-03 0.0000000e+00 
0.0000000e+00 -1.4872474e-03 0.0000000e+00 
0.0000000e+00 -1.2364576e-03 0.0000000e+00 
0.0000000e+00 -1.4833994e-03 0.0000000e+00 
0.0000000e+00 -1.5316136e-03 0.0000000e+00 
0.0000000e+00 -1.4088278e-03 0.0000000e+00 
0.0000000e+00 -1.1302088e-03 0.0000000e+00 
0.0000000e+00 -7.0985907e-04 0.0000000e+00 
0.0000000e+00 -1.8740204e-03 0.0000000e+00 
0.0000000e+00 -1.8529962e-03 0.0000000e+00 
0.0000000e+00 -1.7328291e-03 0.0000000e+00 
0.0000000e+00 -1.5391345e-03 0.0000000e+00 
0.0000000e+00 -1.3546216e-03 0.0000000e+00 
0.0000000e+00 -1.1792902e-03 0.0000000e+00 
0.0000000e+00 -1.2464940e-03 0.0000000e+00 
0.0000000e+00 -1.3271733e-03 0.0000000e+00 
0.0000000e+00 -1.3981407e-03 0.0000000e+00 
0.0000000e+00 -1.3872976e-03 0.0000000e+00 
0.0000000e+00 -1.2120204e-03 0.0000000e+00 
0.0000000e+00 1.8273834e-04 0.0000000e+00 
0.0000000e+00 8.2766154e-04 0.0000000e+00 
0.0000000e+00 4.5911968e-04 0.0000000e+00 
0.0000000e+00 -4.0956362e-04 0.0000000e+00 
0.0000000e+00 8.2228391e-05 0.0000000e+00 
0.0000000e+00 5.2674208e-04 0.0000000e+00 
0.0000000e+00 5.2482652e-04 0.0000000e+00 
0.0000000e+00 -2.9432992e-04 0.0000000e+00 
REACTION 3 30  float
-9.1966278e+02 -0.0000000e+00 -2.9094849e+02 
-4.7066351e-11 -0.0000000e+00 -0.0000000e+00 
-3.6834535e-10 -0.0000000e+00 -9.0949470e-13 
2.5283953e-10 -0.0000000e+00 -0.0000000e+00 
6.9849193e-10 -0.0000000e+00 1.8189894e-12 
1.1059456e-09 -0.0000000e+00 3.7834980e-10 
-6.3118932e-09 -0.0000000e+00 2.7739588e-10 
-1.3278623e-10 -0.0000000e+00 -1.8189894e-11 
8.1490725e-10 -0.0000000e+00 6.5483619e-11 
-1.2369128e-10 -0.0000000e+00 -9.0949470e-12 
2.4747351e-09 -0.0000000e+00 -1.3642421e-11 
2.0695842e+03 -0.0000000e+00 2.9398408e+04 
-1.4551915e-11 -0.0000000e+00 -0.0000000e+00 
-5.7843863e-10 -0.0000000e+00 -6.1845640e-11 
-1.1641532e-10 -0.0000000e+00 6.5483619e-11 
1.9208528e-09 -0.0000000e+00 -1.4551915e-11 
2.6739144e-10 -0.0000000e+00 1.4915713e-09 
1.5643309e-10 -0.0000000e+00 3.8198777e-11 
-1.3387762e-09 -0.0000000e+00 -0.0000000e+00 
1.1532393e-09 -0.0000000e+00 5.8025762e-10 
6.2937033e-10 -0.0000000e+00 -9.0949470e-12 
-0.0000000e+00 -0.0000000e+00 2.7648639e-10 
-7.7307050e-11 -0.0000000e+00 -8.3309715e-10 
1.7007551e-10 -0.0000000e+00 -1.8189894e-11 
4.0563464e-10 -0.0000000e+00 -6.5574568e-10 
1.8990249e-09 -0.0000000e+00 1.1641532e-10 
-7.0576789e-10 -0.0000000e+00 1.0004442e-11 
-4.5156412e-10 -0.0000000e+00 1.0004442e-11 
-2.4101610e-09 -0.0000000e+00 -1.1041266e-09 
5.8935257e-10 -0.0000000e+00 -2.1827873e-11 
REACTION_MOMENT 3 30  float
-0.0000000e+00 -1.1641532e-10 -0.0000000e+00 
-0.0000000e+00 -5.8207661e-11 -0.0000000e+00 
-0.0000000e+00 8.7311491e-11 -0.0000000e+00 
-0.0000000e+00 5.8207661e-11 -0.0000000e+00 
-0.0000000e+00 4.3655746e-11 -0.0000000e+00 
-0.0000000e+00 -2.4592737e-09 -0.0000000e+00 
-0.0000000e+00 -1.8917490e-10 -0.0000000e+00 
-0.0000000e+00 -2.7648639e-10 -0.0000000e+00 
-0.0000000e+00 -1.5570549e-09 -0.0000000e+00 
-0.0000000e+00 3.6379788e-10 -0.0000000e+00 
-0.0000000e+00 6.2573235e-10 -0.0000000e+00 
-0.0000000e+00 -2.9103830e-11 -0.0000000e+00 
-0.0000000e+00 -2.9103830e-11 -0.0000000e+00 
-0.0000000e+00 1.6007107e-10 -0.0000000e+00 
-0.0000000e+00 4.5110937e-10 -0.0000000e+00 
-0.0000000e+00 1.4551915e-10 -0.0000000e+00 
-0.0000000e+00 -1.0186341e-10 -0.0000000e+00 
-0.0000000e+00 -2.0372681e-10 -0.0000000e+00 
-0.0000000e+00 -9.8953024e-10 -0.0000000e+00 
-0.0000000e+00 2.9103830e-11 -0.0000000e+00 
-0.0000000e+00 -3.3469405e-10 -0.0000000e+00 
-0.0000000e+00 2.1827873e-10 -0.0000000e+00 
-0.0000000e+00 -1.6370905e-10 -0.0000000e+00 
-0.0000000e+00 5.6388672e-11 -0.0000000e+00 
-0.0000000e+00 9.0949470e-12 -0.0000000e+00 
-0.0000000e+00 5.4569682e-11 -0.0000000e+00 
-0.0000000e+00 8.1854523e-12 -0.0000000e+00 
-0.0000000e+00 1.8189894e-11 -0.0000000e+00 
-0.0000000e+00 5.4569682e-12 -0.0000000e+00 
-0.0000000e+00 1.8189894e-11 -0.0000000e+00 
VOLUME_ACCELERATION 3 30  float
0.0000000e+00 0.0000000e+00 0.0000000e+00 
0.0000000e+00 0.0000000e+00 0.0000000e+00 
0.0000000e+00 0.0000000e+00 0.0000000e+00 
0.0000000e+00 0.0000000e+00 0.0000000e+00 
0.0000000e+00 0.0000000e+00 0.0000000e+00 
0.0000000e+00 0.0000000e+00 0.0000000e+00 
0.0000000e+00 0.0000000e+00 0.0000000e+00 
0.0000000e+00 0.0000000e+00 0.0000000e+00 
0.0000000e+00 0.0000000e+00 0.0000000e+00 
0.0000000e+00 0.0000000e+00 0.0000000e+00 
0.0000000e+00 0.0000000e+00 0.0000000e+00 
0.0000000e+00 0.0000000e+00 0.0000000e+00 
0.0000000e+00 0.0000000e+00 0.0000000e+00 
0.0000000e+00 0.0000000e+00 0.0000000e+00 
0.0000000e+00 0.0000000e+00 0.0000000e+00 
0.0000000e+00 0.0000000e+00 0.0000000e+00 
0.0000000e+00 0.0000000e+00 0.0000000e+00 
0.0000000e+00 0.0000000e+00 0.0000000e+00 
0.0000000e+00 0.0000000e+00 0.0000000e+00 
0.0000000e+00 0.0000000e+00 0.0000000e+00 
0.0000000e+00 0.0000000e+00 0.0000000e+00 
0.0000000e+00 0.0000000e+00 0.0000000e+00 
0.0000000e+00 0.0000000e+00 0.0000000e+00 
0.0000000e+00 0.0000000e+00 0.0000000e+00 
0.0000000e+00 0.0000000e+00 0.0000000e+00 
0.0000000e+00 0.0000000e+00 0.0000000e+00 
0.0000000e+00 0.0000000e+00 0.0000000e+00 
0.0000000e+00 0.0000000e+00 0.0000000e+00 
0.0000000e+00 0.0000000e+00 0.0000000e+00 
0.0000000e+00 0.0000000e+00 0.0000000e+00 
POINT_LOAD 3 30  float
0.0000000e+00 0.0000000e+00 0.0000000e+00 
2.0109087e+03 0.0000000e+00 1.5849352e+03 
4.6290474e+03 0.0000000e+00 6.3870264e+03 
-1.4191676e+03 0.0000000e+00 -9.6489785e+03 
0.0000000e+00 0.0000000e+00 0.0000000e+00 
0.0000000e+00 0.0000000e+00 0.0000000e+00 
3.4309624e+03 0.0000000e+00 8.0496104e+03 
-6.1604067e+03 0.0000000e+00 8.4409082e+03 
4.6674175e+03 0.0000000e+00 4.1321689e+03 
-6.0556182e+03 0.0000000e+00 -4.2482988e+03 
-8.1723911e+03 0.0000000e+00 -6.5587622e+03 
0.0000000e+00 0.0000000e+00 0.0000000e+00 
5.6201909e+03 0.0000000e+00 3.5348354e+03 
-8.1416836e+03 0.0000000e+00 -3.6495078e+03 
0.0000000e+00 0.0000000e+00 0.0000000e+00 
0.0000000e+00 0.0000000e+00 0.0000000e+00 
3.9160061e+03 0.0000000e+00 -9.6817178e+03 
2.2825405e+03 0.0000000e+00 -6.4248149e+03 
0.0000000e+00 0.0000000e+00 0.0000000e+00 
7.0971709e+03 0.0000000e+00 -7.5415973e+02 
1.0361206e+03 0.0000000e+00 -4.8395273e+03 
0.0000000e+00 0.0000000e+00 0.0000000e+00 
4.1315386e+03 0.0000000e+00 7.8096665e+03 
-6.6351289e+03 0.0000000e+00 -4.0423860e+03 
4.1539828e+02 0.0000000e+00 -4.0424612e+03 
5.8409167e+02 0.0000000e+00 -5.3933350e+03 
-2.1254277e+03 0.0000000e+00 -5.8359062e+03 
2.8391614e+03 0.0000000e+00 7.3928799e+03 
-4.8751489e+03 0.0000000e+00 -1.5525951e+03 
-2.2550409e+02 0.0000000e+00 -9.7670381e+03 
POINT_MOMENT 3 30  float
0.0000000e+00 0.0000000e+00 0.0000000e+00 
0.0000000e+00 0.0000000e+00 0.0000000e+00 
0.0000000e+00 0.0000000e+00 0.0000000e+00 
0.0000000e+00 0.0000000e+00 0.0000000e+00 
0.0000000e+00 0.0000000e+00 0.0000000e+00 
0.0000000e+00 0.0000000e+00 0.0000000e+00 
0.0000000e+00 0.0000000e+00 0.0000000e+00 
0.0000000e+00 0.0000000e+00 0.0000000e+00 
0.0000000e+00 0.0000000e+00 0.0000000e+00 
0.0000000e+00 0.0000000e+00 0.0000000e+00 
0.0000000e+00 0.0000000e+00 0.0000000e+00 
0.0000000e+00 0.0000000e+00 0.0000000e+00 
0.0000000e+00 0.0000000e+00 0.0000000e+00 
0.0000000e+00 0.0000000e+00 0.0000000e+00 
0.0000000e+00 0.0000000e+00 0.0000000e+00 
0.0000000e+00 0.0000000e+00 0.0000000e+00 
0.0000000e+00 0.0000000e+00 0.0000000e+00 
0.0000000e+00 0.0000000e+00 0.0000000e+00 
0.0000000e+00 0.0000000e+00 0.0000000e+00 
0.0000000e+00 0.0000000e+00 0.0000000e+00 
0.0000000e+00 0.0000000e+00 0.0000000e+00 
0.0000000e+00 0.0000000e+00 0.0000000e+00 
0.0000000e+00 0.0000000e+00 0.0000000e+00 
0.0000000e+00 0.0000000e+00 0.0000000e+00 
0.0000000e+00 0.0000000e+00 0.0000000e+00 
0.0000000e+00 0.0000000e+00 0.0000000e+00 
0.0000000e+00 0.0000000e+00 0.0000000e+00 
0.0000000e+00 0.0000000e+00 0.0000000e+00 
0.0000000e+00 0.0000000e+00 0.0000000e+00 
0.0000000e+00 0.0000000e+00 0.0000000e+00 
CELL_DATA 30
FIELD FieldData 9
YOUNG_MODULUS 1 30  float
2.1000000e+11
2.1000000e+11
2.1000000e+11
2.1000000e+11
2.1000000e+11
2.1000000e+11
2.1000000e+11
2.1000000e+11
2.1000000e+11
2.1000000e+11
2.1000000e+11
2.1000000e+11
2.1000000e+11
2.1000000e+11
2.1000000e+11
2.1000000e+11
2.1000000e+11
2.1000000e+11
2.1000000e+11
2.1000000e+11
2.1000000e+11
2.1000000e+11
2.1000000e+11
2.1000000e+11
2.1000000e+11
2.1000000e+11
2.1000000e+11
2.1000000e+11
2.1000000e+11
2.1000000e+11
DENSITY 1 30  float
7.8500000e+03
7.8500000e+03
7.8500000e+03
7.8500000e+03
7.8500000e+03
7.8500000e+03
7.8500000e+03
7.8500000e+03
7.8500000e+03
7.8500000e+03
7.8500000e+03
7.8500000e+03
7.8500000e+03
7.8500000e+03
7.8500000e+03
7.8500000e+03
7.8500000e+03
7.8500000e+03
7.8500000e+03
7.8500000e+03
7.8500000e+03
7.8500000e+03
7.8500000e+03
7.8500000e+03
7.8500000e+03
7.8500000e+03
7.8500000e+03
7.8500000e+03
7.8500000e+03
7.8500000e+03
CROSS_AREA 1 30  float
9.9999998e-03
9.9999998e-03
9.9999998e-03
9.9999998e-03
9.9999998e-03
9.9999998e-03
9.9999998e-03
9.9999998e-03
9.9999998e-03
9.9999998e-03
9.9999998e-03
9.9999998e-03
9.9999998e-03
9.9999998e-03
9.9999998e-03
9.9999998e-03
9.9999998e-03
9.9999998e-03
9.9999998e-03
9.9999998e-03
9.9999998e-03
9.9999998e-03
9.9999998e-03
9.9999998e-03
9.9999998e-03
9.9999998e-03
9.9999998e-03
9.9999998e-03
9.9999998e-03
9.9999998e-03
I22 1 30  float
1.5000001e-04
1.5000001e-04
1.5000001e-04
1.5000001e-04
1.5000001e-04
1.5000001e-04
1.5000001e-04
1.5000001e-04
1.5000001e-04
1.5000001e-04
1.5000001e-04
1.5000001e-04
1.5000001e-04
1.5000001e-04
1.5000001e-04
1.5000001e-04
1.5000001e-04
1.5000001e-04
1.5000001e-04
1.5000001e-04
1.5000001e-04
1.5000001e-04
1.5000001e-04
1.5000001e-04
1.5000001e-04
1.5000001e-04
1.5000001e-04
1.5000001e-04
1.5000001e-04
1.5000001e-04
I33 1 30  float
1.5000001e-04
1.5000001e-04
1.5000001e-04
1.5000001e-04
1.5000001e-04
1.5000001e-04
1.5000001e-04
1.5000001e-04
1.5000001e-04
1.5000001e-04
1.5000001e-04
1.5000001e-04
1.5000001e-04
1.5000001e-04
1.5000001e-04
1.5000001e-04
1.5000001e-04
1.5000001e-04
1.5000001e-04
1.5000001e-04
1.5000001e-04
1.5000001e-04
1.5000001e-04
1.5000001e-04
1.5000001e-04
1.5000001e-04
1.5000001e-04
1.5000001e-04
1.5000001e-04
1.5000001e-04
TORSIONAL_INERTIA 1 30  float
3.0000001e-04
3.0000001e-04
3.0000001e-04
3.0000001e-04
3.0000001e-04
3.0000001e-04
3.0000001e-04
3.0000001e-04
3.0000001e-04
3.0000001e-04
3.0000001e-04
3.0000001e-04
3.0000001e-04
3.0000001e-04
3.0000001e-04
3.0000001e-04
3.0000001e-04
3.0000001e-04
3.0000001e-04
3.0000001e-04
3.0000001e-04
3.0000001e-04
3.0000001e-04
3.0000001e-04
3.0000001e-04
3.0000001e-04
3.0000001e-04
3.0000001e-04
3.0000001e-04
3.0000001e-04
POISSON_RATIO 1 30  float
3.0000001e-01
3.0000001e-01
3.0000001e-01
3.0000001e-01
3.0000001e-01
3.0000001e-01
3.0000001e-01
3.0000001e-01
3.0000001e-01
3.0000001e-01
3.0000001e-01
3.0000001e-01
3.0000001e-01
3.0000001e-01
3.0000001e-01
3.0000001e-01
3.0000001e-01
3.0000001e-01
3.0000001e-01
3.0000001e-01
3.0000001e-01
3.0000001e-01
3.0000001e-01
3.0000001e-01
3.0000001e-01
3.0000001e-01
3.0000001e-01
3.0000001e-01
3.0000001e-01
3.0000001e-01
MOMENT 3 30  float
0.0000000e+00 -3.6786511e+02 0.0000000e+00 
0.0000000e+00 -2.9923190e+02 0.0000000e+00 
0.0000000e+00 2.4253838e+03 0.0000000e+00 
0.0000000e+00 6.4339517e+03 0.0000000e+00 
0.0000000e+00 9.8748525e+03 0.0000000e+00 
0.0000000e+00 -9.7233379e+03 0.0000000e+00 
0.0000000e+00 -1.8984338e+03 0.0000000e+00 
0.0000000e+00 4.8346919e+03 0.0000000e+00 
0.0000000e+00 1.0970622e+04 0.0000000e+00 
0.0000000e+00 1.6551273e+04 0.0000000e+00 
0.0000000e+00 8.2783374e+02 0.0000000e+00 
0.0000000e+00 4.7315776e+03 0.0000000e+00 
0.0000000e+00 7.6267241e+03 0.0000000e+00 
0.0000000e+00 7.2651973e+03 0.0000000e+00 
0.0000000e+00 6.9036704e+03 0.0000000e+00 
0.0000000e+00 -2.6461460e+03 0.0000000e+00 
0.0000000e+00 -3.1767500e+03 0.0000000e+00 
0.0000000e+00 -2.7943379e+03 0.0000000e+00 
0.0000000e+00 4.2694263e+02 0.0000000e+00 
0.0000000e+00 6.9015396e+03 0.0000000e+00 
0.0000000e+00 2.2352336e+04 0.0000000e+00 
0.0000000e+00 1.0157541e+04 0.0000000e+00 
0.0000000e+00 -5.8045342e+03 0.0000000e+00 
0.0000000e+00 -1.3681763e+04 0.0000000e+00 
0.0000000e+00 -1.2123194e+04 0.0000000e+00 
0.0000000e+00 1.2475377e+04 0.0000000e+00 
0.0000000e+00 7.0010908e+03 0.0000000e+00 
0.0000000e+00 -3.0169586e+01 0.0000000e+00 
0.0000000e+00 -1.2901715e+04 0.0000000e+00 
0.0000000e+00 -1.4453626e+04 0.0000000e+00 
FORCE 3 30  float
2.9094849e+02 0.0000000e+00 -9.1966278e+02 
-1.2939867e+03 0.0000000e+00 1.0912458e+03 
-7.6810132e+03 0.0000000e+00 5.7202935e+03 
1.9679655e+03 0.0000000e+00 4.3011260e+03 
1.9679655e+03 0.0000000e+00 4.3011260e+03 
4.1605293e+03 0.0000000e+00 8.0656484e+03 
-3.8890808e+03 0.0000000e+00 1.1496611e+04 
-1.2329989e+04 0.0000000e+00 5.3362041e+03 
-1.6462158e+04 0.0000000e+00 1.0003622e+04 
-1.2213858e+04 0.0000000e+00 3.9480034e+03 
-2.9398408e+04 0.0000000e+00 2.0695842e+03 
-3.2933242e+04 0.0000000e+00 7.6897754e+03 
-2.9283734e+04 0.0000000e+00 -4.5190860e+02 
-2.9283734e+04 0.0000000e+00 -4.5190860e+02 
-2.9283734e+04 0.0000000e+00 -4.5190860e+02 
-1.6126065e+04 0.0000000e+00 -1.8045253e+03 
-9.7012510e+03 0.0000000e+00 4.7801523e+02 
-9.7012510e+03 0.0000000e+00 4.7801523e+02 
-8.9470908e+03 0.0000000e+00 7.5751860e+03 
-4.1075635e+03 0.0000000e+00 8.6113066e+03 
3.7645227e+03 0.0000000e+00 -2.1925640e+03 
-3.6701617e+02 0.0000000e+00 -1.0002230e+04 
6.2681128e+03 0.0000000e+00 -5.9598447e+03 
5.8527144e+03 0.0000000e+00 -1.9173834e+03 
5.2686226e+03 0.0000000e+00 3.4759514e+03 
4.2243877e+03 0.0000000e+00 -5.6550967e+03 
6.3498154e+03 0.0000000e+00 1.8080981e+02 
3.5106538e+03 0.0000000e+00 -7.2120698e+03 
8.3858027e+03 0.0000000e+00 -5.6594751e+03 
8.6113066e+03 0.0000000e+00 4.1075635e+03 
