# vtk DataFile Version 4.0
vtk output
ASCII
DATASET UNSTRUCTURED_GRID
POINTS 212 float
0.0000000e+00 0.0000000e+00 0.0000000e+00 
0.0000000e+00 0.0000000e+00 2.5000000e-01 
0.0000000e+00 0.0000000e+00 5.0000000e-01 
0.0000000e+00 0.0000000e+00 7.5000000e-01 
0.0000000e+00 0.0000000e+00 1.0000000e+00 
0.0000000e+00 0.0000000e+00 1.2500000e+00 
0.0000000e+00 0.0000000e+00 1.5000000e+00 
0.0000000e+00 0.0000000e+00 1.7500000e+00 
0.0000000e+00 0.0000000e+00 2.0000000e+00 
0.0000000e+00 0.0000000e+00 2.2500000e+00 
0.0000000e+00 0.0000000e+00 2.5000000e+00 
0.0000000e+00 0.0000000e+00 2.7500000e+00 
0.0000000e+00 0.0000000e+00 3.0000000e+00 
0.0000000e+00 0.0000000e+00 3.2500000e+00 
0.0000000e+00 0.0000000e+00 3.5000000e+00 
0.0000000e+00 0.0000000e+00 3.7500000e+00 
0.0000000e+00 0.0000000e+00 4.0000000e+00 
0.0000000e+00 0.0000000e+00 4.2500000e+00 
0.0000000e+00 0.0000000e+00 4.5000000e+00 
0.0000000e+00 0.0000000e+00 4.7500000e+00 
0.0000000e+00 0.0000000e+00 5.0000000e+00 
0.0000000e+00 0.0000000e+00 5.2500000e+00 
0.0000000e+00 0.0000000e+00 5.5000000e+00 
0.0000000e+00 0.0000000e+00 5.7500000e+00 
0.0000000e+00 0.0000000e+00 6.0000000e+00 
0.0000000e+00 0.0000000e+00 6.2500000e+00 
0.0000000e+00 0.0000000e+00 6.5000000e+00 
0.0000000e+00 0.0000000e+00 6.7500000e+00 
0.0000000e+00 0.0000000e+00 7.0000000e+00 
0.0000000e+00 0.0000000e+00 7.2500000e+00 
0.0000000e+00 0.0000000e+00 7.5000000e+00 
0.0000000e+00 0.0000000e+00 7.7500000e+00 
0.0000000e+00 0.0000000e+00 8.0000000e+00 
0.0000000e+00 0.0000000e+00 8.2500000e+00 
0.0000000e+00 0.0000000e+00 8.5000000e+00 
0.0000000e+00 0.0000000e+00 8.7500000e+00 
0.0000000e+00 0.0000000e+00 9.0000000e+00 
0.0000000e+00 0.0000000e+00 9.2500000e+00 
0.0000000e+00 0.0000000e+00 9.5000000e+00 
0.0000000e+00 0.0000000e+00 9.7500000e+00 
0.0000000e+00 0.0000000e+00 1.0000000e+01 
0.0000000e+00 0.0000000e+00 1.0250000e+01 
0.0000000e+00 0.0000000e+00 1.0500000e+01 
0.0000000e+00 0.0000000e+00 1.0750000e+01 
0.0000000e+00 0.0000000e+00 1.1000000e+01 
0.0000000e+00 0.0000000e+00 1.1250000e+01 
0.0000000e+00 0.0000000e+00 1.1500000e+01 
0.0000000e+00 0.0000000e+00 1.1750000e+01 
0.0000000e+00 0.0000000e+00 1.2000000e+01 
0.0000000e+00 0.0000000e+00 1.2250000e+01 
0.0000000e+00 0.0000000e+00 1.2500000e+01 
0.0000000e+00 0.0000000e+00 1.2750000e+01 
0.0000000e+00 0.0000000e+00 1.3000000e+01 
0.0000000e+00 0.0000000e+00 1.3250000e+01 
0.0000000e+00 0.0000000e+00 1.3500000e+01 
0.0000000e+00 0.0000000e+00 1.3750000e+01 
0.0000000e+00 0.0000000e+00 1.4000000e+01 
0.0000000e+00 0.0000000e+00 1.4250000e+01 
0.0000000e+00 0.0000000e+00 1.4500000e+01 
0.0000000e+00 0.0000000e+00 1.4750000e+01 
0.0000000e+00 0.0000000e+00 1.5000000e+01 
0.0000000e+00 0.0000000e+00 1.5250000e+01 
0.0000000e+00 0.0000000e+00 1.5500000e+01 
0.0000000e+00 0.0000000e+00 1.5750000e+01 
0.0000000e+00 0.0000000e+00 1.6000000e+01 
0.0000000e+00 0.0000000e+00 1.6250000e+01 
0.0000000e+00 0.0000000e+00 1.6500000e+01 
0.0000000e+00 0.0000000e+00 1.6750000e+01 
0.0000000e+00 0.0000000e+00 1.7000000e+01 
0.0000000e+00 0.0000000e+00 1.7250000e+01 
0.0000000e+00 0.0000000e+00 1.7500000e+01 
0.0000000e+00 0.0000000e+00 1.7750000e+01 
0.0000000e+00 0.0000000e+00 1.8000000e+01 
5.0000000e-01 0.0000000e+00 3.0000000e+00 
5.0000000e-01 0.0000000e+00 6.0000000e+00 
5.0000000e-01 0.0000000e+00 9.0000000e+00 
5.0000000e-01 0.0000000e+00 1.2000000e+01 
5.0000000e-01 0.0000000e+00 1.5000000e+01 
5.0000000e-01 0.0000000e+00 1.8000000e+01 
1.0000000e+00 0.0000000e+00 3.0000000e+00 
1.0000000e+00 0.0000000e+00 6.0000000e+00 
1.0000000e+00 0.0000000e+00 9.0000000e+00 
1.0000000e+00 0.0000000e+00 1.2000000e+01 
1.0000000e+00 0.0000000e+00 1.5000000e+01 
1.0000000e+00 0.0000000e+00 1.8000000e+01 
1.5000000e+00 0.0000000e+00 3.0000000e+00 
1.5000000e+00 0.0000000e+00 6.0000000e+00 
1.5000000e+00 0.0000000e+00 9.0000000e+00 
1.5000000e+00 0.0000000e+00 1.2000000e+01 
1.5000000e+00 0.0000000e+00 1.5000000e+01 
1.5000000e+00 0.0000000e+00 1.8000000e+01 
2.0000000e+00 0.0000000e+00 3.0000000e+00 
2.0000000e+00 0.0000000e+00 6.0000000e+00 
2.0000000e+00 0.0000000e+00 9.0000000e+00 
2.0000000e+00 0.0000000e+00 1.2000000e+01 
2.0000000e+00 0.0000000e+00 1.5000000e+01 
2.0000000e+00 0.0000000e+00 1.8000000e+01 
2.5000000e+00 0.0000000e+00 3.0000000e+00 
2.5000000e+00 0.0000000e+00 6.0000000e+00 
2.5000000e+00 0.0000000e+00 9.0000000e+00 
2.5000000e+00 0.0000000e+00 1.2000000e+01 
2.5000000e+00 0.0000000e+00 1.5000000e+01 
2.5000000e+00 0.0000000e+00 1.8000000e+01 
3.0000000e+00 0.0000000e+00 3.0000000e+00 
3.0000000e+00 0.0000000e+00 6.0000000e+00 
3.0000000e+00 0.0000000e+00 9.0000000e+00 
3.0000000e+00 0.0000000e+00 1.2000000e+01 
3.0000000e+00 0.0000000e+00 1.5000000e+01 
3.0000000e+00 0.0000000e+00 1.8000000e+01 
3.5000000e+00 0.0000000e+00 3.0000000e+00 
3.5000000e+00 0.0000000e+00 6.0000000e+00 
3.5000000e+00 0.0000000e+00 9.0000000e+00 
3.5000000e+00 0.0000000e+00 1.2000000e+01 
3.5000000e+00 0.0000000e+00 1.5000000e+01 
3.5000000e+00 0.0000000e+00 1.8000000e+01 
4.0000000e+00 0.0000000e+00 3.0000000e+00 
4.0000000e+00 0.0000000e+00 6.0000000e+00 
4.0000000e+00 0.0000000e+00 9.0000000e+00 
4.0000000e+00 0.0000000e+00 1.2000000e+01 
4.0000000e+00 0.0000000e+00 1.5000000e+01 
4.0000000e+00 0.0000000e+00 1.8000000e+01 
4.5000000e+00 0.0000000e+00 3.0000000e+00 
4.5000000e+00 0.0000000e+00 6.0000000e+00 
4.5000000e+00 0.0000000e+00 9.0000000e+00 
4.5000000e+00 0.0000000e+00 1.2000000e+01 
4.5000000e+00 0.0000000e+00 1.5000000e+01 
4.5000000e+00 0.0000000e+00 1.8000000e+01 
5.0000000e+00 0.0000000e+00 3.0000000e+00 
5.0000000e+00 0.0000000e+00 6.0000000e+00 
5.0000000e+00 0.0000000e+00 9.0000000e+00 
5.0000000e+00 0.0000000e+00 1.2000000e+01 
5.0000000e+00 0.0000000e+00 1.5000000e+01 
5.0000000e+00 0.0000000e+00 1.8000000e+01 
5.5000000e+00 0.0000000e+00 3.0000000e+00 
5.5000000e+00 0.0000000e+00 6.0000000e+00 
5.5000000e+00 0.0000000e+00 9.0000000e+00 
5.5000000e+00 0.0000000e+00 1.2000000e+01 
5.5000000e+00 0.0000000e+00 1.5000000e+01 
5.5000000e+00 0.0000000e+00 1.8000000e+01 
6.0000000e+00 0.0000000e+00 0.0000000e+00 
6.0000000e+00 0.0000000e+00 2.5000000e-01 
6.0000000e+00 0.0000000e+00 5.0000000e-01 
6.0000000e+00 0.0000000e+00 7.5000000e-01 
6.0000000e+00 0.0000000e+00 1.0000000e+00 
6.0000000e+00 0.0000000e+00 1.2500000e+00 
6.0000000e+00 0.0000000e+00 1.5000000e+00 
6.0000000e+00 0.0000000e+00 1.7500000e+00 
6.0000000e+00 0.0000000e+00 2.0000000e+00 
6.0000000e+00 0.0000000e+00 2.2500000e+00 
6.0000000e+00 0.0000000e+00 2.5000000e+00 
6.0000000e+00 0.0000000e+00 2.7500000e+00 
6.0000000e+00 0.0000000e+00 3.0000000e+00 
6.0000000e+00 0.0000000e+00 3.2500000e+00 
6.0000000e+00 0.0000000e+00 3.5000000e+00 
6.0000000e+00 0.0000000e+00 3.7500000e+00 
6.0000000e+00 0.0000000e+00 4.0000000e+00 
6.0000000e+00 0.0000000e+00 4.2500000e+00 
6.0000000e+00 0.0000000e+00 4.5000000e+00 
6.0000000e+00 0.0000000e+00 4.7500000e+00 
6.0000000e+00 0.0000000e+00 5.0000000e+00 
6.0000000e+00 0.0000000e+00 5.2500000e+00 
6.0000000e+00 0.0000000e+00 5.5000000e+00 
6.0000000e+00 0.0000000e+00 5.7500000e+00 
6.0000000e+00 0.0000000e+00 6.0000000e+00 
6.0000000e+00 0.0000000e+00 6.2500000e+00 
6.0000000e+00 0.0000000e+00 6.5000000e+00 
6.0000000e+00 0.0000000e+00 6.7500000e+00 
6.0000000e+00 0.0000000e+00 7.0000000e+00 
6.0000000e+00 0.0000000e+00 7.2500000e+00 
6.0000000e+00 0.0000000e+00 7.5000000e+00 
6.0000000e+00 0.0000000e+00 7.7500000e+00 
6.0000000e+00 0.0000000e+00 8.0000000e+00 
6.0000000e+00 0.0000000e+00 8.2500000e+00 
6.0000000e+00 0.0000000e+00 8.5000000e+00 
6.0000000e+00 0.0000000e+00 8.7500000e+00 
6.0000000e+00 0.0000000e+00 9.0000000e+00 
6.0000000e+00 0.0000000e+00 9.2500000e+00 
6.0000000e+00 0.0000000e+00 9.5000000e+00 
6.0000000e+00 0.0000000e+00 9.7500000e+00 
6.0000000e+00 0.0000000e+00 1.0000000e+01 
6.0000000e+00 0.0000000e+00 1.0250000e+01 
6.0000000e+00 0.0000000e+00 1.0500000e+01 
6.0000000e+00 0.0000000e+00 1.0750000e+01 
6.0000000e+00 0.0000000e+00 1.1000000e+01 
6.0000000e+00 0.0000000e+00 1.1250000e+01 
6.0000000e+00 0.0000000e+00 1.1500000e+01 
6.0000000e+00 0.0000000e+00 1.1750000e+01 
6.0000000e+00 0.0000000e+00 1.2000000e+01 
6.0000000e+00 0.0000000e+00 1.2250000e+01 
6.0000000e+00 0.0000000e+00 1.2500000e+01 
6.0000000e+00 0.0000000e+00 1.2750000e+01 
6.0000000e+00 0.0000000e+00 1.3000000e+01 
6.0000000e+00 0.0000000e+00 1.3250000e+01 
6.0000000e+00 0.0000000e+00 1.3500000e+01 
6.0000000e+00 0.0000000e+00 1.3750000e+01 
6.0000000e+00 0.0000000e+00 1.4000000e+01 
6.0000000e+00 0.0000000e+00 1.4250000e+01 
6.0000000e+00 0.0000000e+00 1.4500000e+01 
6.0000000e+00 0.0000000e+00 1.4750000e+01 
6.0000000e+00 0.0000000e+00 1.5000000e+01 
6.0000000e+00 0.0000000e+00 1.5250000e+01 
6.0000000e+00 0.0000000e+00 1.5500000e+01 
6.0000000e+00 0.0000000e+00 1.5750000e+01 
6.0000000e+00 0.0000000e+00 1.6000000e+01 
6.0000000e+00 0.0000000e+00 1.6250000e+01 
6.0000000e+00 0.0000000e+00 1.6500000e+01 
6.0000000e+00 0.0000000e+00 1.6750000e+01 
6.0000000e+00 0.0000000e+00 1.7000000e+01 
6.0000000e+00 0.0000000e+00 1.7250000e+01 
6.0000000e+00 0.0000000e+00 1.7500000e+01 
6.0000000e+00 0.0000000e+00 1.7750000e+01 
6.0000000e+00 0.0000000e+00 1.8000000e+01 

CELLS 216 648
2 0 1
2 1 2
2 2 3
2 3 4
2 4 5
2 5 6
2 6 7
2 7 8
2 8 9
2 9 10
2 10 11
2 11 12
2 12 13
2 13 14
2 14 15
2 15 16
2 16 17
2 17 18
2 18 19
2 19 20
2 20 21
2 21 22
2 22 23
2 23 24
2 24 25
2 25 26
2 26 27
2 27 28
2 28 29
2 29 30
2 30 31
2 31 32
2 32 33
2 33 34
2 34 35
2 35 36
2 36 37
2 37 38
2 38 39
2 39 40
2 40 41
2 41 42
2 42 43
2 43 44
2 44 45
2 45 46
2 46 47
2 47 48
2 48 49
2 49 50
2 50 51
2 51 52
2 52 53
2 53 54
2 54 55
2 55 56
2 56 57
2 57 58
2 58 59
2 59 60
2 60 61
2 61 62
2 62 63
2 63 64
2 64 65
2 65 66
2 66 67
2 67 68
2 68 69
2 69 70
2 70 71
2 71 72
2 139 140
2 140 141
2 141 142
2 142 143
2 143 144
2 144 145
2 145 146
2 146 147
2 147 148
2 148 149
2 149 150
2 150 151
2 151 152
2 152 153
2 153 154
2 154 155
2 155 156
2 156 157
2 157 158
2 158 159
2 159 160
2 160 161
2 161 162
2 162 163
2 163 164
2 164 165
2 165 166
2 166 167
2 167 168
2 168 169
2 169 170
2 170 171
2 171 172
2 172 173
2 173 174
2 174 175
2 175 176
2 176 177
2 177 178
2 178 179
2 179 180
2 180 181
2 181 182
2 182 183
2 183 184
2 184 185
2 185 186
2 186 187
2 187 188
2 188 189
2 189 190
2 190 191
2 191 192
2 192 193
2 193 194
2 194 195
2 195 196
2 196 197
2 197 198
2 198 199
2 199 200
2 200 201
2 201 202
2 202 203
2 203 204
2 204 205
2 205 206
2 206 207
2 207 208
2 208 209
2 209 210
2 210 211
2 12 73
2 73 79
2 79 85
2 85 91
2 91 97
2 97 103
2 103 109
2 109 115
2 115 121
2 121 127
2 127 133
2 133 151
2 24 74
2 74 80
2 80 86
2 86 92
2 92 98
2 98 104
2 104 110
2 110 116
2 116 122
2 122 128
2 128 134
2 134 163
2 36 75
2 75 81
2 81 87
2 87 93
2 93 99
2 99 105
2 105 111
2 111 117
2 117 123
2 123 129
2 129 135
2 135 175
2 48 76
2 76 82
2 82 88
2 88 94
2 94 100
2 100 106
2 106 112
2 112 118
2 118 124
2 124 130
2 130 136
2 136 187
2 60 77
2 77 83
2 83 89
2 89 95
2 95 101
2 101 107
2 107 113
2 113 119
2 119 125
2 125 131
2 131 137
2 137 199
2 72 78
2 78 84
2 84 90
2 90 96
2 96 102
2 102 108
2 108 114
2 114 120
2 120 126
2 126 132
2 132 138
2 138 211

CELL_TYPES 216
3
3
3
3
3
3
3
3
3
3
3
3
3
3
3
3
3
3
3
3
3
3
3
3
3
3
3
3
3
3
3
3
3
3
3
3
3
3
3
3
3
3
3
3
3
3
3
3
3
3
3
3
3
3
3
3
3
3
3
3
3
3
3
3
3
3
3
3
3
3
3
3
3
3
3
3
3
3
3
3
3
3
3
3
3
3
3
3
3
3
3
3
3
3
3
3
3
3
3
3
3
3
3
3
3
3
3
3
3
3
3
3
3
3
3
3
3
3
3
3
3
3
3
3
3
3
3
3
3
3
3
3
3
3
3
3
3
3
3
3
3
3
3
3
3
3
3
3
3
3
3
3
3
3
3
3
3
3
3
3
3
3
3
3
3
3
3
3
3
3
3
3
3
3
3
3
3
3
3
3
3
3
3
3
3
3
3
3
3
3
3
3
3
3
3
3
3
3
3
3
3
3
3
3
3
3
3
3
3
3
3
3
3
3
3
3
POINT_DATA 212
FIELD FieldData 3
ADJOINT_DISPLACEMENT 3 212  float
0.0000000e+00 0.0000000e+00 0.0000000e+00 
-6.9105437e-05 0.0000000e+00 -3.5910817e-16 
-1.3928648e-04 0.0000000e+00 -7.1821634e-16 
-2.1161875e-04 0.0000000e+00 -1.0773245e-15 
-2.8717789e-04 0.0000000e+00 -1.4364327e-15 
-3.6703944e-04 0.0000000e+00 -1.7955409e-15 
-4.5227908e-04 0.0000000e+00 -2.1546490e-15 
-5.4397242e-04 0.0000000e+00 -2.5137573e-15 
-6.4319500e-04 0.0000000e+00 -2.8728653e-15 
-7.5102254e-04 0.0000000e+00 -3.2319736e-15 
-8.6853059e-04 0.0000000e+00 -3.5910817e-15 
-9.9679478e-04 0.0000000e+00 -3.9501898e-15 
-1.1368907e-03 0.0000000e+00 -4.3092979e-15 
-1.3026255e-03 0.0000000e+00 1.4621172e-08 
-1.5027759e-03 0.0000000e+00 2.9242347e-08 
-1.7308716e-03 0.0000000e+00 4.3863523e-08 
-1.9804426e-03 0.0000000e+00 5.8484698e-08 
-2.2450183e-03 0.0000000e+00 7.3105873e-08 
-2.5181286e-03 0.0000000e+00 8.7727052e-08 
-2.7933037e-03 0.0000000e+00 1.0234822e-07 
-3.0640732e-03 0.0000000e+00 1.1696940e-07 
-3.3239666e-03 0.0000000e+00 1.3159058e-07 
-3.5665142e-03 0.0000000e+00 1.4621176e-07 
-3.7852454e-03 0.0000000e+00 1.6083293e-07 
-3.9736903e-03 0.0000000e+00 1.7545410e-07 
-4.1698408e-03 0.0000000e+00 2.4856223e-07 
-4.4347625e-03 0.0000000e+00 3.2167037e-07 
-4.7965925e-03 0.0000000e+00 3.9477851e-07 
-5.2834703e-03 0.0000000e+00 4.6788665e-07 
-5.9235333e-03 0.0000000e+00 5.4099479e-07 
-6.7449203e-03 0.0000000e+00 6.1410293e-07 
-7.7757691e-03 0.0000000e+00 6.8721107e-07 
-9.0442188e-03 0.0000000e+00 7.6031921e-07 
-1.0578406e-02 0.0000000e+00 8.3342735e-07 
-1.2406471e-02 0.0000000e+00 9.0653549e-07 
-1.4556550e-02 0.0000000e+00 9.7964357e-07 
-1.7056784e-02 0.0000000e+00 1.0527517e-06 
-2.0172317e-02 0.0000000e+00 1.4036825e-06 
-2.4069155e-02 0.0000000e+00 1.7546133e-06 
-2.8626718e-02 0.0000000e+00 2.1055441e-06 
-3.3724431e-02 0.0000000e+00 2.4564749e-06 
-3.9241713e-02 0.0000000e+00 2.8074057e-06 
-4.5057993e-02 0.0000000e+00 3.1583365e-06 
-5.1052686e-02 0.0000000e+00 3.5092673e-06 
-5.7105221e-02 0.0000000e+00 3.8601984e-06 
-6.3095018e-02 0.0000000e+00 4.2111292e-06 
-6.8901502e-02 0.0000000e+00 4.5620600e-06 
-7.4404091e-02 0.0000000e+00 4.9129908e-06 
-7.9482213e-02 0.0000000e+00 5.2639216e-06 
-8.5040495e-02 0.0000000e+00 6.9455214e-06 
-9.2407584e-02 0.0000000e+00 8.6271211e-06 
-1.0209896e-01 0.0000000e+00 1.0308721e-05 
-1.1463010e-01 0.0000000e+00 1.1990322e-05 
-1.3051648e-01 0.0000000e+00 1.3671922e-05 
-1.5027356e-01 0.0000000e+00 1.5353522e-05 
-1.7441684e-01 0.0000000e+00 1.7035121e-05 
-2.0346177e-01 0.0000000e+00 1.8716722e-05 
-2.3792383e-01 0.0000000e+00 2.0398322e-05 
-2.7831849e-01 0.0000000e+00 2.2079923e-05 
-3.2516125e-01 0.0000000e+00 2.3761522e-05 
-3.7896752e-01 0.0000000e+00 2.5443122e-05 
-4.3304846e-01 0.0000000e+00 2.3849252e-05 
-4.8064089e-01 0.0000000e+00 2.2255381e-05 
-5.2214915e-01 0.0000000e+00 2.0661510e-05 
-5.5797750e-01 0.0000000e+00 1.9067640e-05 
-5.8853012e-01 0.0000000e+00 1.7473769e-05 
-6.1421144e-01 0.0000000e+00 1.5879898e-05 
-6.3542557e-01 0.0000000e+00 1.4286027e-05 
-6.5257686e-01 0.0000000e+00 1.2692156e-05 
-6.6606951e-01 0.0000000e+00 1.1098286e-05 
-6.7630786e-01 0.0000000e+00 9.5044152e-06 
-6.8369621e-01 0.0000000e+00 7.9105439e-06 
-6.8863869e-01 0.0000000e+00 6.3166731e-06 
-1.1367789e-03 0.0000000e+00 2.3941412e-04 
-3.9742030e-03 0.0000000e+00 1.9820804e-04 
-1.7054580e-02 0.0000000e+00 4.3732296e-03 
-7.9491645e-02 0.0000000e+00 6.2192483e-03 
-3.7896588e-01 0.0000000e+00 1.4309955e-01 
-6.8863273e-01 0.0000000e+00 3.9187078e-03 
-1.1366670e-03 0.0000000e+00 3.8269564e-04 
-3.9747162e-03 0.0000000e+00 1.4981022e-04 
-1.7052375e-02 0.0000000e+00 6.9509079e-03 
-7.9501070e-02 0.0000000e+00 6.5158950e-03 
-3.7896425e-01 0.0000000e+00 3.4012541e-01 
-6.8862671e-01 0.0000000e+00 1.3852784e-03 
-1.1365551e-03 0.0000000e+00 4.4562540e-04 
-3.9752293e-03 0.0000000e+00 -8.1892227e-05 
-1.7050169e-02 0.0000000e+00 8.0339452e-03 
-7.9510503e-02 0.0000000e+00 2.3314131e-03 
-3.7896258e-01 0.0000000e+00 5.8756781e-01 
-6.8862069e-01 0.0000000e+00 -5.8736862e-03 
-1.1364432e-03 0.0000000e+00 4.4398420e-04 
-3.9757425e-03 0.0000000e+00 -4.3377359e-04 
-1.7047966e-02 0.0000000e+00 7.9221986e-03 
-7.9519935e-02 0.0000000e+00 -4.8979884e-03 
-3.7896094e-01 0.0000000e+00 3.8189143e-01 
-6.8861473e-01 0.0000000e+00 -1.6137900e-02 
-1.1363315e-03 0.0000000e+00 3.9355291e-04 
-3.9762552e-03 0.0000000e+00 -8.4270810e-04 
-1.7045761e-02 0.0000000e+00 6.9155274e-03 
-7.9529360e-02 0.0000000e+00 -1.3736102e-02 
-3.7895930e-01 0.0000000e+00 2.1956107e-01 
-6.8860871e-01 0.0000000e+00 -2.7687078e-02 
-1.1362196e-03 0.0000000e+00 3.1011231e-04 
-3.9767683e-03 0.0000000e+00 -1.2455700e-03 
-1.7043557e-02 0.0000000e+00 5.3137871e-03 
-7.9538792e-02 0.0000000e+00 -2.2746716e-02 
-3.7895763e-01 0.0000000e+00 9.7041436e-02 
-6.8860275e-01 0.0000000e+00 -3.8800932e-02 
-1.1361077e-03 0.0000000e+00 2.0944326e-04 
-3.9772815e-03 0.0000000e+00 -1.5792336e-03 
-1.7041352e-02 0.0000000e+00 3.4168372e-03 
-7.9548217e-02 0.0000000e+00 -3.0493625e-02 
-3.7895599e-01 0.0000000e+00 1.0797272e-02 
-6.8859673e-01 0.0000000e+00 -4.7759183e-02 
-1.1359958e-03 0.0000000e+00 1.0732657e-04 
-3.9777947e-03 0.0000000e+00 -1.7805732e-03 
-1.7039146e-02 0.0000000e+00 1.5245341e-03 
-7.9557650e-02 0.0000000e+00 -3.5540618e-02 
-3.7895435e-01 0.0000000e+00 -4.2706672e-02 
-6.8859076e-01 0.0000000e+00 -5.2841537e-02 
-1.1358840e-03 0.0000000e+00 1.9543068e-05 
-3.9783074e-03 0.0000000e+00 -1.7864628e-03 
-1.7036943e-02 0.0000000e+00 -6.3264066e-05 
-7.9567075e-02 0.0000000e+00 -3.6451489e-02 
-3.7895268e-01 0.0000000e+00 -6.7005657e-02 
-6.8858474e-01 0.0000000e+00 -5.2327715e-02 
-1.1357721e-03 0.0000000e+00 -3.8126411e-05 
-3.9788205e-03 0.0000000e+00 -1.5337769e-03 
-1.7034737e-02 0.0000000e+00 -1.0466997e-03 
-7.9576507e-02 0.0000000e+00 -3.1790026e-02 
-3.7895104e-01 0.0000000e+00 -6.5634944e-02 
-6.8857878e-01 0.0000000e+00 -4.4497427e-02 
-1.1356602e-03 0.0000000e+00 -4.9901042e-05 
-3.9793337e-03 0.0000000e+00 -9.5938973e-04 
-1.7032534e-02 0.0000000e+00 -1.1259151e-03 
-7.9585932e-02 0.0000000e+00 -2.0120019e-02 
-3.7894940e-01 0.0000000e+00 -4.2129785e-02 
-6.8857276e-01 0.0000000e+00 -2.7630389e-02 
0.0000000e+00 0.0000000e+00 0.0000000e+00 
-1.2026449e-04 0.0000000e+00 3.5555447e-16 
-2.3945337e-04 0.0000000e+00 7.1110920e-16 
-3.5649101e-04 0.0000000e+00 1.0666641e-15 
-4.7030183e-04 0.0000000e+00 1.4222187e-15 
-5.7981018e-04 0.0000000e+00 1.7777735e-15 
-6.8394048e-04 0.0000000e+00 2.1333285e-15 
-7.8161707e-04 0.0000000e+00 2.4888835e-15 
-8.7176438e-04 0.0000000e+00 2.8444383e-15 
-9.5330679e-04 0.0000000e+00 3.1999929e-15 
-1.0251687e-03 0.0000000e+00 3.5555470e-15 
-1.0862744e-03 0.0000000e+00 3.9111014e-15 
-1.1355483e-03 0.0000000e+00 4.2666553e-15 
-1.1828548e-03 0.0000000e+00 -1.4621172e-08 
-1.2430880e-03 0.0000000e+00 -2.9242347e-08 
-1.3227185e-03 0.0000000e+00 -4.3863523e-08 
-1.4282162e-03 0.0000000e+00 -5.8484698e-08 
-1.5660515e-03 0.0000000e+00 -7.3105873e-08 
-1.7426946e-03 0.0000000e+00 -8.7727052e-08 
-1.9646157e-03 0.0000000e+00 -1.0234822e-07 
-2.2382848e-03 0.0000000e+00 -1.1696940e-07 
-2.5701723e-03 0.0000000e+00 -1.3159058e-07 
-2.9667483e-03 0.0000000e+00 -1.4621176e-07 
-3.4344830e-03 0.0000000e+00 -1.6083293e-07 
-3.9798468e-03 0.0000000e+00 -1.7545410e-07 
-4.6595354e-03 0.0000000e+00 -2.4856223e-07 
-5.5071735e-03 0.0000000e+00 -3.2167037e-07 
-6.4946217e-03 0.0000000e+00 -3.9477851e-07 
-7.5937430e-03 0.0000000e+00 -4.6788665e-07 
-8.7763984e-03 0.0000000e+00 -5.4099479e-07 
-1.0014449e-02 0.0000000e+00 -6.1410293e-07 
-1.1279759e-02 0.0000000e+00 -6.8721107e-07 
-1.2544187e-02 0.0000000e+00 -7.6031921e-07 
-1.3779596e-02 0.0000000e+00 -8.3342735e-07 
-1.4957849e-02 0.0000000e+00 -9.0653549e-07 
-1.6050806e-02 0.0000000e+00 -9.7964357e-07 
-1.7030329e-02 0.0000000e+00 -1.0527517e-06 
-1.8081058e-02 0.0000000e+00 -1.4036825e-06 
-1.9486776e-02 0.0000000e+00 -1.7546133e-06 
-2.1368060e-02 0.0000000e+00 -2.1055441e-06 
-2.3845490e-02 0.0000000e+00 -2.4564749e-06 
-2.7039638e-02 0.0000000e+00 -2.8074057e-06 
-3.1071085e-02 0.0000000e+00 -3.1583365e-06 
-3.6060408e-02 0.0000000e+00 -3.5092673e-06 
-4.2128187e-02 0.0000000e+00 -3.8601984e-06 
-4.9394991e-02 0.0000000e+00 -4.2111292e-06 
-5.7981405e-02 0.0000000e+00 -4.5620600e-06 
-6.8008006e-02 0.0000000e+00 -4.9129908e-06 
-7.9595365e-02 0.0000000e+00 -5.2639216e-06 
-9.3993172e-02 0.0000000e+00 -6.9455214e-06 
-1.1202709e-01 0.0000000e+00 -8.6271211e-06 
-1.3318163e-01 0.0000000e+00 -1.0308721e-05 
-1.5694134e-01 0.0000000e+00 -1.1990322e-05 
-1.8279073e-01 0.0000000e+00 -1.3671922e-05 
-2.1021432e-01 0.0000000e+00 -1.5353522e-05 
-2.3869665e-01 0.0000000e+00 -1.7035121e-05 
-2.6772225e-01 0.0000000e+00 -1.8716722e-05 
-2.9677564e-01 0.0000000e+00 -2.0398322e-05 
-3.2534131e-01 0.0000000e+00 -2.2079923e-05 
-3.5290384e-01 0.0000000e+00 -2.3761522e-05 
-3.7894776e-01 0.0000000e+00 -2.5443122e-05 
-4.0485907e-01 0.0000000e+00 -2.3849252e-05 
-4.3209797e-01 0.0000000e+00 -2.2255381e-05 
-4.6026024e-01 0.0000000e+00 -2.0661510e-05 
-4.8894158e-01 0.0000000e+00 -1.9067640e-05 
-5.1773769e-01 0.0000000e+00 -1.7473769e-05 
-5.4624438e-01 0.0000000e+00 -1.5879898e-05 
-5.7405734e-01 0.0000000e+00 -1.4286027e-05 
-6.0077226e-01 0.0000000e+00 -1.2692156e-05 
-6.2598497e-01 0.0000000e+00 -1.1098286e-05 
-6.4929110e-01 0.0000000e+00 -9.5044152e-06 
-6.7028648e-01 0.0000000e+00 -7.9105439e-06 
-6.8856680e-01 0.0000000e+00 -6.3166731e-06 
ADJOINT_ROTATION 3 212  float
0.0000000e+00 -2.7570466e-04 0.0000000e+00 
0.0000000e+00 -2.7785590e-04 0.0000000e+00 
0.0000000e+00 -2.8430959e-04 0.0000000e+00 
0.0000000e+00 -2.9506572e-04 0.0000000e+00 
0.0000000e+00 -3.1012431e-04 0.0000000e+00 
0.0000000e+00 -3.2948534e-04 0.0000000e+00 
0.0000000e+00 -3.5314885e-04 0.0000000e+00 
0.0000000e+00 -3.8111481e-04 0.0000000e+00 
0.0000000e+00 -4.1338321e-04 0.0000000e+00 
0.0000000e+00 -4.4995407e-04 0.0000000e+00 
0.0000000e+00 -4.9082737e-04 0.0000000e+00 
0.0000000e+00 -5.3600315e-04 0.0000000e+00 
0.0000000e+00 -5.8548141e-04 0.0000000e+00 
0.0000000e+00 -7.3608389e-04 0.0000000e+00 
0.0000000e+00 -8.6080557e-04 0.0000000e+00 
0.0000000e+00 -9.5964648e-04 0.0000000e+00 
0.0000000e+00 -1.0326066e-03 0.0000000e+00 
0.0000000e+00 -1.0796860e-03 0.0000000e+00 
0.0000000e+00 -1.1008845e-03 0.0000000e+00 
0.0000000e+00 -1.0962023e-03 0.0000000e+00 
0.0000000e+00 -1.0656393e-03 0.0000000e+00 
0.0000000e+00 -1.0091955e-03 0.0000000e+00 
0.0000000e+00 -9.2687091e-04 0.0000000e+00 
0.0000000e+00 -8.1866555e-04 0.0000000e+00 
0.0000000e+00 -6.8457937e-04 0.0000000e+00 
0.0000000e+00 -9.0338552e-04 0.0000000e+00 
0.0000000e+00 -1.2347448e-03 0.0000000e+00 
0.0000000e+00 -1.6786571e-03 0.0000000e+00 
0.0000000e+00 -2.2351225e-03 0.0000000e+00 
0.0000000e+00 -2.9041411e-03 0.0000000e+00 
0.0000000e+00 -3.6857126e-03 0.0000000e+00 
0.0000000e+00 -4.5798374e-03 0.0000000e+00 
0.0000000e+00 -5.5865152e-03 0.0000000e+00 
0.0000000e+00 -6.7057461e-03 0.0000000e+00 
0.0000000e+00 -7.9375301e-03 0.0000000e+00 
0.0000000e+00 -9.2818672e-03 0.0000000e+00 
0.0000000e+00 -1.0738757e-02 0.0000000e+00 
0.0000000e+00 -1.4105126e-02 0.0000000e+00 
0.0000000e+00 -1.6989185e-02 0.0000000e+00 
0.0000000e+00 -1.9390935e-02 0.0000000e+00 
0.0000000e+00 -2.1310376e-02 0.0000000e+00 
0.0000000e+00 -2.2747509e-02 0.0000000e+00 
0.0000000e+00 -2.3702333e-02 0.0000000e+00 
0.0000000e+00 -2.4174845e-02 0.0000000e+00 
0.0000000e+00 -2.4165051e-02 0.0000000e+00 
0.0000000e+00 -2.3672946e-02 0.0000000e+00 
0.0000000e+00 -2.2698533e-02 0.0000000e+00 
0.0000000e+00 -2.1241810e-02 0.0000000e+00 
0.0000000e+00 -1.9302778e-02 0.0000000e+00 
0.0000000e+00 -2.5507087e-02 0.0000000e+00 
0.0000000e+00 -3.3773292e-02 0.0000000e+00 
0.0000000e+00 -4.4101391e-02 0.0000000e+00 
0.0000000e+00 -5.6491386e-02 0.0000000e+00 
0.0000000e+00 -7.0943274e-02 0.0000000e+00 
0.0000000e+00 -8.7457061e-02 0.0000000e+00 
0.0000000e+00 -1.0603274e-01 0.0000000e+00 
0.0000000e+00 -1.2667033e-01 0.0000000e+00 
0.0000000e+00 -1.4936981e-01 0.0000000e+00 
0.0000000e+00 -1.7413117e-01 0.0000000e+00 
0.0000000e+00 -2.0095444e-01 0.0000000e+00 
0.0000000e+00 -2.2983961e-01 0.0000000e+00 
0.0000000e+00 -2.0307721e-01 0.0000000e+00 
0.0000000e+00 -1.7793190e-01 0.0000000e+00 
0.0000000e+00 -1.5440366e-01 0.0000000e+00 
0.0000000e+00 -1.3249247e-01 0.0000000e+00 
0.0000000e+00 -1.1219836e-01 0.0000000e+00 
0.0000000e+00 -9.3521312e-02 0.0000000e+00 
0.0000000e+00 -7.6461338e-02 0.0000000e+00 
0.0000000e+00 -6.1018426e-02 0.0000000e+00 
0.0000000e+00 -4.7192585e-02 0.0000000e+00 
0.0000000e+00 -3.4983806e-02 0.0000000e+00 
0.0000000e+00 -2.4392100e-02 0.0000000e+00 
0.0000000e+00 -1.5417460e-02 0.0000000e+00 
0.0000000e+00 -3.7743538e-04 0.0000000e+00 
0.0000000e+00 -1.2859286e-04 0.0000000e+00 
0.0000000e+00 -6.8499027e-03 0.0000000e+00 
0.0000000e+00 -6.0318951e-03 0.0000000e+00 
0.0000000e+00 -3.4127840e-01 0.0000000e+00 
0.0000000e+00 -8.0553326e-04 0.0000000e+00 
0.0000000e+00 -2.0095101e-04 0.0000000e+00 
0.0000000e+00 3.0114216e-04 0.0000000e+00 
0.0000000e+00 -3.5607629e-03 0.0000000e+00 
0.0000000e+00 4.3665711e-03 0.0000000e+00 
0.0000000e+00 -4.4564667e-01 0.0000000e+00 
0.0000000e+00 1.0365822e-02 0.0000000e+00 
0.0000000e+00 -5.6028290e-05 0.0000000e+00 
0.0000000e+00 6.0462573e-04 0.0000000e+00 
0.0000000e+00 -8.7133859e-04 0.0000000e+00 
0.0000000e+00 1.1892620e-02 0.0000000e+00 
0.0000000e+00 -5.4294443e-01 0.0000000e+00 
0.0000000e+00 1.8096607e-02 0.0000000e+00 
0.0000000e+00 5.7332771e-05 0.0000000e+00 
0.0000000e+00 7.8185776e-04 0.0000000e+00 
0.0000000e+00 1.2183704e-03 0.0000000e+00 
0.0000000e+00 1.6546251e-02 0.0000000e+00 
0.0000000e+00 3.6682832e-01 0.0000000e+00 
0.0000000e+00 2.2386819e-02 0.0000000e+00 
0.0000000e+00 1.3913217e-04 0.0000000e+00 
0.0000000e+00 8.3283836e-04 0.0000000e+00 
0.0000000e+00 2.7083643e-03 0.0000000e+00 
0.0000000e+00 1.8327463e-02 0.0000000e+00 
0.0000000e+00 2.8367159e-01 0.0000000e+00 
0.0000000e+00 2.3236463e-02 0.0000000e+00 
0.0000000e+00 1.8936992e-04 0.0000000e+00 
0.0000000e+00 7.5756741e-04 0.0000000e+00 
0.0000000e+00 3.5986428e-03 0.0000000e+00 
0.0000000e+00 1.7236261e-02 0.0000000e+00 
0.0000000e+00 2.0758538e-01 0.0000000e+00 
0.0000000e+00 2.0645533e-02 0.0000000e+00 
0.0000000e+00 2.0804603e-04 0.0000000e+00 
0.0000000e+00 5.5604504e-04 0.0000000e+00 
0.0000000e+00 3.8892059e-03 0.0000000e+00 
0.0000000e+00 1.3272638e-02 0.0000000e+00 
0.0000000e+00 1.3856968e-01 0.0000000e+00 
0.0000000e+00 1.4614033e-02 0.0000000e+00 
0.0000000e+00 1.9516046e-04 0.0000000e+00 
0.0000000e+00 2.2827111e-04 0.0000000e+00 
0.0000000e+00 3.5800538e-03 0.0000000e+00 
0.0000000e+00 6.4365990e-03 0.0000000e+00 
0.0000000e+00 7.6624505e-02 0.0000000e+00 
0.0000000e+00 5.1419609e-03 0.0000000e+00 
0.0000000e+00 1.5071325e-04 0.0000000e+00 
0.0000000e+00 -2.2575428e-04 0.0000000e+00 
0.0000000e+00 2.6711863e-03 0.0000000e+00 
0.0000000e+00 -3.2718577e-03 0.0000000e+00 
0.0000000e+00 2.1749850e-02 0.0000000e+00 
0.0000000e+00 -7.7706822e-03 0.0000000e+00 
0.0000000e+00 7.4704381e-05 0.0000000e+00 
0.0000000e+00 -8.0603117e-04 0.0000000e+00 
0.0000000e+00 1.1626036e-03 0.0000000e+00 
0.0000000e+00 -1.5852733e-02 0.0000000e+00 
0.0000000e+00 -2.6054293e-02 0.0000000e+00 
0.0000000e+00 -2.4123896e-02 0.0000000e+00 
0.0000000e+00 -3.2866137e-05 0.0000000e+00 
0.0000000e+00 -1.5125596e-03 0.0000000e+00 
0.0000000e+00 -9.4569440e-04 0.0000000e+00 
0.0000000e+00 -3.1306025e-02 0.0000000e+00 
0.0000000e+00 -6.6787913e-02 0.0000000e+00 
0.0000000e+00 -4.3917682e-02 0.0000000e+00 
0.0000000e+00 -4.8177503e-04 0.0000000e+00 
0.0000000e+00 -4.7962382e-04 0.0000000e+00 
0.0000000e+00 -4.7317013e-04 0.0000000e+00 
0.0000000e+00 -4.6241400e-04 0.0000000e+00 
0.0000000e+00 -4.4735541e-04 0.0000000e+00 
0.0000000e+00 -4.2799435e-04 0.0000000e+00 
0.0000000e+00 -4.0433084e-04 0.0000000e+00 
0.0000000e+00 -3.7636491e-04 0.0000000e+00 
0.0000000e+00 -3.4409648e-04 0.0000000e+00 
0.0000000e+00 -3.0752562e-04 0.0000000e+00 
0.0000000e+00 -2.6665232e-04 0.0000000e+00 
0.0000000e+00 -2.2147654e-04 0.0000000e+00 
0.0000000e+00 -1.7199831e-04 0.0000000e+00 
0.0000000e+00 -2.1076575e-04 0.0000000e+00 
0.0000000e+00 -2.7541397e-04 0.0000000e+00 
0.0000000e+00 -3.6594298e-04 0.0000000e+00 
0.0000000e+00 -4.8235277e-04 0.0000000e+00 
0.0000000e+00 -6.2464335e-04 0.0000000e+00 
0.0000000e+00 -7.9281471e-04 0.0000000e+00 
0.0000000e+00 -9.8686689e-04 0.0000000e+00 
0.0000000e+00 -1.2067998e-03 0.0000000e+00 
0.0000000e+00 -1.4526135e-03 0.0000000e+00 
0.0000000e+00 -1.7243080e-03 0.0000000e+00 
0.0000000e+00 -2.0218834e-03 0.0000000e+00 
0.0000000e+00 -2.3453394e-03 0.0000000e+00 
0.0000000e+00 -3.0734122e-03 0.0000000e+00 
0.0000000e+00 -3.6889317e-03 0.0000000e+00 
0.0000000e+00 -4.1918983e-03 0.0000000e+00 
0.0000000e+00 -4.5823115e-03 0.0000000e+00 
0.0000000e+00 -4.8601720e-03 0.0000000e+00 
0.0000000e+00 -5.0254795e-03 0.0000000e+00 
0.0000000e+00 -5.0782333e-03 0.0000000e+00 
0.0000000e+00 -5.0184345e-03 0.0000000e+00 
0.0000000e+00 -4.8460825e-03 0.0000000e+00 
0.0000000e+00 -4.5611775e-03 0.0000000e+00 
0.0000000e+00 -4.1637188e-03 0.0000000e+00 
0.0000000e+00 -3.6537077e-03 0.0000000e+00 
0.0000000e+00 -4.8325099e-03 0.0000000e+00 
0.0000000e+00 -6.4936210e-03 0.0000000e+00 
0.0000000e+00 -8.6370418e-03 0.0000000e+00 
0.0000000e+00 -1.1262771e-02 0.0000000e+00 
0.0000000e+00 -1.4370809e-02 0.0000000e+00 
0.0000000e+00 -1.7961157e-02 0.0000000e+00 
0.0000000e+00 -2.2033814e-02 0.0000000e+00 
0.0000000e+00 -2.6588779e-02 0.0000000e+00 
0.0000000e+00 -3.1626053e-02 0.0000000e+00 
0.0000000e+00 -3.7145637e-02 0.0000000e+00 
0.0000000e+00 -4.3147530e-02 0.0000000e+00 
0.0000000e+00 -4.9631733e-02 0.0000000e+00 
0.0000000e+00 -6.5207101e-02 0.0000000e+00 
0.0000000e+00 -7.8720577e-02 0.0000000e+00 
0.0000000e+00 -9.0172149e-02 0.0000000e+00 
0.0000000e+00 -9.9561833e-02 0.0000000e+00 
0.0000000e+00 -1.0688961e-01 0.0000000e+00 
0.0000000e+00 -1.1215550e-01 0.0000000e+00 
0.0000000e+00 -1.1535950e-01 0.0000000e+00 
0.0000000e+00 -1.1650159e-01 0.0000000e+00 
0.0000000e+00 -1.1558180e-01 0.0000000e+00 
0.0000000e+00 -1.1260010e-01 0.0000000e+00 
0.0000000e+00 -1.0755651e-01 0.0000000e+00 
0.0000000e+00 -1.0045102e-01 0.0000000e+00 
0.0000000e+00 -1.0656998e-01 0.0000000e+00 
0.0000000e+00 -1.1107187e-01 0.0000000e+00 