# vtk DataFile Version 4.0
vtk output
ASCII
DATASET UNSTRUCTURED_GRID
POINTS 30 float
0.0000000e+00 0.0000000e+00 0.0000000e+00 
0.0000000e+00 0.0000000e+00 8.0000001e-01 
0.0000000e+00 0.0000000e+00 1.6000000e+00 
0.0000000e+00 0.0000000e+00 2.4000001e+00 
0.0000000e+00 0.0000000e+00 3.2000000e+00 
0.0000000e+00 0.0000000e+00 4.0000000e+00 
0.0000000e+00 0.0000000e+00 4.8000002e+00 
0.0000000e+00 0.0000000e+00 5.5999999e+00 
0.0000000e+00 0.0000000e+00 6.4000001e+00 
0.0000000e+00 0.0000000e+00 7.1999998e+00 
0.0000000e+00 0.0000000e+00 8.0000000e+00 
1.0000000e+01 0.0000000e+00 0.0000000e+00 
1.0000000e+01 0.0000000e+00 8.0000001e-01 
1.0000000e+01 0.0000000e+00 1.6000000e+00 
1.0000000e+01 0.0000000e+00 2.4000001e+00 
1.0000000e+01 0.0000000e+00 3.2000000e+00 
1.0000000e+01 0.0000000e+00 4.0000000e+00 
1.0000000e+01 0.0000000e+00 4.8000002e+00 
1.0000000e+01 0.0000000e+00 5.5999999e+00 
1.0000000e+01 0.0000000e+00 6.4000001e+00 
1.0000000e+01 0.0000000e+00 7.1999998e+00 
1.0000000e+01 0.0000000e+00 8.0000000e+00 
2.0000000e+00 0.0000000e+00 4.0000000e+00 
4.0000000e+00 0.0000000e+00 4.0000000e+00 
6.0000000e+00 0.0000000e+00 4.0000000e+00 
8.0000000e+00 0.0000000e+00 4.0000000e+00 
2.0000000e+00 0.0000000e+00 8.0000000e+00 
4.0000000e+00 0.0000000e+00 8.0000000e+00 
6.0000000e+00 0.0000000e+00 8.0000000e+00 
8.0000000e+00 0.0000000e+00 8.0000000e+00 

CELLS 30 90
2 0 1
2 1 2
2 2 3
2 3 4
2 4 5
2 5 6
2 6 7
2 7 8
2 8 9
2 9 10
2 11 12
2 12 13
2 13 14
2 14 15
2 15 16
2 16 17
2 17 18
2 18 19
2 19 20
2 20 21
2 5 22
2 22 23
2 23 24
2 24 25
2 25 16
2 10 26
2 26 27
2 27 28
2 28 29
2 29 21

CELL_TYPES 30
3
3
3
3
3
3
3
3
3
3
3
3
3
3
3
3
3
3
3
3
3
3
3
3
3
3
3
3
3
3
POINT_DATA 30
FIELD FieldData 7
DISPLACEMENT 3 30  float
0.0000000e+00 0.0000000e+00 0.0000000e+00 
5.4844739e-03 0.0000000e+00 7.1198128e-06 
1.0835579e-02 0.0000000e+00 1.3378248e-05 
1.5831813e-02 0.0000000e+00 1.9636684e-05 
2.0213008e-02 0.0000000e+00 2.3459275e-05 
2.3651740e-02 0.0000000e+00 2.4303914e-05 
2.6329307e-02 0.0000000e+00 2.2755279e-05 
2.8549479e-02 0.0000000e+00 2.0631685e-05 
3.0211249e-02 0.0000000e+00 1.5502013e-05 
3.1336974e-02 0.0000000e+00 1.3925044e-05 
3.2064956e-02 0.0000000e+00 1.5713042e-05 
0.0000000e+00 0.0000000e+00 0.0000000e+00 
6.0696704e-03 0.0000000e+00 -1.3470006e-05 
1.1766225e-02 0.0000000e+00 -2.7539689e-05 
1.6776824e-02 0.0000000e+00 -4.1609372e-05 
2.0824546e-02 0.0000000e+00 -5.3979733e-05 
2.3715861e-02 0.0000000e+00 -6.6350098e-05 
2.5992028e-02 0.0000000e+00 -7.1429822e-05 
2.8121056e-02 0.0000000e+00 -7.3425690e-05 
2.9901758e-02 0.0000000e+00 -7.4350377e-05 
3.1209845e-02 0.0000000e+00 -7.8015619e-05 
3.2026287e-02 0.0000000e+00 -8.1680861e-05 
2.3661563e-02 0.0000000e+00 -4.2454121e-03 
2.3671387e-02 0.0000000e+00 -3.8582203e-03 
2.3688339e-02 0.0000000e+00 -7.4743177e-04 
2.3705289e-02 0.0000000e+00 1.8024629e-03 
3.2056440e-02 0.0000000e+00 -8.5326302e-04 
3.2051228e-02 0.0000000e+00 -1.1087874e-03 
3.2036956e-02 0.0000000e+00 -7.1893167e-04 
3.2031622e-02 0.0000000e+00 1.5199676e-04 
ROTATION 3 30  float
0.0000000e+00 6.8787872e-03 0.0000000e+00 
0.0000000e+00 6.8092020e-03 0.0000000e+00 
0.0000000e+00 6.5178238e-03 0.0000000e+00 
0.0000000e+00 5.9220283e-03 0.0000000e+00 
0.0000000e+00 4.9594222e-03 0.0000000e+00 
0.0000000e+00 3.5650039e-03 0.0000000e+00 
0.0000000e+00 3.0914408e-03 0.0000000e+00 
0.0000000e+00 2.4357601e-03 0.0000000e+00 
0.0000000e+00 1.7228060e-03 0.0000000e+00 
0.0000000e+00 1.1261198e-03 0.0000000e+00 
0.0000000e+00 7.2411430e-04 0.0000000e+00 
0.0000000e+00 7.6679597e-03 0.0000000e+00 
0.0000000e+00 7.4253445e-03 0.0000000e+00 
0.0000000e+00 6.7540067e-03 0.0000000e+00 
0.0000000e+00 5.7104551e-03 0.0000000e+00 
0.0000000e+00 4.3728729e-03 0.0000000e+00 
0.0000000e+00 2.8194434e-03 0.0000000e+00 
0.0000000e+00 2.8055497e-03 0.0000000e+00 
0.0000000e+00 2.4778340e-03 0.0000000e+00 
0.0000000e+00 1.9446012e-03 0.0000000e+00 
0.0000000e+00 1.3267259e-03 0.0000000e+00 
0.0000000e+00 7.1548828e-04 0.0000000e+00 
0.0000000e+00 8.3767145e-04 0.0000000e+00 
0.0000000e+00 -1.0919034e-03 0.0000000e+00 
0.0000000e+00 -1.7170280e-03 0.0000000e+00 
0.0000000e+00 -5.3100946e-04 0.0000000e+00 
0.0000000e+00 2.4419496e-04 0.0000000e+00 
0.0000000e+00 -1.4143571e-05 0.0000000e+00 
0.0000000e+00 -3.8911772e-04 0.0000000e+00 
0.0000000e+00 -3.2056170e-04 0.0000000e+00 
REACTION 3 30  float
-6.8497778e+03 -0.0000000e+00 -1.8689508e+04 
4.9476512e-10 -0.0000000e+00 3.6379788e-12 
-0.0000000e+00 -0.0000000e+00 -0.0000000e+00 
-3.0922820e-09 -0.0000000e+00 -1.0913936e-11 
6.8394002e-10 -0.0000000e+00 -3.6379788e-12 
-1.4668331e-08 -0.0000000e+00 -1.0986696e-09 
5.2750693e-10 -0.0000000e+00 -9.5860742e-10 
4.5838533e-10 -0.0000000e+00 8.7311491e-11 
1.0255462e-08 -0.0000000e+00 5.0931703e-11 
-1.0495569e-09 -0.0000000e+00 -0.0000000e+00 
1.9499566e-09 -0.0000000e+00 -5.4569682e-11 
-2.3882436e+04 -0.0000000e+00 3.5358766e+04 
2.2191671e-10 -0.0000000e+00 6.5483619e-11 
3.2596290e-09 -0.0000000e+00 -1.4551915e-11 
-7.0394890e-10 -0.0000000e+00 1.4551915e-10 
-3.0267984e-09 -0.0000000e+00 -4.8021320e-10 
-8.4237399e-09 -0.0000000e+00 -5.9517333e-09 
3.1723175e-09 -0.0000000e+00 1.2732926e-11 
1.2551027e-10 -0.0000000e+00 4.2746251e-11 
-1.6370905e-10 -0.0000000e+00 -3.5979610e-09 
-1.1059456e-09 -0.0000000e+00 -0.0000000e+00 
2.5465852e-09 -0.0000000e+00 1.8462742e-10 
-0.0000000e+00 -0.0000000e+00 3.1795935e-09 
5.5952114e-09 -0.0000000e+00 -4.9840310e-10 
-0.0000000e+00 -0.0000000e+00 3.9653969e-09 
9.7861630e-09 -0.0000000e+00 1.2369128e-10 
6.8785084e-09 -0.0000000e+00 4.5474735e-11 
-1.3904355e-08 -0.0000000e+00 -1.5461410e-11 
7.9508027e-09 -0.0000000e+00 2.1082087e-09 
-7.4505806e-09 -0.0000000e+00 1.2732926e-11 
REACTION_MOMENT 3 30  float
-0.0000000e+00 -2.3283064e-10 -0.0000000e+00 
-0.0000000e+00 -4.0745363e-10 -0.0000000e+00 
-0.0000000e+00 1.4551915e-09 -0.0000000e+00 
-0.0000000e+00 -2.0372681e-09 -0.0000000e+00 
-0.0000000e+00 7.3923729e-09 -0.0000000e+00 
-0.0000000e+00 1.9499566e-09 -0.0000000e+00 
-0.0000000e+00 -3.3178367e-09 -0.0000000e+00 
-0.0000000e+00 -1.5716068e-09 -0.0000000e+00 
-0.0000000e+00 -6.6356733e-09 -0.0000000e+00 
-0.0000000e+00 -3.1723175e-09 -0.0000000e+00 
-0.0000000e+00 -6.9849193e-10 -0.0000000e+00 
-0.0000000e+00 -1.1641532e-10 -0.0000000e+00 
-0.0000000e+00 -1.1641532e-10 -0.0000000e+00 
-0.0000000e+00 -2.9103830e-10 -0.0000000e+00 
-0.0000000e+00 -1.6298145e-09 -0.0000000e+00 
-0.0000000e+00 1.4551915e-10 -0.0000000e+00 
-0.0000000e+00 9.3132257e-10 -0.0000000e+00 
-0.0000000e+00 -5.8207661e-11 -0.0000000e+00 
-0.0000000e+00 4.7148205e-09 -0.0000000e+00 
-0.0000000e+00 -7.4214768e-10 -0.0000000e+00 
-0.0000000e+00 1.6589183e-09 -0.0000000e+00 
-0.0000000e+00 -6.0754246e-10 -0.0000000e+00 
-0.0000000e+00 -7.2031980e-10 -0.0000000e+00 
-0.0000000e+00 -5.1659299e-10 -0.0000000e+00 
-0.0000000e+00 -1.7098500e-10 -0.0000000e+00 
-0.0000000e+00 6.5483619e-11 -0.0000000e+00 
-0.0000000e+00 4.4110493e-11 -0.0000000e+00 
-0.0000000e+00 -9.0949470e-13 -0.0000000e+00 
-0.0000000e+00 1.0913936e-11 -0.0000000e+00 
-0.0000000e+00 7.2759576e-12 -0.0000000e+00 
VOLUME_ACCELERATION 3 30  float
0.0000000e+00 0.0000000e+00 0.0000000e+00 
0.0000000e+00 0.0000000e+00 0.0000000e+00 
0.0000000e+00 0.0000000e+00 0.0000000e+00 
0.0000000e+00 0.0000000e+00 0.0000000e+00 
0.0000000e+00 0.0000000e+00 0.0000000e+00 
0.0000000e+00 0.0000000e+00 0.0000000e+00 
0.0000000e+00 0.0000000e+00 0.0000000e+00 
0.0000000e+00 0.0000000e+00 0.0000000e+00 
0.0000000e+00 0.0000000e+00 0.0000000e+00 
0.0000000e+00 0.0000000e+00 0.0000000e+00 
0.0000000e+00 0.0000000e+00 0.0000000e+00 
0.0000000e+00 0.0000000e+00 0.0000000e+00 
0.0000000e+00 0.0000000e+00 0.0000000e+00 
0.0000000e+00 0.0000000e+00 0.0000000e+00 
0.0000000e+00 0.0000000e+00 0.0000000e+00 
0.0000000e+00 0.0000000e+00 0.0000000e+00 
0.0000000e+00 0.0000000e+00 0.0000000e+00 
0.0000000e+00 0.0000000e+00 0.0000000e+00 
0.0000000e+00 0.0000000e+00 0.0000000e+00 
0.0000000e+00 0.0000000e+00 0.0000000e+00 
0.0000000e+00 0.0000000e+00 0.0000000e+00 
0.0000000e+00 0.0000000e+00 0.0000000e+00 
0.0000000e+00 0.0000000e+00 0.0000000e+00 
0.0000000e+00 0.0000000e+00 0.0000000e+00 
0.0000000e+00 0.0000000e+00 0.0000000e+00 
0.0000000e+00 0.0000000e+00 0.0000000e+00 
0.0000000e+00 0.0000000e+00 0.0000000e+00 
0.0000000e+00 0.0000000e+00 0.0000000e+00 
0.0000000e+00 0.0000000e+00 0.0000000e+00 
0.0000000e+00 0.0000000e+00 0.0000000e+00 
POINT_LOAD 3 30  float
0.0000000e+00 0.0000000e+00 0.0000000e+00 
-8.1332402e+03 0.0000000e+00 2.2611162e+03 
0.0000000e+00 0.0000000e+00 0.0000000e+00 
-6.1419014e+03 0.0000000e+00 6.3940894e+03 
-2.5666229e+02 0.0000000e+00 7.8171255e+03 
0.0000000e+00 0.0000000e+00 0.0000000e+00 
4.2054131e+03 0.0000000e+00 1.5092737e+03 
8.0839536e+03 0.0000000e+00 7.8909482e+03 
8.9989912e+03 0.0000000e+00 -9.3258389e+03 
-1.2801989e+03 0.0000000e+00 -8.8330420e+03 
0.0000000e+00 0.0000000e+00 0.0000000e+00 
0.0000000e+00 0.0000000e+00 0.0000000e+00 
5.5625215e+03 0.0000000e+00 1.5741536e+03 
0.0000000e+00 0.0000000e+00 0.0000000e+00 
7.6961753e+03 0.0000000e+00 -4.4607227e+03 
0.0000000e+00 0.0000000e+00 0.0000000e+00 
2.4058738e+03 0.0000000e+00 6.8918304e+02 
7.7481157e+03 0.0000000e+00 -8.0951470e+03 
2.9131665e+03 0.0000000e+00 -2.8118398e+03 
8.9854023e+03 0.0000000e+00 7.1939585e+03 
0.0000000e+00 0.0000000e+00 0.0000000e+00 
-5.9265503e+03 0.0000000e+00 -2.0022477e+03 
0.0000000e+00 0.0000000e+00 0.0000000e+00 
-7.4825981e+03 0.0000000e+00 -7.9804106e+03 
0.0000000e+00 0.0000000e+00 0.0000000e+00 
6.6957471e+03 0.0000000e+00 -5.5643374e+03 
-3.4686963e+03 0.0000000e+00 5.8970918e+03 
9.5127812e+03 0.0000000e+00 -5.7018292e+02 
-9.3860820e+03 0.0000000e+00 -8.2524287e+03 
0.0000000e+00 0.0000000e+00 0.0000000e+00 
POINT_MOMENT 3 30  float
0.0000000e+00 0.0000000e+00 0.0000000e+00 
0.0000000e+00 0.0000000e+00 0.0000000e+00 
0.0000000e+00 0.0000000e+00 0.0000000e+00 
0.0000000e+00 0.0000000e+00 0.0000000e+00 
0.0000000e+00 0.0000000e+00 0.0000000e+00 
0.0000000e+00 0.0000000e+00 0.0000000e+00 
0.0000000e+00 0.0000000e+00 0.0000000e+00 
0.0000000e+00 0.0000000e+00 0.0000000e+00 
0.0000000e+00 0.0000000e+00 0.0000000e+00 
0.0000000e+00 0.0000000e+00 0.0000000e+00 
0.0000000e+00 0.0000000e+00 0.0000000e+00 
0.0000000e+00 0.0000000e+00 0.0000000e+00 
0.0000000e+00 0.0000000e+00 0.0000000e+00 
0.0000000e+00 0.0000000e+00 0.0000000e+00 
0.0000000e+00 0.0000000e+00 0.0000000e+00 
0.0000000e+00 0.0000000e+00 0.0000000e+00 
0.0000000e+00 0.0000000e+00 0.0000000e+00 
0.0000000e+00 0.0000000e+00 0.0000000e+00 
0.0000000e+00 0.0000000e+00 0.0000000e+00 
0.0000000e+00 0.0000000e+00 0.0000000e+00 
0.0000000e+00 0.0000000e+00 0.0000000e+00 
0.0000000e+00 0.0000000e+00 0.0000000e+00 
0.0000000e+00 0.0000000e+00 0.0000000e+00 
0.0000000e+00 0.0000000e+00 0.0000000e+00 
0.0000000e+00 0.0000000e+00 0.0000000e+00 
0.0000000e+00 0.0000000e+00 0.0000000e+00 
0.0000000e+00 0.0000000e+00 0.0000000e+00 
0.0000000e+00 0.0000000e+00 0.0000000e+00 
0.0000000e+00 0.0000000e+00 0.0000000e+00 
0.0000000e+00 0.0000000e+00 0.0000000e+00 
CELL_DATA 30
FIELD FieldData 9
YOUNG_MODULUS 1 30  float
2.1000000e+11
2.1000000e+11
2.1000000e+11
2.1000000e+11
2.1000000e+11
2.1000000e+11
2.1000000e+11
2.1000000e+11
2.1000000e+11
2.1000000e+11
2.1000000e+11
2.1000000e+11
2.1000000e+11
2.1000000e+11
2.1000000e+11
2.1000000e+11
2.1000000e+11
2.1000000e+11
2.1000000e+11
2.1000000e+11
2.1000000e+11
2.1000000e+11
2.1000000e+11
2.1000000e+11
2.1000000e+11
2.1000000e+11
2.1000000e+11
2.1000000e+11
2.1000000e+11
2.1000000e+11
DENSITY 1 30  float
7.8500000e+03
7.8500000e+03
7.8500000e+03
7.8500000e+03
7.8500000e+03
7.8500000e+03
7.8500000e+03
7.8500000e+03
7.8500000e+03
7.8500000e+03
7.8500000e+03
7.8500000e+03
7.8500000e+03
7.8500000e+03
7.8500000e+03
7.8500000e+03
7.8500000e+03
7.8500000e+03
7.8500000e+03
7.8500000e+03
7.8500000e+03
7.8500000e+03
7.8500000e+03
7.8500000e+03
7.8500000e+03
7.8500000e+03
7.8500000e+03
7.8500000e+03
7.8500000e+03
7.8500000e+03
CROSS_AREA 1 30  float
9.9999998e-03
9.9999998e-03
9.9999998e-03
9.9999998e-03
9.9999998e-03
9.9999998e-03
9.9999998e-03
9.9999998e-03
9.9999998e-03
9.9999998e-03
9.9999998e-03
9.9999998e-03
9.9999998e-03
9.9999998e-03
9.9999998e-03
9.9999998e-03
9.9999998e-03
9.9999998e-03
9.9999998e-03
9.9999998e-03
9.9999998e-03
9.9999998e-03
9.9999998e-03
9.9999998e-03
9.9999998e-03
9.9999998e-03
9.9999998e-03
9.9999998e-03
9.9999998e-03
9.9999998e-03
I22 1 30  float
1.5000001e-04
1.5000001e-04
1.5000001e-04
1.5000001e-04
1.5000001e-04
1.5000001e-04
1.5000001e-04
1.5000001e-04
1.5000001e-04
1.5000001e-04
1.5000001e-04
1.5000001e-04
1.5000001e-04
1.5000001e-04
1.5000001e-04
1.5000001e-04
1.5000001e-04
1.5000001e-04
1.5000001e-04
1.5000001e-04
1.5000001e-04
1.5000001e-04
1.5000001e-04
1.5000001e-04
1.5000001e-04
1.5000001e-04
1.5000001e-04
1.5000001e-04
1.5000001e-04
1.5000001e-04
I33 1 30  float
1.5000001e-04
1.5000001e-04
1.5000001e-04
1.5000001e-04
1.5000001e-04
1.5000001e-04
1.5000001e-04
1.5000001e-04
1.5000001e-04
1.5000001e-04
1.5000001e-04
1.5000001e-04
1.5000001e-04
1.5000001e-04
1.5000001e-04
1.5000001e-04
1.5000001e-04
1.5000001e-04
1.5000001e-04
1.5000001e-04
1.5000001e-04
1.5000001e-04
1.5000001e-04
1.5000001e-04
1.5000001e-04
1.5000001e-04
1.5000001e-04
1.5000001e-04
1.5000001e-04
1.5000001e-04
TORSIONAL_INERTIA 1 30  float
3.0000001e-04
3.0000001e-04
3.0000001e-04
3.0000001e-04
3.0000001e-04
3.0000001e-04
3.0000001e-04
3.0000001e-04
3.0000001e-04
3.0000001e-04
3.0000001e-04
3.0000001e-04
3.0000001e-04
3.0000001e-04
3.0000001e-04
3.0000001e-04
3.0000001e-04
3.0000001e-04
3.0000001e-04
3.0000001e-04
3.0000001e-04
3.0000001e-04
3.0000001e-04
3.0000001e-04
3.0000001e-04
3.0000001e-04
3.0000001e-04
3.0000001e-04
3.0000001e-04
3.0000001e-04
POISSON_RATIO 1 30  float
3.0000001e-01
3.0000001e-01
3.0000001e-01
3.0000001e-01
3.0000001e-01
3.0000001e-01
3.0000001e-01
3.0000001e-01
3.0000001e-01
3.0000001e-01
3.0000001e-01
3.0000001e-01
3.0000001e-01
3.0000001e-01
3.0000001e-01
3.0000001e-01
3.0000001e-01
3.0000001e-01
3.0000001e-01
3.0000001e-01
3.0000001e-01
3.0000001e-01
3.0000001e-01
3.0000001e-01
3.0000001e-01
3.0000001e-01
3.0000001e-01
3.0000001e-01
3.0000001e-01
3.0000001e-01
MOMENT 3 30  float
0.0000000e+00 -2.7399111e+03 0.0000000e+00 
0.0000000e+00 -1.1473029e+04 0.0000000e+00 
0.0000000e+00 -2.3459443e+04 0.0000000e+00 
0.0000000e+00 -3.7902617e+04 0.0000000e+00 
0.0000000e+00 -5.4905219e+04 0.0000000e+00 
0.0000000e+00 -1.8646547e+04 0.0000000e+00 
0.0000000e+00 -2.5817430e+04 0.0000000e+00 
0.0000000e+00 -2.8072564e+04 0.0000000e+00 
0.0000000e+00 -2.3494523e+04 0.0000000e+00 
0.0000000e+00 -1.5828964e+04 0.0000000e+00 
0.0000000e+00 -9.5529736e+03 0.0000000e+00 
0.0000000e+00 -2.6433912e+04 0.0000000e+00 
0.0000000e+00 -4.1089844e+04 0.0000000e+00 
0.0000000e+00 -5.2667305e+04 0.0000000e+00 
0.0000000e+00 -6.1166293e+04 0.0000000e+00 
0.0000000e+00 -5.4706360e+02 0.0000000e+00 
0.0000000e+00 -1.2903807e+04 0.0000000e+00 
0.0000000e+00 -2.0996037e+04 0.0000000e+00 
0.0000000e+00 -2.4328840e+04 0.0000000e+00 
0.0000000e+00 -2.4067480e+04 0.0000000e+00 
0.0000000e+00 -4.2955484e+04 0.0000000e+00 
0.0000000e+00 -3.0390805e+04 0.0000000e+00 
0.0000000e+00 -9.8457119e+03 0.0000000e+00 
0.0000000e+00 1.8679791e+04 0.0000000e+00 
0.0000000e+00 5.2769633e+04 0.0000000e+00 
0.0000000e+00 -7.5587295e+03 0.0000000e+00 
0.0000000e+00 -4.0688320e+03 0.0000000e+00 
0.0000000e+00 -5.9058428e+03 0.0000000e+00 
0.0000000e+00 1.0797577e+03 0.0000000e+00 
0.0000000e+00 1.6317787e+04 0.0000000e+00 
FORCE 3 30  float
1.8689508e+04 0.0000000e+00 -6.8497778e+03 
1.6428393e+04 0.0000000e+00 -1.4983018e+04 
1.6428393e+04 0.0000000e+00 -1.4983018e+04 
1.0034303e+04 0.0000000e+00 -2.1124918e+04 
2.2171772e+03 0.0000000e+00 -2.1381582e+04 
-4.0651636e+03 0.0000000e+00 -1.1066310e+04 
-5.5744375e+03 0.0000000e+00 -6.8608965e+03 
-1.3465386e+04 0.0000000e+00 1.2230573e+03 
-4.1395469e+03 0.0000000e+00 1.0222048e+04 
4.6934946e+03 0.0000000e+00 8.9418496e+03 
-3.5358766e+04 0.0000000e+00 -2.3882436e+04 
-3.6932918e+04 0.0000000e+00 -1.8319912e+04 
-3.6932918e+04 0.0000000e+00 -1.8319912e+04 
-3.2472197e+04 0.0000000e+00 -1.0623737e+04 
-3.2472197e+04 0.0000000e+00 -1.0623737e+04 
-1.3334291e+04 0.0000000e+00 -1.9319986e+04 
-5.2391440e+03 0.0000000e+00 -1.1571871e+04 
-2.4273042e+03 0.0000000e+00 -8.6587051e+03 
-9.6212627e+03 0.0000000e+00 3.2669812e+02 
-9.6212627e+03 0.0000000e+00 3.2669812e+02 
1.0315271e+04 0.0000000e+00 6.2823408e+03 
1.0315271e+04 0.0000000e+00 6.2823408e+03 
1.7797869e+04 0.0000000e+00 1.4262751e+04 
1.7797869e+04 0.0000000e+00 1.4262751e+04 
1.1102123e+04 0.0000000e+00 1.9827088e+04 
-8.9418496e+03 0.0000000e+00 4.6934946e+03 
-5.4731528e+03 0.0000000e+00 -1.2035970e+03 
-1.4985934e+04 0.0000000e+00 -6.3341406e+02 
-5.5998521e+03 0.0000000e+00 7.6190146e+03 
-5.5998521e+03 0.0000000e+00 7.6190146e+03 
