# vtk DataFile Version 4.0
vtk output
ASCII
DATASET UNSTRUCTURED_GRID
POINTS 212 float
0.0000000e+00 0.0000000e+00 0.0000000e+00 
0.0000000e+00 0.0000000e+00 2.5000000e-01 
0.0000000e+00 0.0000000e+00 5.0000000e-01 
0.0000000e+00 0.0000000e+00 7.5000000e-01 
0.0000000e+00 0.0000000e+00 1.0000000e+00 
0.0000000e+00 0.0000000e+00 1.2500000e+00 
0.0000000e+00 0.0000000e+00 1.5000000e+00 
0.0000000e+00 0.0000000e+00 1.7500000e+00 
0.0000000e+00 0.0000000e+00 2.0000000e+00 
0.0000000e+00 0.0000000e+00 2.2500000e+00 
0.0000000e+00 0.0000000e+00 2.5000000e+00 
0.0000000e+00 0.0000000e+00 2.7500000e+00 
0.0000000e+00 0.0000000e+00 3.0000000e+00 
0.0000000e+00 0.0000000e+00 3.2500000e+00 
0.0000000e+00 0.0000000e+00 3.5000000e+00 
0.0000000e+00 0.0000000e+00 3.7500000e+00 
0.0000000e+00 0.0000000e+00 4.0000000e+00 
0.0000000e+00 0.0000000e+00 4.2500000e+00 
0.0000000e+00 0.0000000e+00 4.5000000e+00 
0.0000000e+00 0.0000000e+00 4.7500000e+00 
0.0000000e+00 0.0000000e+00 5.0000000e+00 
0.0000000e+00 0.0000000e+00 5.2500000e+00 
0.0000000e+00 0.0000000e+00 5.5000000e+00 
0.0000000e+00 0.0000000e+00 5.7500000e+00 
0.0000000e+00 0.0000000e+00 6.0000000e+00 
0.0000000e+00 0.0000000e+00 6.2500000e+00 
0.0000000e+00 0.0000000e+00 6.5000000e+00 
0.0000000e+00 0.0000000e+00 6.7500000e+00 
0.0000000e+00 0.0000000e+00 7.0000000e+00 
0.0000000e+00 0.0000000e+00 7.2500000e+00 
0.0000000e+00 0.0000000e+00 7.5000000e+00 
0.0000000e+00 0.0000000e+00 7.7500000e+00 
0.0000000e+00 0.0000000e+00 8.0000000e+00 
0.0000000e+00 0.0000000e+00 8.2500000e+00 
0.0000000e+00 0.0000000e+00 8.5000000e+00 
0.0000000e+00 0.0000000e+00 8.7500000e+00 
0.0000000e+00 0.0000000e+00 9.0000000e+00 
0.0000000e+00 0.0000000e+00 9.2500000e+00 
0.0000000e+00 0.0000000e+00 9.5000000e+00 
0.0000000e+00 0.0000000e+00 9.7500000e+00 
0.0000000e+00 0.0000000e+00 1.0000000e+01 
0.0000000e+00 0.0000000e+00 1.0250000e+01 
0.0000000e+00 0.0000000e+00 1.0500000e+01 
0.0000000e+00 0.0000000e+00 1.0750000e+01 
0.0000000e+00 0.0000000e+00 1.1000000e+01 
0.0000000e+00 0.0000000e+00 1.1250000e+01 
0.0000000e+00 0.0000000e+00 1.1500000e+01 
0.0000000e+00 0.0000000e+00 1.1750000e+01 
0.0000000e+00 0.0000000e+00 1.2000000e+01 
0.0000000e+00 0.0000000e+00 1.2250000e+01 
0.0000000e+00 0.0000000e+00 1.2500000e+01 
0.0000000e+00 0.0000000e+00 1.2750000e+01 
0.0000000e+00 0.0000000e+00 1.3000000e+01 
0.0000000e+00 0.0000000e+00 1.3250000e+01 
0.0000000e+00 0.0000000e+00 1.3500000e+01 
0.0000000e+00 0.0000000e+00 1.3750000e+01 
0.0000000e+00 0.0000000e+00 1.4000000e+01 
0.0000000e+00 0.0000000e+00 1.4250000e+01 
0.0000000e+00 0.0000000e+00 1.4500000e+01 
0.0000000e+00 0.0000000e+00 1.4750000e+01 
0.0000000e+00 0.0000000e+00 1.5000000e+01 
0.0000000e+00 0.0000000e+00 1.5250000e+01 
0.0000000e+00 0.0000000e+00 1.5500000e+01 
0.0000000e+00 0.0000000e+00 1.5750000e+01 
0.0000000e+00 0.0000000e+00 1.6000000e+01 
0.0000000e+00 0.0000000e+00 1.6250000e+01 
0.0000000e+00 0.0000000e+00 1.6500000e+01 
0.0000000e+00 0.0000000e+00 1.6750000e+01 
0.0000000e+00 0.0000000e+00 1.7000000e+01 
0.0000000e+00 0.0000000e+00 1.7250000e+01 
0.0000000e+00 0.0000000e+00 1.7500000e+01 
0.0000000e+00 0.0000000e+00 1.7750000e+01 
0.0000000e+00 0.0000000e+00 1.8000000e+01 
5.0000000e-01 0.0000000e+00 3.0000000e+00 
5.0000000e-01 0.0000000e+00 6.0000000e+00 
5.0000000e-01 0.0000000e+00 9.0000000e+00 
5.0000000e-01 0.0000000e+00 1.2000000e+01 
5.0000000e-01 0.0000000e+00 1.5000000e+01 
5.0000000e-01 0.0000000e+00 1.8000000e+01 
1.0000000e+00 0.0000000e+00 3.0000000e+00 
1.0000000e+00 0.0000000e+00 6.0000000e+00 
1.0000000e+00 0.0000000e+00 9.0000000e+00 
1.0000000e+00 0.0000000e+00 1.2000000e+01 
1.0000000e+00 0.0000000e+00 1.5000000e+01 
1.0000000e+00 0.0000000e+00 1.8000000e+01 
1.5000000e+00 0.0000000e+00 3.0000000e+00 
1.5000000e+00 0.0000000e+00 6.0000000e+00 
1.5000000e+00 0.0000000e+00 9.0000000e+00 
1.5000000e+00 0.0000000e+00 1.2000000e+01 
1.5000000e+00 0.0000000e+00 1.5000000e+01 
1.5000000e+00 0.0000000e+00 1.8000000e+01 
2.0000000e+00 0.0000000e+00 3.0000000e+00 
2.0000000e+00 0.0000000e+00 6.0000000e+00 
2.0000000e+00 0.0000000e+00 9.0000000e+00 
2.0000000e+00 0.0000000e+00 1.2000000e+01 
2.0000000e+00 0.0000000e+00 1.5000000e+01 
2.0000000e+00 0.0000000e+00 1.8000000e+01 
2.5000000e+00 0.0000000e+00 3.0000000e+00 
2.5000000e+00 0.0000000e+00 6.0000000e+00 
2.5000000e+00 0.0000000e+00 9.0000000e+00 
2.5000000e+00 0.0000000e+00 1.2000000e+01 
2.5000000e+00 0.0000000e+00 1.5000000e+01 
2.5000000e+00 0.0000000e+00 1.8000000e+01 
3.0000000e+00 0.0000000e+00 3.0000000e+00 
3.0000000e+00 0.0000000e+00 6.0000000e+00 
3.0000000e+00 0.0000000e+00 9.0000000e+00 
3.0000000e+00 0.0000000e+00 1.2000000e+01 
3.0000000e+00 0.0000000e+00 1.5000000e+01 
3.0000000e+00 0.0000000e+00 1.8000000e+01 
3.5000000e+00 0.0000000e+00 3.0000000e+00 
3.5000000e+00 0.0000000e+00 6.0000000e+00 
3.5000000e+00 0.0000000e+00 9.0000000e+00 
3.5000000e+00 0.0000000e+00 1.2000000e+01 
3.5000000e+00 0.0000000e+00 1.5000000e+01 
3.5000000e+00 0.0000000e+00 1.8000000e+01 
4.0000000e+00 0.0000000e+00 3.0000000e+00 
4.0000000e+00 0.0000000e+00 6.0000000e+00 
4.0000000e+00 0.0000000e+00 9.0000000e+00 
4.0000000e+00 0.0000000e+00 1.2000000e+01 
4.0000000e+00 0.0000000e+00 1.5000000e+01 
4.0000000e+00 0.0000000e+00 1.8000000e+01 
4.5000000e+00 0.0000000e+00 3.0000000e+00 
4.5000000e+00 0.0000000e+00 6.0000000e+00 
4.5000000e+00 0.0000000e+00 9.0000000e+00 
4.5000000e+00 0.0000000e+00 1.2000000e+01 
4.5000000e+00 0.0000000e+00 1.5000000e+01 
4.5000000e+00 0.0000000e+00 1.8000000e+01 
5.0000000e+00 0.0000000e+00 3.0000000e+00 
5.0000000e+00 0.0000000e+00 6.0000000e+00 
5.0000000e+00 0.0000000e+00 9.0000000e+00 
5.0000000e+00 0.0000000e+00 1.2000000e+01 
5.0000000e+00 0.0000000e+00 1.5000000e+01 
5.0000000e+00 0.0000000e+00 1.8000000e+01 
5.5000000e+00 0.0000000e+00 3.0000000e+00 
5.5000000e+00 0.0000000e+00 6.0000000e+00 
5.5000000e+00 0.0000000e+00 9.0000000e+00 
5.5000000e+00 0.0000000e+00 1.2000000e+01 
5.5000000e+00 0.0000000e+00 1.5000000e+01 
5.5000000e+00 0.0000000e+00 1.8000000e+01 
6.0000000e+00 0.0000000e+00 0.0000000e+00 
6.0000000e+00 0.0000000e+00 2.5000000e-01 
6.0000000e+00 0.0000000e+00 5.0000000e-01 
6.0000000e+00 0.0000000e+00 7.5000000e-01 
6.0000000e+00 0.0000000e+00 1.0000000e+00 
6.0000000e+00 0.0000000e+00 1.2500000e+00 
6.0000000e+00 0.0000000e+00 1.5000000e+00 
6.0000000e+00 0.0000000e+00 1.7500000e+00 
6.0000000e+00 0.0000000e+00 2.0000000e+00 
6.0000000e+00 0.0000000e+00 2.2500000e+00 
6.0000000e+00 0.0000000e+00 2.5000000e+00 
6.0000000e+00 0.0000000e+00 2.7500000e+00 
6.0000000e+00 0.0000000e+00 3.0000000e+00 
6.0000000e+00 0.0000000e+00 3.2500000e+00 
6.0000000e+00 0.0000000e+00 3.5000000e+00 
6.0000000e+00 0.0000000e+00 3.7500000e+00 
6.0000000e+00 0.0000000e+00 4.0000000e+00 
6.0000000e+00 0.0000000e+00 4.2500000e+00 
6.0000000e+00 0.0000000e+00 4.5000000e+00 
6.0000000e+00 0.0000000e+00 4.7500000e+00 
6.0000000e+00 0.0000000e+00 5.0000000e+00 
6.0000000e+00 0.0000000e+00 5.2500000e+00 
6.0000000e+00 0.0000000e+00 5.5000000e+00 
6.0000000e+00 0.0000000e+00 5.7500000e+00 
6.0000000e+00 0.0000000e+00 6.0000000e+00 
6.0000000e+00 0.0000000e+00 6.2500000e+00 
6.0000000e+00 0.0000000e+00 6.5000000e+00 
6.0000000e+00 0.0000000e+00 6.7500000e+00 
6.0000000e+00 0.0000000e+00 7.0000000e+00 
6.0000000e+00 0.0000000e+00 7.2500000e+00 
6.0000000e+00 0.0000000e+00 7.5000000e+00 
6.0000000e+00 0.0000000e+00 7.7500000e+00 
6.0000000e+00 0.0000000e+00 8.0000000e+00 
6.0000000e+00 0.0000000e+00 8.2500000e+00 
6.0000000e+00 0.0000000e+00 8.5000000e+00 
6.0000000e+00 0.0000000e+00 8.7500000e+00 
6.0000000e+00 0.0000000e+00 9.0000000e+00 
6.0000000e+00 0.0000000e+00 9.2500000e+00 
6.0000000e+00 0.0000000e+00 9.5000000e+00 
6.0000000e+00 0.0000000e+00 9.7500000e+00 
6.0000000e+00 0.0000000e+00 1.0000000e+01 
6.0000000e+00 0.0000000e+00 1.0250000e+01 
6.0000000e+00 0.0000000e+00 1.0500000e+01 
6.0000000e+00 0.0000000e+00 1.0750000e+01 
6.0000000e+00 0.0000000e+00 1.1000000e+01 
6.0000000e+00 0.0000000e+00 1.1250000e+01 
6.0000000e+00 0.0000000e+00 1.1500000e+01 
6.0000000e+00 0.0000000e+00 1.1750000e+01 
6.0000000e+00 0.0000000e+00 1.2000000e+01 
6.0000000e+00 0.0000000e+00 1.2250000e+01 
6.0000000e+00 0.0000000e+00 1.2500000e+01 
6.0000000e+00 0.0000000e+00 1.2750000e+01 
6.0000000e+00 0.0000000e+00 1.3000000e+01 
6.0000000e+00 0.0000000e+00 1.3250000e+01 
6.0000000e+00 0.0000000e+00 1.3500000e+01 
6.0000000e+00 0.0000000e+00 1.3750000e+01 
6.0000000e+00 0.0000000e+00 1.4000000e+01 
6.0000000e+00 0.0000000e+00 1.4250000e+01 
6.0000000e+00 0.0000000e+00 1.4500000e+01 
6.0000000e+00 0.0000000e+00 1.4750000e+01 
6.0000000e+00 0.0000000e+00 1.5000000e+01 
6.0000000e+00 0.0000000e+00 1.5250000e+01 
6.0000000e+00 0.0000000e+00 1.5500000e+01 
6.0000000e+00 0.0000000e+00 1.5750000e+01 
6.0000000e+00 0.0000000e+00 1.6000000e+01 
6.0000000e+00 0.0000000e+00 1.6250000e+01 
6.0000000e+00 0.0000000e+00 1.6500000e+01 
6.0000000e+00 0.0000000e+00 1.6750000e+01 
6.0000000e+00 0.0000000e+00 1.7000000e+01 
6.0000000e+00 0.0000000e+00 1.7250000e+01 
6.0000000e+00 0.0000000e+00 1.7500000e+01 
6.0000000e+00 0.0000000e+00 1.7750000e+01 
6.0000000e+00 0.0000000e+00 1.8000000e+01 

CELLS 216 648
2 0 1
2 1 2
2 2 3
2 3 4
2 4 5
2 5 6
2 6 7
2 7 8
2 8 9
2 9 10
2 10 11
2 11 12
2 12 13
2 13 14
2 14 15
2 15 16
2 16 17
2 17 18
2 18 19
2 19 20
2 20 21
2 21 22
2 22 23
2 23 24
2 24 25
2 25 26
2 26 27
2 27 28
2 28 29
2 29 30
2 30 31
2 31 32
2 32 33
2 33 34
2 34 35
2 35 36
2 36 37
2 37 38
2 38 39
2 39 40
2 40 41
2 41 42
2 42 43
2 43 44
2 44 45
2 45 46
2 46 47
2 47 48
2 48 49
2 49 50
2 50 51
2 51 52
2 52 53
2 53 54
2 54 55
2 55 56
2 56 57
2 57 58
2 58 59
2 59 60
2 60 61
2 61 62
2 62 63
2 63 64
2 64 65
2 65 66
2 66 67
2 67 68
2 68 69
2 69 70
2 70 71
2 71 72
2 139 140
2 140 141
2 141 142
2 142 143
2 143 144
2 144 145
2 145 146
2 146 147
2 147 148
2 148 149
2 149 150
2 150 151
2 151 152
2 152 153
2 153 154
2 154 155
2 155 156
2 156 157
2 157 158
2 158 159
2 159 160
2 160 161
2 161 162
2 162 163
2 163 164
2 164 165
2 165 166
2 166 167
2 167 168
2 168 169
2 169 170
2 170 171
2 171 172
2 172 173
2 173 174
2 174 175
2 175 176
2 176 177
2 177 178
2 178 179
2 179 180
2 180 181
2 181 182
2 182 183
2 183 184
2 184 185
2 185 186
2 186 187
2 187 188
2 188 189
2 189 190
2 190 191
2 191 192
2 192 193
2 193 194
2 194 195
2 195 196
2 196 197
2 197 198
2 198 199
2 199 200
2 200 201
2 201 202
2 202 203
2 203 204
2 204 205
2 205 206
2 206 207
2 207 208
2 208 209
2 209 210
2 210 211
2 12 73
2 73 79
2 79 85
2 85 91
2 91 97
2 97 103
2 103 109
2 109 115
2 115 121
2 121 127
2 127 133
2 133 151
2 24 74
2 74 80
2 80 86
2 86 92
2 92 98
2 98 104
2 104 110
2 110 116
2 116 122
2 122 128
2 128 134
2 134 163
2 36 75
2 75 81
2 81 87
2 87 93
2 93 99
2 99 105
2 105 111
2 111 117
2 117 123
2 123 129
2 129 135
2 135 175
2 48 76
2 76 82
2 82 88
2 88 94
2 94 100
2 100 106
2 106 112
2 112 118
2 118 124
2 124 130
2 130 136
2 136 187
2 60 77
2 77 83
2 83 89
2 89 95
2 95 101
2 101 107
2 107 113
2 113 119
2 119 125
2 125 131
2 131 137
2 137 199
2 72 78
2 78 84
2 84 90
2 90 96
2 96 102
2 102 108
2 108 114
2 114 120
2 120 126
2 126 132
2 132 138
2 138 211

CELL_TYPES 216
3
3
3
3
3
3
3
3
3
3
3
3
3
3
3
3
3
3
3
3
3
3
3
3
3
3
3
3
3
3
3
3
3
3
3
3
3
3
3
3
3
3
3
3
3
3
3
3
3
3
3
3
3
3
3
3
3
3
3
3
3
3
3
3
3
3
3
3
3
3
3
3
3
3
3
3
3
3
3
3
3
3
3
3
3
3
3
3
3
3
3
3
3
3
3
3
3
3
3
3
3
3
3
3
3
3
3
3
3
3
3
3
3
3
3
3
3
3
3
3
3
3
3
3
3
3
3
3
3
3
3
3
3
3
3
3
3
3
3
3
3
3
3
3
3
3
3
3
3
3
3
3
3
3
3
3
3
3
3
3
3
3
3
3
3
3
3
3
3
3
3
3
3
3
3
3
3
3
3
3
3
3
3
3
3
3
3
3
3
3
3
3
3
3
3
3
3
3
3
3
3
3
3
3
3
3
3
3
3
3
3
3
3
3
3
3
POINT_DATA 212
FIELD FieldData 3
ADJOINT_DISPLACEMENT 3 212  float
0.0000000e+00 0.0000000e+00 0.0000000e+00 
1.9436610e-04 0.0000000e+00 -1.7631461e-16 
3.9316618e-04 0.0000000e+00 -3.5262921e-16 
6.0083420e-04 0.0000000e+00 -5.2894381e-16 
8.2180416e-04 0.0000000e+00 -7.0525843e-16 
1.0605101e-03 0.0000000e+00 -8.8157305e-16 
1.3213858e-03 0.0000000e+00 -1.0578876e-15 
1.6088656e-03 0.0000000e+00 -1.2342023e-15 
1.9273830e-03 0.0000000e+00 -1.4105169e-15 
2.2813724e-03 0.0000000e+00 -1.5868314e-15 
2.6752676e-03 0.0000000e+00 -1.7631461e-15 
3.1135024e-03 0.0000000e+00 -1.9394607e-15 
3.6005112e-03 0.0000000e+00 -2.1157752e-15 
4.1819024e-03 0.0000000e+00 -3.8552241e-08 
4.8825555e-03 0.0000000e+00 -7.7104474e-08 
5.6758099e-03 0.0000000e+00 -1.1565671e-07 
6.5350053e-03 0.0000000e+00 -1.5420895e-07 
7.4334810e-03 0.0000000e+00 -1.9276119e-07 
8.3445758e-03 0.0000000e+00 -2.3131342e-07 
9.2416303e-03 0.0000000e+00 -2.6986567e-07 
1.0097984e-02 0.0000000e+00 -3.0841790e-07 
1.0886976e-02 0.0000000e+00 -3.4697013e-07 
1.1581944e-02 0.0000000e+00 -3.8552238e-07 
1.2156230e-02 0.0000000e+00 -4.2407461e-07 
1.2583174e-02 0.0000000e+00 -4.6262684e-07 
1.2974173e-02 0.0000000e+00 -6.5539297e-07 
1.3535651e-02 0.0000000e+00 -8.4815912e-07 
1.4383484e-02 0.0000000e+00 -1.0409253e-06 
1.5633542e-02 0.0000000e+00 -1.2336914e-06 
1.7401703e-02 0.0000000e+00 -1.4264575e-06 
1.9803839e-02 0.0000000e+00 -1.6192237e-06 
2.2955826e-02 0.0000000e+00 -1.8119898e-06 
2.6973536e-02 0.0000000e+00 -2.0047560e-06 
3.1972844e-02 0.0000000e+00 -2.1975220e-06 
3.8069624e-02 0.0000000e+00 -2.3902883e-06 
4.5379754e-02 0.0000000e+00 -2.5830543e-06 
5.4019101e-02 0.0000000e+00 -2.7758206e-06 
6.4865716e-02 0.0000000e+00 -3.7011239e-06 
7.8390017e-02 0.0000000e+00 -4.6264272e-06 
9.4096452e-02 0.0000000e+00 -5.5517303e-06 
1.1148946e-01 0.0000000e+00 -6.4770334e-06 
1.3007349e-01 0.0000000e+00 -7.4023369e-06 
1.4935297e-01 0.0000000e+00 -8.3276400e-06 
1.6883233e-01 0.0000000e+00 -9.2529435e-06 
1.8801606e-01 0.0000000e+00 -1.0178246e-05 
2.0640856e-01 0.0000000e+00 -1.1103550e-05 
2.2351427e-01 0.0000000e+00 -1.2028853e-05 
2.3883766e-01 0.0000000e+00 -1.2954157e-05 
2.5188315e-01 0.0000000e+00 -1.3879459e-05 
2.6491955e-01 0.0000000e+00 -1.2956185e-05 
2.8021967e-01 0.0000000e+00 -1.2032911e-05 
2.9729402e-01 0.0000000e+00 -1.1109637e-05 
3.1565306e-01 0.0000000e+00 -1.0186362e-05 
3.3480731e-01 0.0000000e+00 -9.2630880e-06 
3.5426727e-01 0.0000000e+00 -8.3398136e-06 
3.7354341e-01 0.0000000e+00 -7.4165396e-06 
3.9214623e-01 0.0000000e+00 -6.4932651e-06 
4.0958622e-01 0.0000000e+00 -5.5699907e-06 
4.2537388e-01 0.0000000e+00 -4.6467167e-06 
4.3901971e-01 0.0000000e+00 -3.7234422e-06 
4.5003420e-01 0.0000000e+00 -2.8001677e-06 
4.5890123e-01 0.0000000e+00 -2.6155178e-06 
4.6649420e-01 0.0000000e+00 -2.4308677e-06 
4.7290772e-01 0.0000000e+00 -2.2462175e-06 
4.7823641e-01 0.0000000e+00 -2.0615673e-06 
4.8257491e-01 0.0000000e+00 -1.8769173e-06 
4.8601788e-01 0.0000000e+00 -1.6922671e-06 
4.8865995e-01 0.0000000e+00 -1.5076171e-06 
4.9059573e-01 0.0000000e+00 -1.3229669e-06 
4.9191990e-01 0.0000000e+00 -1.1383169e-06 
4.9272704e-01 0.0000000e+00 -9.5366670e-07 
4.9311185e-01 0.0000000e+00 -7.6901659e-07 
4.9316889e-01 0.0000000e+00 -5.8436649e-07 
3.6001273e-03 0.0000000e+00 -8.4864721e-04 
1.2584933e-02 0.0000000e+00 -2.6533179e-04 
5.4011554e-02 0.0000000e+00 -1.5389901e-02 
2.5188324e-01 0.0000000e+00 -1.2043854e-02 
4.5004141e-01 0.0000000e+00 -1.5729388e-02 
4.9316773e-01 0.0000000e+00 5.7623000e-04 
3.5997436e-03 0.0000000e+00 -1.3764112e-03 
1.2586692e-02 0.0000000e+00 1.8432739e-04 
5.4004006e-02 0.0000000e+00 -2.4813998e-02 
2.5188330e-01 0.0000000e+00 4.2921084e-04 
4.5004863e-01 0.0000000e+00 -2.5404925e-02 
4.9316657e-01 0.0000000e+00 1.8460575e-03 
3.5993599e-03 0.0000000e+00 -1.6332670e-03 
1.2588452e-02 0.0000000e+00 1.1486080e-03 
5.3996462e-02 0.0000000e+00 -2.9224655e-02 
2.5188339e-01 0.0000000e+00 3.9801620e-02 
4.5005581e-01 0.0000000e+00 -2.9986888e-02 
4.9316540e-01 0.0000000e+00 3.5695368e-03 
3.5989759e-03 0.0000000e+00 -1.6691900e-03 
1.2590211e-02 0.0000000e+00 2.4276034e-03 
5.3988915e-02 0.0000000e+00 -2.9571455e-02 
2.5188345e-01 0.0000000e+00 1.0846967e-01 
4.5006302e-01 0.0000000e+00 -3.0432753e-02 
4.9316421e-01 0.0000000e+00 5.5073071e-03 
3.5985922e-03 0.0000000e+00 -1.5341550e-03 
1.2591970e-02 0.0000000e+00 3.8214063e-03 
5.3981367e-02 0.0000000e+00 -2.6803983e-02 
2.5188354e-01 0.0000000e+00 2.0882967e-01 
4.5007023e-01 0.0000000e+00 -2.7699994e-02 
4.9316305e-01 0.0000000e+00 7.4200067e-03 
3.5982083e-03 0.0000000e+00 -1.2781373e-03 
1.2593729e-02 0.0000000e+00 5.1301098e-03 
5.3973820e-02 0.0000000e+00 -2.1871824e-02 
2.5188360e-01 0.0000000e+00 3.4327793e-01 
4.5007744e-01 0.0000000e+00 -2.2746088e-02 
4.9316189e-01 0.0000000e+00 9.0682739e-03 
3.5978246e-03 0.0000000e+00 -9.5111196e-04 
1.2595489e-02 0.0000000e+00 6.1538075e-03 
5.3966273e-02 0.0000000e+00 -1.5724566e-02 
2.5188369e-01 0.0000000e+00 5.1421076e-01 
4.5008466e-01 0.0000000e+00 -1.6528511e-02 
4.9316072e-01 0.0000000e+00 1.0212749e-02 
3.5974409e-03 0.0000000e+00 -6.0305413e-04 
1.2597248e-02 0.0000000e+00 6.6925921e-03 
5.3958725e-02 0.0000000e+00 -9.3117896e-03 
2.5188375e-01 0.0000000e+00 7.2402442e-01 
4.5009187e-01 0.0000000e+00 -1.0004737e-02 
4.9315956e-01 0.0000000e+00 1.0614069e-02 
3.5970570e-03 0.0000000e+00 -2.8393892e-04 
1.2599007e-02 0.0000000e+00 6.5465569e-03 
5.3951178e-02 0.0000000e+00 -3.5830822e-03 
2.5188383e-01 0.0000000e+00 4.7511530e-01 
4.5009908e-01 0.0000000e+00 -4.1322443e-03 
4.9315840e-01 0.0000000e+00 1.0032875e-02 
3.5966733e-03 0.0000000e+00 -4.3741395e-05 
1.2600766e-02 0.0000000e+00 5.5157947e-03 
5.3943634e-02 0.0000000e+00 5.1197095e-04 
2.5188389e-01 0.0000000e+00 2.6987961e-01 
4.5010629e-01 0.0000000e+00 1.3149384e-04 
4.9315721e-01 0.0000000e+00 8.2298033e-03 
3.5962893e-03 0.0000000e+00 6.7563284e-05 
1.2602526e-02 0.0000000e+00 3.4003989e-03 
5.3936087e-02 0.0000000e+00 2.0237854e-03 
2.5188398e-01 0.0000000e+00 1.1071371e-01 
4.5011351e-01 0.0000000e+00 1.8290005e-03 
4.9315605e-01 0.0000000e+00 4.9654930e-03 
0.0000000e+00 0.0000000e+00 0.0000000e+00 
4.0533530e-04 0.0000000e+00 1.7590272e-16 
8.0623664e-04 0.0000000e+00 3.5180561e-16 
1.1982700e-03 0.0000000e+00 5.2770936e-16 
1.5770014e-03 0.0000000e+00 7.0361243e-16 
1.9379969e-03 0.0000000e+00 8.7951513e-16 
2.2768225e-03 0.0000000e+00 1.0554183e-15 
2.5890444e-03 0.0000000e+00 1.2313224e-15 
2.8702281e-03 0.0000000e+00 1.4072250e-15 
3.1159401e-03 0.0000000e+00 1.5831283e-15 
3.3217466e-03 0.0000000e+00 1.7590328e-15 
3.4832130e-03 0.0000000e+00 1.9349373e-15 
3.5959056e-03 0.0000000e+00 2.1108421e-15 
3.6891783e-03 0.0000000e+00 3.8552241e-08 
3.8131147e-03 0.0000000e+00 7.7104474e-08 
3.9943750e-03 0.0000000e+00 1.1565671e-07 
4.2596199e-03 0.0000000e+00 1.5420895e-07 
4.6355100e-03 0.0000000e+00 1.9276119e-07 
5.1487056e-03 0.0000000e+00 2.3131342e-07 
5.8258669e-03 0.0000000e+00 2.6986567e-07 
6.6936556e-03 0.0000000e+00 3.0841790e-07 
7.7787307e-03 0.0000000e+00 3.4697013e-07 
9.1077536e-03 0.0000000e+00 3.8552238e-07 
1.0707385e-02 0.0000000e+00 4.2407461e-07 
1.2604285e-02 0.0000000e+00 4.6262684e-07 
1.4986915e-02 0.0000000e+00 6.5539297e-07 
1.7948711e-02 0.0000000e+00 8.4815912e-07 
2.1373799e-02 0.0000000e+00 1.0409253e-06 
2.5146307e-02 0.0000000e+00 1.2336914e-06 
2.9150359e-02 0.0000000e+00 1.4264575e-06 
3.3270080e-02 0.0000000e+00 1.6192237e-06 
3.7389599e-02 0.0000000e+00 1.8119898e-06 
4.1393042e-02 0.0000000e+00 2.0047560e-06 
4.5164529e-02 0.0000000e+00 2.1975220e-06 
4.8588190e-02 0.0000000e+00 2.3902883e-06 
5.1548153e-02 0.0000000e+00 2.5830543e-06 
5.3928539e-02 0.0000000e+00 2.7758206e-06 
5.6275684e-02 0.0000000e+00 3.7011239e-06 
5.9543539e-02 0.0000000e+00 4.6264272e-06 
6.4227663e-02 0.0000000e+00 5.5517303e-06 
7.0823617e-02 0.0000000e+00 6.4770334e-06 
7.9826958e-02 0.0000000e+00 7.4023369e-06 
9.1733247e-02 0.0000000e+00 8.3276400e-06 
1.0703804e-01 0.0000000e+00 9.2529435e-06 
1.2623689e-01 0.0000000e+00 1.0178246e-05 
1.4982535e-01 0.0000000e+00 1.1103550e-05 
1.7829899e-01 0.0000000e+00 1.2028853e-05 
2.1215338e-01 0.0000000e+00 1.2954157e-05 
2.5188404e-01 0.0000000e+00 1.3879459e-05 
2.9162779e-01 0.0000000e+00 1.2956185e-05 
3.2551727e-01 0.0000000e+00 1.2032911e-05 
3.5404202e-01 0.0000000e+00 1.1109637e-05 
3.7769157e-01 0.0000000e+00 1.0186362e-05 
3.9695537e-01 0.0000000e+00 9.2630880e-06 
4.1232300e-01 0.0000000e+00 8.3398136e-06 
4.2428389e-01 0.0000000e+00 7.4165396e-06 
4.3332762e-01 0.0000000e+00 6.4932651e-06 
4.3994364e-01 0.0000000e+00 5.5699907e-06 
4.4462150e-01 0.0000000e+00 4.6467167e-06 
4.4785070e-01 0.0000000e+00 3.7234422e-06 
4.5012072e-01 0.0000000e+00 2.8001677e-06 
4.5238388e-01 0.0000000e+00 2.6155178e-06 
4.5520303e-01 0.0000000e+00 2.4308677e-06 
4.5848355e-01 0.0000000e+00 2.2462175e-06 
4.6213078e-01 0.0000000e+00 2.0615673e-06 
4.6605015e-01 0.0000000e+00 1.8769173e-06 
4.7014695e-01 0.0000000e+00 1.6922671e-06 
4.7432658e-01 0.0000000e+00 1.5076171e-06 
4.7849441e-01 0.0000000e+00 1.3229669e-06 
4.8255581e-01 0.0000000e+00 1.1383169e-06 
4.8641607e-01 0.0000000e+00 9.5366670e-07 
4.8998067e-01 0.0000000e+00 7.6901659e-07 
4.9315488e-01 0.0000000e+00 5.8436649e-07 
ADJOINT_ROTATION 3 212  float
0.0000000e+00 7.7450840e-04 0.0000000e+00 
0.0000000e+00 7.8337640e-04 0.0000000e+00 
0.0000000e+00 8.0998027e-04 0.0000000e+00 
0.0000000e+00 8.5432001e-04 0.0000000e+00 
0.0000000e+00 9.1639574e-04 0.0000000e+00 
0.0000000e+00 9.9620735e-04 0.0000000e+00 
0.0000000e+00 1.0937549e-03 0.0000000e+00 
0.0000000e+00 1.2090383e-03 0.0000000e+00 
0.0000000e+00 1.3420577e-03 0.0000000e+00 
0.0000000e+00 1.4928130e-03 0.0000000e+00 
0.0000000e+00 1.6613042e-03 0.0000000e+00 
0.0000000e+00 1.8475313e-03 0.0000000e+00 
0.0000000e+00 2.0514943e-03 0.0000000e+00 
0.0000000e+00 2.5818627e-03 0.0000000e+00 
0.0000000e+00 3.0055889e-03 0.0000000e+00 
0.0000000e+00 3.3226730e-03 0.0000000e+00 
0.0000000e+00 3.5331151e-03 0.0000000e+00 
0.0000000e+00 3.6369152e-03 0.0000000e+00 
0.0000000e+00 3.6340733e-03 0.0000000e+00 
0.0000000e+00 3.5245891e-03 0.0000000e+00 
0.0000000e+00 3.3084629e-03 0.0000000e+00 
0.0000000e+00 2.9856949e-03 0.0000000e+00 
0.0000000e+00 2.5562847e-03 0.0000000e+00 
0.0000000e+00 2.0202324e-03 0.0000000e+00 
0.0000000e+00 1.3775380e-03 0.0000000e+00 
0.0000000e+00 1.8277061e-03 0.0000000e+00 
0.0000000e+00 2.7413708e-03 0.0000000e+00 
0.0000000e+00 4.1185324e-03 0.0000000e+00 
0.0000000e+00 5.9591904e-03 0.0000000e+00 
0.0000000e+00 8.2633449e-03 0.0000000e+00 
0.0000000e+00 1.1030996e-02 0.0000000e+00 
0.0000000e+00 1.4262144e-02 0.0000000e+00 
0.0000000e+00 1.7956788e-02 0.0000000e+00 
0.0000000e+00 2.2114929e-02 0.0000000e+00 
0.0000000e+00 2.6736567e-02 0.0000000e+00 
0.0000000e+00 3.1821702e-02 0.0000000e+00 
0.0000000e+00 3.7370332e-02 0.0000000e+00 
0.0000000e+00 4.9072206e-02 0.0000000e+00 
0.0000000e+00 5.8791850e-02 0.0000000e+00 
0.0000000e+00 6.6529259e-02 0.0000000e+00 
0.0000000e+00 7.2284430e-02 0.0000000e+00 
0.0000000e+00 7.6057374e-02 0.0000000e+00 
0.0000000e+00 7.7848084e-02 0.0000000e+00 
0.0000000e+00 7.7656560e-02 0.0000000e+00 
0.0000000e+00 7.5482808e-02 0.0000000e+00 
0.0000000e+00 7.1326815e-02 0.0000000e+00 
0.0000000e+00 6.5188594e-02 0.0000000e+00 
0.0000000e+00 5.7068139e-02 0.0000000e+00 
0.0000000e+00 4.6965450e-02 0.0000000e+00 
0.0000000e+00 5.6999367e-02 0.0000000e+00 
0.0000000e+00 6.5075256e-02 0.0000000e+00 
0.0000000e+00 7.1193114e-02 0.0000000e+00 
0.0000000e+00 7.5352944e-02 0.0000000e+00 
0.0000000e+00 7.7554747e-02 0.0000000e+00 
0.0000000e+00 7.7798516e-02 0.0000000e+00 
0.0000000e+00 7.6084256e-02 0.0000000e+00 
0.0000000e+00 7.2411977e-02 0.0000000e+00 
0.0000000e+00 6.6781662e-02 0.0000000e+00 
0.0000000e+00 5.9193317e-02 0.0000000e+00 
0.0000000e+00 4.9646944e-02 0.0000000e+00 
0.0000000e+00 3.8142543e-02 0.0000000e+00 
0.0000000e+00 3.2856926e-02 0.0000000e+00 
0.0000000e+00 2.7949849e-02 0.0000000e+00 
0.0000000e+00 2.3421317e-02 0.0000000e+00 
0.0000000e+00 1.9271327e-02 0.0000000e+00 
0.0000000e+00 1.5499881e-02 0.0000000e+00 
0.0000000e+00 1.2106977e-02 0.0000000e+00 
0.0000000e+00 9.0926168e-03 0.0000000e+00 
0.0000000e+00 6.4567998e-03 0.0000000e+00 
0.0000000e+00 4.1995249e-03 0.0000000e+00 
0.0000000e+00 2.3207932e-03 0.0000000e+00 
0.0000000e+00 8.2060450e-04 0.0000000e+00 
0.0000000e+00 -3.0104138e-04 0.0000000e+00 
0.0000000e+00 1.3597528e-03 0.0000000e+00 
0.0000000e+00 -2.5142566e-04 0.0000000e+00 
0.0000000e+00 2.4494695e-02 0.0000000e+00 
0.0000000e+00 3.5567771e-04 0.0000000e+00 
0.0000000e+00 2.5082966e-02 0.0000000e+00 
0.0000000e+00 -1.9264289e-03 0.0000000e+00 
0.0000000e+00 7.6796149e-04 0.0000000e+00 
0.0000000e+00 -1.4805755e-03 0.0000000e+00 
0.0000000e+00 1.3518225e-02 0.0000000e+00 
0.0000000e+00 -5.1046703e-02 0.0000000e+00 
0.0000000e+00 1.3938342e-02 0.0000000e+00 
0.0000000e+00 -3.0730939e-03 0.0000000e+00 
0.0000000e+00 2.7612041e-04 0.0000000e+00 
0.0000000e+00 -2.3099114e-03 0.0000000e+00 
0.0000000e+00 4.4409279e-03 0.0000000e+00 
0.0000000e+00 -1.0724170e-01 0.0000000e+00 
0.0000000e+00 4.7086691e-03 0.0000000e+00 
0.0000000e+00 -3.7410366e-03 0.0000000e+00 
0.0000000e+00 -1.1577042e-04 0.0000000e+00 
0.0000000e+00 -2.7394337e-03 0.0000000e+00 
0.0000000e+00 -2.7372001e-03 0.0000000e+00 
0.0000000e+00 -1.6822930e-01 0.0000000e+00 
0.0000000e+00 -2.6060527e-03 0.0000000e+00 
0.0000000e+00 -3.9302567e-03 0.0000000e+00 
0.0000000e+00 -4.0771102e-04 0.0000000e+00 
0.0000000e+00 -2.7691422e-03 0.0000000e+00 
0.0000000e+00 -8.0161579e-03 0.0000000e+00 
0.0000000e+00 -2.3400950e-01 0.0000000e+00 
0.0000000e+00 -8.0058230e-03 0.0000000e+00 
0.0000000e+00 -3.6407544e-03 0.0000000e+00 
0.0000000e+00 -5.9970142e-04 0.0000000e+00 
0.0000000e+00 -2.3990369e-03 0.0000000e+00 
0.0000000e+00 -1.1395946e-02 0.0000000e+00 
0.0000000e+00 -3.0458230e-01 0.0000000e+00 
0.0000000e+00 -1.1490642e-02 0.0000000e+00 
0.0000000e+00 -2.8725297e-03 0.0000000e+00 
0.0000000e+00 -6.9174153e-04 0.0000000e+00 
0.0000000e+00 -1.6291178e-03 0.0000000e+00 
0.0000000e+00 -1.2876564e-02 0.0000000e+00 
0.0000000e+00 -3.7994772e-01 0.0000000e+00 
0.0000000e+00 -1.3060509e-02 0.0000000e+00 
0.0000000e+00 -1.6255823e-03 0.0000000e+00 
0.0000000e+00 -6.8383146e-04 0.0000000e+00 
0.0000000e+00 -4.5938493e-04 0.0000000e+00 
0.0000000e+00 -1.2458012e-02 0.0000000e+00 
0.0000000e+00 -4.6010578e-01 0.0000000e+00 
0.0000000e+00 -1.2715425e-02 0.0000000e+00 
0.0000000e+00 1.0008740e-04 0.0000000e+00 
0.0000000e+00 -5.7597115e-04 0.0000000e+00 
0.0000000e+00 1.1101618e-03 0.0000000e+00 
0.0000000e+00 -1.0140289e-02 0.0000000e+00 
0.0000000e+00 4.5494360e-01 0.0000000e+00 
0.0000000e+00 -1.0455390e-02 0.0000000e+00 
0.0000000e+00 2.3044797e-03 0.0000000e+00 
0.0000000e+00 -3.6816057e-04 0.0000000e+00 
0.0000000e+00 3.0795222e-03 0.0000000e+00 
0.0000000e+00 -5.9233960e-03 0.0000000e+00 
0.0000000e+00 3.6520034e-01 0.0000000e+00 
0.0000000e+00 -6.2804031e-03 0.0000000e+00 
0.0000000e+00 4.9875942e-03 0.0000000e+00 
0.0000000e+00 -6.0399765e-05 0.0000000e+00 
0.0000000e+00 5.4486967e-03 0.0000000e+00 
0.0000000e+00 1.9266678e-04 0.0000000e+00 
0.0000000e+00 2.7066451e-01 0.0000000e+00 
0.0000000e+00 -1.9046490e-04 0.0000000e+00 
0.0000000e+00 8.1494311e-03 0.0000000e+00 
0.0000000e+00 1.6242972e-03 0.0000000e+00 
0.0000000e+00 1.6154292e-03 0.0000000e+00 
0.0000000e+00 1.5888254e-03 0.0000000e+00 
0.0000000e+00 1.5444856e-03 0.0000000e+00 
0.0000000e+00 1.4824099e-03 0.0000000e+00 
0.0000000e+00 1.4025982e-03 0.0000000e+00 
0.0000000e+00 1.3050507e-03 0.0000000e+00 
0.0000000e+00 1.1897673e-03 0.0000000e+00 
0.0000000e+00 1.0567479e-03 0.0000000e+00 
0.0000000e+00 9.0599258e-04 0.0000000e+00 
0.0000000e+00 7.3750142e-04 0.0000000e+00 
0.0000000e+00 5.5127428e-04 0.0000000e+00 
0.0000000e+00 3.4731126e-04 0.0000000e+00 
0.0000000e+00 4.1664438e-04 0.0000000e+00 
0.0000000e+00 5.9261953e-04 0.0000000e+00 
0.0000000e+00 8.7523676e-04 0.0000000e+00 
0.0000000e+00 1.2644960e-03 0.0000000e+00 
0.0000000e+00 1.7603975e-03 0.0000000e+00 
0.0000000e+00 2.3629409e-03 0.0000000e+00 
0.0000000e+00 3.0721263e-03 0.0000000e+00 
0.0000000e+00 3.8879537e-03 0.0000000e+00 
0.0000000e+00 4.8104236e-03 0.0000000e+00 
0.0000000e+00 5.8395350e-03 0.0000000e+00 
0.0000000e+00 6.9752885e-03 0.0000000e+00 
0.0000000e+00 8.2176849e-03 0.0000000e+00 
0.0000000e+00 1.0766100e-02 0.0000000e+00 
0.0000000e+00 1.2851019e-02 0.0000000e+00 
0.0000000e+00 1.4472443e-02 0.0000000e+00 
0.0000000e+00 1.5630368e-02 0.0000000e+00 
0.0000000e+00 1.6324798e-02 0.0000000e+00 
0.0000000e+00 1.6555730e-02 0.0000000e+00 
0.0000000e+00 1.6323168e-02 0.0000000e+00 
0.0000000e+00 1.5627107e-02 0.0000000e+00 
0.0000000e+00 1.4467550e-02 0.0000000e+00 
0.0000000e+00 1.2844496e-02 0.0000000e+00 
0.0000000e+00 1.0757946e-02 0.0000000e+00 
0.0000000e+00 8.2078995e-03 0.0000000e+00 
0.0000000e+00 1.0899630e-02 0.0000000e+00 
0.0000000e+00 1.5573593e-02 0.0000000e+00 
0.0000000e+00 2.2229789e-02 0.0000000e+00 
0.0000000e+00 3.0868219e-02 0.0000000e+00 
0.0000000e+00 4.1488882e-02 0.0000000e+00 
0.0000000e+00 5.4091774e-02 0.0000000e+00 
0.0000000e+00 6.8676904e-02 0.0000000e+00 
0.0000000e+00 8.5244261e-02 0.0000000e+00 
0.0000000e+00 1.0379386e-01 0.0000000e+00 
0.0000000e+00 1.2432569e-01 0.0000000e+00 
0.0000000e+00 1.4683974e-01 0.0000000e+00 
0.0000000e+00 1.7133604e-01 0.0000000e+00 
0.0000000e+00 1.4694008e-01 0.0000000e+00 
0.0000000e+00 1.2450214e-01 0.0000000e+00 
0.0000000e+00 1.0402224e-01 0.0000000e+00 
0.0000000e+00 8.5500374e-02 0.0000000e+00 
0.0000000e+00 6.8936527e-02 0.0000000e+00 
0.0000000e+00 5.4330710e-02 0.0000000e+00 
0.0000000e+00 4.1682925e-02 0.0000000e+00 
0.0000000e+00 3.0993167e-02 0.0000000e+00 
0.0000000e+00 2.2261439e-02 0.0000000e+00 
0.0000000e+00 1.5487738e-02 0.0000000e+00 
0.0000000e+00 1.0672067e-02 0.0000000e+00 
0.0000000e+00 7.8144250e-03 0.0000000e+00 
0.0000000e+00 1.0227708e-02 0.0000000e+00 
0.0000000e+00 1.2262449e-02 0.0000000e+00 
0.0000000e+00 1.3918646e-02 0.0000000e+00 
0.0000000e+00 1.5196300e-02 0.0000000e+00 
0.0000000e+00 1.6095413e-02 0.0000000e+00 
0.0000000e+00 1.6615981e-02 0.0000000e+00 
0.0000000e+00 1.6758006e-02 0.0000000e+00 
0.0000000e+00 1.6521489e-02 0.0000000e+00 
0.0000000e+00 1.5906429e-02 0.0000000e+00 
0.0000000e+00 1.4912826e-02 0.0000000e+00 