# vtk DataFile Version 4.0
vtk output
ASCII
DATASET UNSTRUCTURED_GRID
POINTS 60 float
0.0000000e+00 0.0000000e+00 0.0000000e+00 
0.0000000e+00 2.0000000e-01 0.0000000e+00 
0.0000000e+00 4.0000001e-01 0.0000000e+00 
0.0000000e+00 6.0000002e-01 0.0000000e+00 
0.0000000e+00 8.0000001e-01 0.0000000e+00 
0.0000000e+00 1.0000000e+00 0.0000000e+00 
0.0000000e+00 1.2000000e+00 0.0000000e+00 
0.0000000e+00 1.4000000e+00 0.0000000e+00 
0.0000000e+00 1.6000000e+00 0.0000000e+00 
0.0000000e+00 1.8000000e+00 0.0000000e+00 
0.0000000e+00 2.0000000e+00 0.0000000e+00 
0.0000000e+00 2.2000000e+00 0.0000000e+00 
0.0000000e+00 2.4000001e+00 0.0000000e+00 
0.0000000e+00 2.5999999e+00 0.0000000e+00 
0.0000000e+00 2.8000000e+00 0.0000000e+00 
0.0000000e+00 3.0000000e+00 0.0000000e+00 
0.0000000e+00 3.2000000e+00 0.0000000e+00 
0.0000000e+00 3.4000001e+00 0.0000000e+00 
0.0000000e+00 3.5999999e+00 0.0000000e+00 
0.0000000e+00 3.8000000e+00 0.0000000e+00 
0.0000000e+00 4.0000000e+00 0.0000000e+00 
2.0000000e-01 4.0000000e+00 0.0000000e+00 
4.0000001e-01 4.0000000e+00 0.0000000e+00 
6.0000002e-01 4.0000000e+00 0.0000000e+00 
8.0000001e-01 4.0000000e+00 0.0000000e+00 
1.0000000e+00 4.0000000e+00 0.0000000e+00 
1.2000000e+00 4.0000000e+00 0.0000000e+00 
1.4000000e+00 4.0000000e+00 0.0000000e+00 
1.6000000e+00 4.0000000e+00 0.0000000e+00 
1.8000000e+00 4.0000000e+00 0.0000000e+00 
2.0000000e+00 4.0000000e+00 0.0000000e+00 
2.0000000e+00 3.8000000e+00 0.0000000e+00 
2.0000000e+00 3.5999999e+00 0.0000000e+00 
2.0000000e+00 3.4000001e+00 0.0000000e+00 
2.0000000e+00 3.2000000e+00 0.0000000e+00 
2.0000000e+00 3.0000000e+00 0.0000000e+00 
2.0000000e+00 2.8000000e+00 0.0000000e+00 
2.0000000e+00 2.5999999e+00 0.0000000e+00 
2.0000000e+00 2.4000001e+00 0.0000000e+00 
2.0000000e+00 2.2000000e+00 0.0000000e+00 
2.0000000e+00 2.0000000e+00 0.0000000e+00 
2.0000000e+00 1.8000000e+00 0.0000000e+00 
2.0000000e+00 1.6000000e+00 0.0000000e+00 
2.0000000e+00 1.4000000e+00 0.0000000e+00 
2.0000000e+00 1.2000000e+00 0.0000000e+00 
2.0000000e+00 1.0000000e+00 0.0000000e+00 
2.0000000e+00 8.0000001e-01 0.0000000e+00 
2.0000000e+00 6.0000002e-01 0.0000000e+00 
2.0000000e+00 4.0000001e-01 0.0000000e+00 
2.0000000e+00 2.0000000e-01 0.0000000e+00 
2.0000000e+00 0.0000000e+00 0.0000000e+00 
2.0000000e-01 2.0000000e+00 0.0000000e+00 
4.0000001e-01 2.0000000e+00 0.0000000e+00 
6.0000002e-01 2.0000000e+00 0.0000000e+00 
8.0000001e-01 2.0000000e+00 0.0000000e+00 
1.0000000e+00 2.0000000e+00 0.0000000e+00 
1.2000000e+00 2.0000000e+00 0.0000000e+00 
1.4000000e+00 2.0000000e+00 0.0000000e+00 
1.6000000e+00 2.0000000e+00 0.0000000e+00 
1.8000000e+00 2.0000000e+00 0.0000000e+00 

CELLS 60 180
2 0 1
2 1 2
2 2 3
2 3 4
2 4 5
2 5 6
2 6 7
2 7 8
2 8 9
2 9 10
2 10 11
2 11 12
2 12 13
2 13 14
2 14 15
2 15 16
2 16 17
2 17 18
2 18 19
2 19 20
2 20 21
2 21 22
2 22 23
2 23 24
2 24 25
2 25 26
2 26 27
2 27 28
2 28 29
2 29 30
2 30 31
2 31 32
2 32 33
2 33 34
2 34 35
2 35 36
2 36 37
2 37 38
2 38 39
2 39 40
2 40 41
2 41 42
2 42 43
2 43 44
2 44 45
2 45 46
2 46 47
2 47 48
2 48 49
2 49 50
2 10 51
2 51 52
2 52 53
2 53 54
2 54 55
2 55 56
2 56 57
2 57 58
2 58 59
2 59 40

CELL_TYPES 60
3
3
3
3
3
3
3
3
3
3
3
3
3
3
3
3
3
3
3
3
3
3
3
3
3
3
3
3
3
3
3
3
3
3
3
3
3
3
3
3
3
3
3
3
3
3
3
3
3
3
3
3
3
3
3
3
3
3
3
3
POINT_DATA 60
FIELD FieldData 6
DISPLACEMENT 3 60  float
0.0000000e+00 0.0000000e+00 0.0000000e+00 
-9.0622139e-05 -7.3742231e-05 0.0000000e+00 
-3.2232722e-04 -1.4748446e-04 0.0000000e+00 
-6.3487329e-04 -2.2122670e-04 0.0000000e+00 
-9.6801831e-04 -2.9496892e-04 0.0000000e+00 
-1.2615203e-03 -3.6871116e-04 0.0000000e+00 
-1.4551374e-03 -4.4245340e-04 0.0000000e+00 
-1.4886274e-03 -5.1619567e-04 0.0000000e+00 
-1.3017484e-03 -5.8993784e-04 0.0000000e+00 
-8.3425856e-04 -6.6368008e-04 0.0000000e+00 
-2.5915690e-05 -7.3742232e-04 0.0000000e+00 
6.0482853e-04 -7.7429344e-04 0.0000000e+00 
6.1885919e-04 -8.1116456e-04 0.0000000e+00 
1.9542304e-04 -8.4803568e-04 0.0000000e+00 
-4.8623304e-04 -8.8490680e-04 0.0000000e+00 
-1.2468622e-03 -9.2177792e-04 0.0000000e+00 
-1.9072177e-03 -9.5864903e-04 0.0000000e+00 
-2.2880526e-03 -9.9552015e-04 0.0000000e+00 
-2.2101200e-03 -1.0323913e-03 0.0000000e+00 
-1.4941733e-03 -1.0692624e-03 0.0000000e+00 
3.9034589e-05 -1.1061336e-03 0.0000000e+00 
3.1227672e-05 -3.4789906e-03 0.0000000e+00 
2.3420755e-05 -6.1146696e-03 0.0000000e+00 
1.5613836e-05 -8.4205782e-03 0.0000000e+00 
7.8069179e-06 -9.9734357e-03 0.0000000e+00 
-1.2777046e-15 -1.0519273e-02 0.0000000e+00 
-7.8069179e-06 -9.9734357e-03 0.0000000e+00 
-1.5613836e-05 -8.4205782e-03 0.0000000e+00 
-2.3420755e-05 -6.1146696e-03 0.0000000e+00 
-3.1227672e-05 -3.4789906e-03 0.0000000e+00 
-3.9034589e-05 -1.1061336e-03 0.0000000e+00 
1.4941733e-03 -1.0692624e-03 0.0000000e+00 
2.2101200e-03 -1.0323913e-03 0.0000000e+00 
2.2880526e-03 -9.9552015e-04 0.0000000e+00 
1.9072177e-03 -9.5864903e-04 0.0000000e+00 
1.2468622e-03 -9.2177792e-04 0.0000000e+00 
4.8623304e-04 -8.8490680e-04 0.0000000e+00 
-1.9542304e-04 -8.4803568e-04 0.0000000e+00 
-6.1885919e-04 -8.1116456e-04 0.0000000e+00 
-6.0482853e-04 -7.7429344e-04 0.0000000e+00 
2.5915690e-05 -7.3742232e-04 0.0000000e+00 
8.3425856e-04 -6.6368008e-04 0.0000000e+00 
1.3017484e-03 -5.8993784e-04 0.0000000e+00 
1.4886274e-03 -5.1619567e-04 0.0000000e+00 
1.4551374e-03 -4.4245340e-04 0.0000000e+00 
1.2615203e-03 -3.6871116e-04 0.0000000e+00 
9.6801831e-04 -2.9496892e-04 0.0000000e+00 
6.3487329e-04 -2.2122670e-04 0.0000000e+00 
3.2232722e-04 -1.4748446e-04 0.0000000e+00 
9.0622139e-05 -7.3742231e-05 0.0000000e+00 
0.0000000e+00 0.0000000e+00 0.0000000e+00 
-2.0732552e-05 -2.2078159e-03 0.0000000e+00 
-1.5549414e-05 -4.1415789e-03 0.0000000e+00 
-1.0366276e-05 -5.9461184e-03 0.0000000e+00 
-5.1831380e-06 -7.1981545e-03 0.0000000e+00 
-6.2686320e-16 -7.6437183e-03 0.0000000e+00 
5.1831380e-06 -7.1981545e-03 0.0000000e+00 
1.0366276e-05 -5.9461184e-03 0.0000000e+00 
1.5549414e-05 -4.1415789e-03 0.0000000e+00 
2.0732552e-05 -2.2078159e-03 0.0000000e+00 
REACTION 3 60  float
7.0770654e+02 2.0002125e+04 0.0000000e+00 
-6.7131066e+00 -3.0364780e+01 0.0000000e+00 
-3.8218606e+00 -2.9576658e+01 0.0000000e+00 
-9.6983737e-01 -8.9547157e+00 0.0000000e+00 
1.8680158e+00 1.6721027e+01 0.0000000e+00 
4.7316303e+00 3.2670650e+01 0.0000000e+00 
7.6323042e+00 2.4114061e+01 0.0000000e+00 
1.0509188e+01 -2.3728935e+01 0.0000000e+00 
1.3185769e+01 -1.2563773e+02 0.0000000e+00 
1.5326379e+01 -2.9638861e+02 0.0000000e+00 
-1.4223165e+03 1.7528368e+02 0.0000000e+00 
-1.4140895e+01 2.7629236e+02 0.0000000e+00 
-1.0288438e+01 -1.1686951e+02 0.0000000e+00 
-5.6521354e+00 -1.9085031e+02 0.0000000e+00 
-1.6206702e+00 -7.6433487e+01 0.0000000e+00 
2.0675752e+00 9.5600227e+01 0.0000000e+00 
6.1789217e+00 1.9447643e+02 0.0000000e+00 
1.0838857e+01 8.9413094e+01 0.0000000e+00 
1.4386427e+01 -3.5037103e+02 0.0000000e+00 
1.2229009e+01 -1.2555862e+03 0.0000000e+00 
-3.7398665e+03 1.6255204e+03 0.0000000e+00 
-9.0691907e+02 9.6230412e+00 0.0000000e+00 
1.0701521e+03 -1.1022775e+01 0.0000000e+00 
1.9358076e+03 -1.4480716e+01 0.0000000e+00 
1.4124962e+03 -2.7668397e+00 0.0000000e+00 
8.5947249e-11 4.6212511e+00 0.0000000e+00 
-1.4124962e+03 -2.7668409e+00 0.0000000e+00 
-1.9358076e+03 -1.4480714e+01 0.0000000e+00 
-1.0701521e+03 -1.1022776e+01 0.0000000e+00 
9.0691907e+02 9.6230412e+00 0.0000000e+00 
3.7398665e+03 1.6255204e+03 0.0000000e+00 
-1.2229009e+01 -1.2555862e+03 0.0000000e+00 
-1.4386427e+01 -3.5037103e+02 0.0000000e+00 
-1.0838857e+01 8.9413094e+01 0.0000000e+00 
-6.1789217e+00 1.9447643e+02 0.0000000e+00 
-2.0675752e+00 9.5600227e+01 0.0000000e+00 
1.6206702e+00 -7.6433487e+01 0.0000000e+00 
5.6521354e+00 -1.9085031e+02 0.0000000e+00 
1.0288438e+01 -1.1686951e+02 0.0000000e+00 
1.4140895e+01 2.7629236e+02 0.0000000e+00 
1.4223165e+03 1.7528368e+02 0.0000000e+00 
-1.5326379e+01 -2.9638861e+02 0.0000000e+00 
-1.3185769e+01 -1.2563773e+02 0.0000000e+00 
-1.0509188e+01 -2.3728935e+01 0.0000000e+00 
-7.6323042e+00 2.4114061e+01 0.0000000e+00 
-4.7316308e+00 3.2670650e+01 0.0000000e+00 
-1.8680156e+00 1.6721027e+01 0.0000000e+00 
9.6983737e-01 -8.9547157e+00 0.0000000e+00 
3.8218606e+00 -2.9576658e+01 0.0000000e+00 
6.7131066e+00 -3.0364780e+01 0.0000000e+00 
-7.0770654e+02 2.0002125e+04 0.0000000e+00 
-1.0677896e+03 1.0493502e+01 0.0000000e+00 
3.0490347e+02 -2.8791952e+00 0.0000000e+00 
1.1185094e+03 -9.9222889e+00 0.0000000e+00 
9.1161993e+02 -6.5402551e+00 0.0000000e+00 
-7.4419404e-09 -3.2269354e+00 0.0000000e+00 
-9.1161993e+02 -6.5402551e+00 0.0000000e+00 
-1.1185094e+03 -9.9222889e+00 0.0000000e+00 
-3.0490347e+02 -2.8791952e+00 0.0000000e+00 
1.0677896e+03 1.0493502e+01 0.0000000e+00 
ROTATION 3 60  float
0.0000000e+00 0.0000000e+00 0.0000000e+00 
0.0000000e+00 0.0000000e+00 8.5601973e-04 
0.0000000e+00 0.0000000e+00 1.4108295e-03 
0.0000000e+00 0.0000000e+00 1.6644294e-03 
0.0000000e+00 0.0000000e+00 1.6168193e-03 
0.0000000e+00 0.0000000e+00 1.2679993e-03 
0.0000000e+00 0.0000000e+00 6.1796932e-04 
0.0000000e+00 0.0000000e+00 -3.3327061e-04 
0.0000000e+00 0.0000000e+00 -1.5857205e-03 
0.0000000e+00 0.0000000e+00 -3.1393804e-03 
0.0000000e+00 0.0000000e+00 -4.9942499e-03 
0.0000000e+00 0.0000000e+00 -1.4625648e-03 
0.0000000e+00 0.0000000e+00 1.1728861e-03 
0.0000000e+00 0.0000000e+00 2.9121030e-03 
0.0000000e+00 0.0000000e+00 3.7550856e-03 
0.0000000e+00 0.0000000e+00 3.7018340e-03 
0.0000000e+00 0.0000000e+00 2.7523483e-03 
0.0000000e+00 0.0000000e+00 9.0662827e-04 
0.0000000e+00 0.0000000e+00 -1.8353258e-03 
0.0000000e+00 0.0000000e+00 -5.4735141e-03 
0.0000000e+00 0.0000000e+00 -1.0007937e-02 
0.0000000e+00 0.0000000e+00 -1.3085715e-02 
0.0000000e+00 0.0000000e+00 -1.2777248e-02 
0.0000000e+00 0.0000000e+00 -9.9291010e-03 
0.0000000e+00 0.0000000e+00 -5.3878305e-03 
0.0000000e+00 0.0000000e+00 -5.7489047e-16 
0.0000000e+00 0.0000000e+00 5.3878305e-03 
0.0000000e+00 0.0000000e+00 9.9291010e-03 
0.0000000e+00 0.0000000e+00 1.2777248e-02 
0.0000000e+00 0.0000000e+00 1.3085715e-02 
0.0000000e+00 0.0000000e+00 1.0007937e-02 
0.0000000e+00 0.0000000e+00 5.4735141e-03 
0.0000000e+00 0.0000000e+00 1.8353258e-03 
0.0000000e+00 0.0000000e+00 -9.0662827e-04 
0.0000000e+00 0.0000000e+00 -2.7523483e-03 
0.0000000e+00 0.0000000e+00 -3.7018340e-03 
0.0000000e+00 0.0000000e+00 -3.7550856e-03 
0.0000000e+00 0.0000000e+00 -2.9121030e-03 
0.0000000e+00 0.0000000e+00 -1.1728861e-03 
0.0000000e+00 0.0000000e+00 1.4625648e-03 
0.0000000e+00 0.0000000e+00 4.9942499e-03 
0.0000000e+00 0.0000000e+00 3.1393804e-03 
0.0000000e+00 0.0000000e+00 1.5857205e-03 
0.0000000e+00 0.0000000e+00 3.3327061e-04 
0.0000000e+00 0.0000000e+00 -6.1796932e-04 
0.0000000e+00 0.0000000e+00 -1.2679993e-03 
0.0000000e+00 0.0000000e+00 -1.6168193e-03 
0.0000000e+00 0.0000000e+00 -1.6644294e-03 
0.0000000e+00 0.0000000e+00 -1.4108295e-03 
0.0000000e+00 0.0000000e+00 -8.5601973e-04 
0.0000000e+00 0.0000000e+00 0.0000000e+00 
0.0000000e+00 0.0000000e+00 -9.0747653e-03 
0.0000000e+00 0.0000000e+00 -9.7690364e-03 
0.0000000e+00 0.0000000e+00 -7.9236263e-03 
0.0000000e+00 0.0000000e+00 -4.3850932e-03 
0.0000000e+00 0.0000000e+00 -1.1497809e-16 
0.0000000e+00 0.0000000e+00 4.3850932e-03 
0.0000000e+00 0.0000000e+00 7.9236263e-03 
0.0000000e+00 0.0000000e+00 9.7690364e-03 
0.0000000e+00 0.0000000e+00 9.0747653e-03 
REACTION_MOMENT 3 60  float
0.0000000e+00 0.0000000e+00 -4.7598410e+02 
0.0000000e+00 0.0000000e+00 -1.7644937e+00 
0.0000000e+00 0.0000000e+00 -2.9213433e+00 
0.0000000e+00 0.0000000e+00 -3.4487641e+00 
0.0000000e+00 0.0000000e+00 -3.3498273e+00 
0.0000000e+00 0.0000000e+00 -2.6238723e+00 
0.0000000e+00 0.0000000e+00 -1.2672427e+00 
0.0000000e+00 0.0000000e+00 7.2132200e-01 
0.0000000e+00 0.0000000e+00 3.3306377e+00 
0.0000000e+00 0.0000000e+00 6.5223708e+00 
0.0000000e+00 0.0000000e+00 5.4546728e+00 
0.0000000e+00 0.0000000e+00 1.5445156e+00 
0.0000000e+00 0.0000000e+00 -1.1821022e+00 
0.0000000e+00 0.0000000e+00 -2.9611876e+00 
0.0000000e+00 0.0000000e+00 -3.7962046e+00 
0.0000000e+00 0.0000000e+00 -3.7441847e+00 
0.0000000e+00 0.0000000e+00 -2.8004556e+00 
0.0000000e+00 0.0000000e+00 -9.0592343e-01 
0.0000000e+00 0.0000000e+00 1.9230930e+00 
0.0000000e+00 0.0000000e+00 5.3424892e+00 
0.0000000e+00 0.0000000e+00 3.6236756e+00 
0.0000000e+00 0.0000000e+00 -1.0557101e+00 
0.0000000e+00 0.0000000e+00 -9.3331659e-01 
0.0000000e+00 0.0000000e+00 2.8878444e-01 
0.0000000e+00 0.0000000e+00 7.6822394e-01 
0.0000000e+00 0.0000000e+00 -3.2941898e-09 
0.0000000e+00 0.0000000e+00 -7.6822406e-01 
0.0000000e+00 0.0000000e+00 -2.8878447e-01 
0.0000000e+00 0.0000000e+00 9.3331665e-01 
0.0000000e+00 0.0000000e+00 1.0557100e+00 
0.0000000e+00 0.0000000e+00 -3.6236758e+00 
0.0000000e+00 0.0000000e+00 -5.3424892e+00 
0.0000000e+00 0.0000000e+00 -1.9230930e+00 
0.0000000e+00 0.0000000e+00 9.0592343e-01 
0.0000000e+00 0.0000000e+00 2.8004556e+00 
0.0000000e+00 0.0000000e+00 3.7441847e+00 
0.0000000e+00 0.0000000e+00 3.7962046e+00 
0.0000000e+00 0.0000000e+00 2.9611876e+00 
0.0000000e+00 0.0000000e+00 1.1821022e+00 
0.0000000e+00 0.0000000e+00 -1.5445156e+00 
0.0000000e+00 0.0000000e+00 -5.4546728e+00 
0.0000000e+00 0.0000000e+00 -6.5223708e+00 
0.0000000e+00 0.0000000e+00 -3.3306377e+00 
0.0000000e+00 0.0000000e+00 -7.2132200e-01 
0.0000000e+00 0.0000000e+00 1.2672427e+00 
0.0000000e+00 0.0000000e+00 2.6238723e+00 
0.0000000e+00 0.0000000e+00 3.3498273e+00 
0.0000000e+00 0.0000000e+00 3.4487641e+00 
0.0000000e+00 0.0000000e+00 2.9213433e+00 
0.0000000e+00 0.0000000e+00 1.7644937e+00 
0.0000000e+00 0.0000000e+00 4.7598410e+02 
0.0000000e+00 0.0000000e+00 -2.6122224e+00 
0.0000000e+00 0.0000000e+00 -3.0480173e+00 
0.0000000e+00 0.0000000e+00 -2.0940349e+00 
0.0000000e+00 0.0000000e+00 -8.6027116e-01 
0.0000000e+00 0.0000000e+00 -3.8630787e-09 
0.0000000e+00 0.0000000e+00 8.6027116e-01 
0.0000000e+00 0.0000000e+00 2.0940349e+00 
0.0000000e+00 0.0000000e+00 3.0480173e+00 
0.0000000e+00 0.0000000e+00 2.6122224e+00 
FORCE 3 60  float
-2.0001803e+04 7.1677301e+02 0.0000000e+00 
-1.9986369e+04 7.2045618e+02 0.0000000e+00 
-1.9956002e+04 7.2624286e+02 0.0000000e+00 
-1.9936555e+04 7.2888135e+02 0.0000000e+00 
-1.9940473e+04 7.2838641e+02 0.0000000e+00 
-1.9965418e+04 7.2475482e+02 0.0000000e+00 
-1.9994273e+04 7.1796906e+02 0.0000000e+00 
-1.9995143e+04 7.0802435e+02 0.0000000e+00 
-1.9921352e+04 6.9497888e+02 0.0000000e+00 
-1.9711439e+04 6.7902728e+02 0.0000000e+00 
-8.8065479e+03 -2.0733479e+03 0.0000000e+00 
-9.8668281e+03 2.1096958e+03 0.0000000e+00 
-9.9409580e+03 2.1232881e+03 0.0000000e+00 
-9.7834121e+03 2.1321851e+03 0.0000000e+00 
-9.6479834e+03 2.1363691e+03 0.0000000e+00 
-9.6576797e+03 2.1361084e+03 0.0000000e+00 
-9.8047305e+03 2.1313804e+03 0.0000000e+00 
-9.9505869e+03 2.1219089e+03 0.0000000e+00 
-9.8259150e+03 2.1078130e+03 0.0000000e+00 
-9.0306221e+03 2.0908696e+03 0.0000000e+00 
-3.3529724e+03 -3.4579314e+03 0.0000000e+00 
2.1464841e+03 -7.9946450e+03 0.0000000e+00 
2.0403019e+03 -5.9952446e+03 0.0000000e+00 
5.0280515e+02 -4.0011511e+03 0.0000000e+00 
-1.1988514e+03 -2.0035620e+03 0.0000000e+00 
-1.9153997e+03 1.5738522e-08 0.0000000e+00 
-1.1988514e+03 2.0035620e+03 0.0000000e+00 
5.0280515e+02 4.0011511e+03 0.0000000e+00 
2.0403019e+03 5.9952446e+03 0.0000000e+00 
2.1464841e+03 7.9946450e+03 0.0000000e+00 
-3.3529724e+03 3.4579314e+03 0.0000000e+00 
-9.0306221e+03 -2.0908696e+03 0.0000000e+00 
-9.8259150e+03 -2.1078130e+03 0.0000000e+00 
-9.9505869e+03 -2.1219089e+03 0.0000000e+00 
-9.8047305e+03 -2.1313804e+03 0.0000000e+00 
-9.6576797e+03 -2.1361084e+03 0.0000000e+00 
-9.6479834e+03 -2.1363691e+03 0.0000000e+00 
-9.7834121e+03 -2.1321851e+03 0.0000000e+00 
-9.9409580e+03 -2.1232881e+03 0.0000000e+00 
-9.8668281e+03 -2.1096958e+03 0.0000000e+00 
-8.8065479e+03 2.0733479e+03 0.0000000e+00 
-1.9711439e+04 -6.7902728e+02 0.0000000e+00 
-1.9921352e+04 -6.9497888e+02 0.0000000e+00 
-1.9995143e+04 -7.0802435e+02 0.0000000e+00 
-1.9994273e+04 -7.1796906e+02 0.0000000e+00 
-1.9965418e+04 -7.2475482e+02 0.0000000e+00 
-1.9940473e+04 -7.2838641e+02 0.0000000e+00 
-1.9936555e+04 -7.2888135e+02 0.0000000e+00 
-1.9956002e+04 -7.2624286e+02 0.0000000e+00 
-1.9986369e+04 -7.2045618e+02 0.0000000e+00 
-2.0001803e+04 -7.1677301e+02 0.0000000e+00 
3.4061575e+03 -7.9867944e+03 0.0000000e+00 
3.7770764e+03 -5.9847173e+03 0.0000000e+00 
3.0409163e+03 -3.9893884e+03 0.0000000e+00 
2.0043982e+03 -1.9955461e+03 0.0000000e+00 
1.5403064e+03 1.8884165e-08 0.0000000e+00 
2.0043982e+03 1.9955461e+03 0.0000000e+00 
3.0409163e+03 3.9893884e+03 0.0000000e+00 
3.7770764e+03 5.9847173e+03 0.0000000e+00 
3.4061575e+03 7.9867944e+03 0.0000000e+00 
MOMENT 3 60  float
0.0000000e+00 0.0000000e+00 -4.1975003e+02 
0.0000000e+00 0.0000000e+00 -3.3327557e+02 
0.0000000e+00 0.0000000e+00 -1.9096786e+02 
0.0000000e+00 0.0000000e+00 -4.8660255e+01 
0.0000000e+00 0.0000000e+00 9.3647331e+01 
0.0000000e+00 0.0000000e+00 2.3595497e+02 
0.0000000e+00 0.0000000e+00 3.7826273e+02 
0.0000000e+00 0.0000000e+00 5.2057050e+02 
0.0000000e+00 0.0000000e+00 6.6287799e+02 
0.0000000e+00 0.0000000e+00 8.0518475e+02 
0.0000000e+00 0.0000000e+00 4.3292844e+02 
0.0000000e+00 0.0000000e+00 -1.4569152e+03 
0.0000000e+00 0.0000000e+00 -1.0334640e+03 
0.0000000e+00 0.0000000e+00 -6.1001300e+02 
0.0000000e+00 0.0000000e+00 -1.8656403e+02 
0.0000000e+00 0.0000000e+00 2.3688411e+02 
0.0000000e+00 0.0000000e+00 6.6033331e+02 
0.0000000e+00 0.0000000e+00 1.0837844e+03 
0.0000000e+00 0.0000000e+00 1.5072354e+03 
0.0000000e+00 0.0000000e+00 1.9306790e+03 
0.0000000e+00 0.0000000e+00 1.9174165e+03 
0.0000000e+00 0.0000000e+00 6.3269830e+02 
0.0000000e+00 0.0000000e+00 -7.6722333e+02 
0.0000000e+00 0.0000000e+00 -1.7672046e+03 
0.0000000e+00 0.0000000e+00 -2.3672292e+03 
0.0000000e+00 0.0000000e+00 -2.5672458e+03 
0.0000000e+00 0.0000000e+00 -2.3672292e+03 
0.0000000e+00 0.0000000e+00 -1.7672046e+03 
0.0000000e+00 0.0000000e+00 -7.6722333e+02 
0.0000000e+00 0.0000000e+00 6.3269830e+02 
0.0000000e+00 0.0000000e+00 1.9174165e+03 
0.0000000e+00 0.0000000e+00 1.9306790e+03 
0.0000000e+00 0.0000000e+00 1.5072354e+03 
0.0000000e+00 0.0000000e+00 1.0837844e+03 
0.0000000e+00 0.0000000e+00 6.6033331e+02 
0.0000000e+00 0.0000000e+00 2.3688411e+02 
0.0000000e+00 0.0000000e+00 -1.8656403e+02 
0.0000000e+00 0.0000000e+00 -6.1001300e+02 
0.0000000e+00 0.0000000e+00 -1.0334640e+03 
0.0000000e+00 0.0000000e+00 -1.4569152e+03 
0.0000000e+00 0.0000000e+00 4.3292844e+02 
0.0000000e+00 0.0000000e+00 8.0518475e+02 
0.0000000e+00 0.0000000e+00 6.6287799e+02 
0.0000000e+00 0.0000000e+00 5.2057050e+02 
0.0000000e+00 0.0000000e+00 3.7826273e+02 
0.0000000e+00 0.0000000e+00 2.3595497e+02 
0.0000000e+00 0.0000000e+00 9.3647331e+01 
0.0000000e+00 0.0000000e+00 -4.8660255e+01 
0.0000000e+00 0.0000000e+00 -1.9096786e+02 
0.0000000e+00 0.0000000e+00 -3.3327557e+02 
0.0000000e+00 0.0000000e+00 -4.1975003e+02 
0.0000000e+00 0.0000000e+00 1.1065081e+03 
0.0000000e+00 0.0000000e+00 -2.9346393e+02 
0.0000000e+00 0.0000000e+00 -1.2934583e+03 
0.0000000e+00 0.0000000e+00 -1.8934771e+03 
0.0000000e+00 0.0000000e+00 -2.0934890e+03 
0.0000000e+00 0.0000000e+00 -1.8934771e+03 
0.0000000e+00 0.0000000e+00 -1.2934583e+03 
0.0000000e+00 0.0000000e+00 -2.9346393e+02 
0.0000000e+00 0.0000000e+00 1.1065081e+03 
CELL_DATA 60
FIELD FieldData 2
FORCE 3 60  float
-2.0001803e+04 7.1677301e+02 0.0000000e+00 
-1.9970936e+04 7.2413928e+02 0.0000000e+00 
-1.9941070e+04 7.2834644e+02 0.0000000e+00 
-1.9932041e+04 7.2941626e+02 0.0000000e+00 
-1.9948904e+04 7.2735657e+02 0.0000000e+00 
-1.9981932e+04 7.2215308e+02 0.0000000e+00 
-2.0006615e+04 7.1378510e+02 0.0000000e+00 
-1.9983672e+04 7.0226367e+02 0.0000000e+00 
-1.9859031e+04 6.8769409e+02 0.0000000e+00 
-1.9563850e+04 6.7036053e+02 0.0000000e+00 
-9.7319473e+03 2.1017737e+03 0.0000000e+00 
-1.0001710e+04 2.1176179e+03 0.0000000e+00 
-9.8802061e+03 2.1289580e+03 0.0000000e+00 
-9.6866191e+03 2.1354121e+03 0.0000000e+00 
-9.6093477e+03 2.1373262e+03 0.0000000e+00 
-9.7060117e+03 2.1348906e+03 0.0000000e+00 
-9.9034502e+03 2.1278701e+03 0.0000000e+00 
-9.9977236e+03 2.1159475e+03 0.0000000e+00 
-9.6541064e+03 2.0996785e+03 0.0000000e+00 
-8.4071514e+03 2.0820610e+03 0.0000000e+00 
1.7002651e+03 -8.9968916e+03 0.0000000e+00 
2.5926958e+03 -6.9924150e+03 0.0000000e+00 
1.4878967e+03 -4.9980537e+03 0.0000000e+00 
-4.8232224e+02 -3.0042122e+03 0.0000000e+00 
-1.9153997e+03 -1.0028855e+03 0.0000000e+00 
-1.9153997e+03 1.0028855e+03 0.0000000e+00 
-4.8232224e+02 3.0042122e+03 0.0000000e+00 
1.4878967e+03 4.9980537e+03 0.0000000e+00 
2.5926958e+03 6.9924150e+03 0.0000000e+00 
1.7002651e+03 8.9968916e+03 0.0000000e+00 
-8.4071514e+03 -2.0820610e+03 0.0000000e+00 
-9.6541064e+03 -2.0996785e+03 0.0000000e+00 
-9.9977236e+03 -2.1159475e+03 0.0000000e+00 
-9.9034502e+03 -2.1278701e+03 0.0000000e+00 
-9.7060117e+03 -2.1348906e+03 0.0000000e+00 
-9.6093477e+03 -2.1373262e+03 0.0000000e+00 
-9.6866191e+03 -2.1354121e+03 0.0000000e+00 
-9.8802061e+03 -2.1289580e+03 0.0000000e+00 
-1.0001710e+04 -2.1176179e+03 0.0000000e+00 
-9.7319473e+03 -2.1017737e+03 0.0000000e+00 
-1.9563850e+04 -6.7036053e+02 0.0000000e+00 
-1.9859031e+04 -6.8769409e+02 0.0000000e+00 
-1.9983672e+04 -7.0226367e+02 0.0000000e+00 
-2.0006615e+04 -7.1378510e+02 0.0000000e+00 
-1.9981932e+04 -7.2215308e+02 0.0000000e+00 
-1.9948904e+04 -7.2735657e+02 0.0000000e+00 
-1.9932041e+04 -7.2941626e+02 0.0000000e+00 
-1.9941070e+04 -7.2834644e+02 0.0000000e+00 
-1.9970936e+04 -7.2413928e+02 0.0000000e+00 
-2.0001803e+04 -7.1677301e+02 0.0000000e+00 
2.8714910e+03 -8.9900742e+03 0.0000000e+00 
3.9408132e+03 -6.9835352e+03 0.0000000e+00 
3.6133384e+03 -4.9858936e+03 0.0000000e+00 
2.4684819e+03 -2.9928623e+03 0.0000000e+00 
1.5403064e+03 -9.9821289e+02 0.0000000e+00 
1.5403064e+03 9.9821289e+02 0.0000000e+00 
2.4684819e+03 2.9928623e+03 0.0000000e+00 
3.6133384e+03 4.9858936e+03 0.0000000e+00 
3.9408132e+03 6.9835352e+03 0.0000000e+00 
2.8714910e+03 8.9900742e+03 0.0000000e+00 
MOMENT 3 60  float
0.0000000e+00 0.0000000e+00 -4.0433322e+02 
0.0000000e+00 0.0000000e+00 -2.6205954e+02 
0.0000000e+00 0.0000000e+00 -1.1978573e+02 
0.0000000e+00 0.0000000e+00 2.2488222e+01 
0.0000000e+00 0.0000000e+00 1.6476215e+02 
0.0000000e+00 0.0000000e+00 3.0703589e+02 
0.0000000e+00 0.0000000e+00 4.4930957e+02 
0.0000000e+00 0.0000000e+00 5.9158356e+02 
0.0000000e+00 0.0000000e+00 7.3385895e+02 
0.0000000e+00 0.0000000e+00 8.7613745e+02 
0.0000000e+00 0.0000000e+00 -1.6684479e+03 
0.0000000e+00 0.0000000e+00 -1.2450410e+03 
0.0000000e+00 0.0000000e+00 -8.2164325e+02 
0.0000000e+00 0.0000000e+00 -3.9824435e+02 
0.0000000e+00 0.0000000e+00 2.5157303e+01 
0.0000000e+00 0.0000000e+00 4.4855875e+02 
0.0000000e+00 0.0000000e+00 8.7195734e+02 
0.0000000e+00 0.0000000e+00 1.2953553e+03 
0.0000000e+00 0.0000000e+00 1.7187646e+03 
0.0000000e+00 0.0000000e+00 2.1422114e+03 
0.0000000e+00 0.0000000e+00 1.4542916e+03 
0.0000000e+00 0.0000000e+00 -1.4575639e+02 
0.0000000e+00 0.0000000e+00 -1.3457837e+03 
0.0000000e+00 0.0000000e+00 -2.1457327e+03 
0.0000000e+00 0.0000000e+00 -2.5456680e+03 
0.0000000e+00 0.0000000e+00 -2.5456680e+03 
0.0000000e+00 0.0000000e+00 -2.1457327e+03 
0.0000000e+00 0.0000000e+00 -1.3457837e+03 
0.0000000e+00 0.0000000e+00 -1.4575639e+02 
0.0000000e+00 0.0000000e+00 1.4542916e+03 
0.0000000e+00 0.0000000e+00 2.1422114e+03 
0.0000000e+00 0.0000000e+00 1.7187646e+03 
0.0000000e+00 0.0000000e+00 1.2953553e+03 
0.0000000e+00 0.0000000e+00 8.7195734e+02 
0.0000000e+00 0.0000000e+00 4.4855875e+02 
0.0000000e+00 0.0000000e+00 2.5157303e+01 
0.0000000e+00 0.0000000e+00 -3.9824435e+02 
0.0000000e+00 0.0000000e+00 -8.2164325e+02 
0.0000000e+00 0.0000000e+00 -1.2450410e+03 
0.0000000e+00 0.0000000e+00 -1.6684479e+03 
0.0000000e+00 0.0000000e+00 8.7613745e+02 
0.0000000e+00 0.0000000e+00 7.3385895e+02 
0.0000000e+00 0.0000000e+00 5.9158356e+02 
0.0000000e+00 0.0000000e+00 4.4930957e+02 
0.0000000e+00 0.0000000e+00 3.0703589e+02 
0.0000000e+00 0.0000000e+00 1.6476215e+02 
0.0000000e+00 0.0000000e+00 2.2488222e+01 
0.0000000e+00 0.0000000e+00 -1.1978573e+02 
0.0000000e+00 0.0000000e+00 -2.6205954e+02 
0.0000000e+00 0.0000000e+00 -4.0433322e+02 
0.0000000e+00 0.0000000e+00 1.9281366e+03 
0.0000000e+00 0.0000000e+00 3.2806516e+02 
0.0000000e+00 0.0000000e+00 -8.7200970e+02 
0.0000000e+00 0.0000000e+00 -1.6720261e+03 
0.0000000e+00 0.0000000e+00 -2.0720103e+03 
0.0000000e+00 0.0000000e+00 -2.0720103e+03 
0.0000000e+00 0.0000000e+00 -1.6720261e+03 
0.0000000e+00 0.0000000e+00 -8.7200970e+02 
0.0000000e+00 0.0000000e+00 3.2806516e+02 
0.0000000e+00 0.0000000e+00 1.9281366e+03 
