# vtk DataFile Version 4.0
vtk output
ASCII
DATASET UNSTRUCTURED_GRID
POINTS 22 float
0.0000000e+00 0.0000000e+00 0.0000000e+00 
1.0000000e-01 0.0000000e+00 0.0000000e+00 
2.0000000e-01 0.0000000e+00 0.0000000e+00 
3.0000001e-01 0.0000000e+00 0.0000000e+00 
4.0000001e-01 0.0000000e+00 0.0000000e+00 
5.0000000e-01 0.0000000e+00 0.0000000e+00 
6.0000002e-01 0.0000000e+00 0.0000000e+00 
6.9999999e-01 0.0000000e+00 0.0000000e+00 
8.0000001e-01 0.0000000e+00 0.0000000e+00 
8.9999998e-01 0.0000000e+00 0.0000000e+00 
1.0000000e+00 0.0000000e+00 0.0000000e+00 
1.0000000e+00 0.0000000e+00 0.0000000e+00 
1.1000000e+00 0.0000000e+00 0.0000000e+00 
1.2000000e+00 0.0000000e+00 0.0000000e+00 
1.3000000e+00 0.0000000e+00 0.0000000e+00 
1.4000000e+00 0.0000000e+00 0.0000000e+00 
1.5000000e+00 0.0000000e+00 0.0000000e+00 
1.6000000e+00 0.0000000e+00 0.0000000e+00 
1.7000000e+00 0.0000000e+00 0.0000000e+00 
1.8000000e+00 0.0000000e+00 0.0000000e+00 
1.9000000e+00 0.0000000e+00 0.0000000e+00 
2.0000000e+00 0.0000000e+00 0.0000000e+00 

CELLS 20 60
2 0 1
2 1 2
2 2 3
2 3 4
2 4 5
2 5 6
2 6 7
2 7 8
2 8 9
2 9 10
2 11 12
2 12 13
2 13 14
2 14 15
2 15 16
2 16 17
2 17 18
2 18 19
2 19 20
2 20 21

CELL_TYPES 20
3
3
3
3
3
3
3
3
3
3
3
3
3
3
3
3
3
3
3
3
POINT_DATA 22
FIELD FieldData 4
DISPLACEMENT 3 22  float
0.0000000e+00 0.0000000e+00 0.0000000e+00 
0.0000000e+00 -2.4999999e-03 0.0000000e+00 
0.0000000e+00 -9.9999998e-03 0.0000000e+00 
0.0000000e+00 -2.2500001e-02 0.0000000e+00 
0.0000000e+00 -3.9999999e-02 0.0000000e+00 
0.0000000e+00 -6.2500000e-02 0.0000000e+00 
0.0000000e+00 -9.0000004e-02 0.0000000e+00 
0.0000000e+00 -1.2250000e-01 0.0000000e+00 
0.0000000e+00 -1.6000000e-01 0.0000000e+00 
0.0000000e+00 -2.0250000e-01 0.0000000e+00 
0.0000000e+00 -2.5000000e-01 0.0000000e+00 
0.0000000e+00 -2.5000000e-01 0.0000000e+00 
0.0000000e+00 -2.0250000e-01 0.0000000e+00 
0.0000000e+00 -1.6000000e-01 0.0000000e+00 
0.0000000e+00 -1.2250000e-01 0.0000000e+00 
0.0000000e+00 -9.0000004e-02 0.0000000e+00 
0.0000000e+00 -6.2500000e-02 0.0000000e+00 
0.0000000e+00 -3.9999999e-02 0.0000000e+00 
0.0000000e+00 -2.2500001e-02 0.0000000e+00 
0.0000000e+00 -9.9999998e-03 0.0000000e+00 
0.0000000e+00 -2.4999999e-03 0.0000000e+00 
0.0000000e+00 0.0000000e+00 0.0000000e+00 
ROTATION 3 22  float
0.0000000e+00 0.0000000e+00 0.0000000e+00 
0.0000000e+00 0.0000000e+00 -5.0000001e-02 
0.0000000e+00 0.0000000e+00 -1.0000000e-01 
0.0000000e+00 0.0000000e+00 -1.5000001e-01 
0.0000000e+00 0.0000000e+00 -2.0000000e-01 
0.0000000e+00 0.0000000e+00 -2.5000000e-01 
0.0000000e+00 0.0000000e+00 -3.0000001e-01 
0.0000000e+00 0.0000000e+00 -3.4999999e-01 
0.0000000e+00 0.0000000e+00 -4.0000001e-01 
0.0000000e+00 0.0000000e+00 -4.4999999e-01 
0.0000000e+00 0.0000000e+00 -5.0000000e-01 
0.0000000e+00 0.0000000e+00 5.0000000e-01 
0.0000000e+00 0.0000000e+00 4.4999999e-01 
0.0000000e+00 0.0000000e+00 4.0000001e-01 
0.0000000e+00 0.0000000e+00 3.4999999e-01 
0.0000000e+00 0.0000000e+00 3.0000001e-01 
0.0000000e+00 0.0000000e+00 2.5000000e-01 
0.0000000e+00 0.0000000e+00 2.0000000e-01 
0.0000000e+00 0.0000000e+00 1.5000001e-01 
0.0000000e+00 0.0000000e+00 1.0000000e-01 
0.0000000e+00 0.0000000e+00 5.0000001e-02 
0.0000000e+00 0.0000000e+00 0.0000000e+00 
REACTION 3 22  float
-0.0000000e+00 1.5795231e-06 0.0000000e+00 
-0.0000000e+00 -0.0000000e+00 0.0000000e+00 
-0.0000000e+00 -0.0000000e+00 0.0000000e+00 
-0.0000000e+00 -1.4901161e-08 0.0000000e+00 
-0.0000000e+00 1.4901161e-08 0.0000000e+00 
-0.0000000e+00 -8.9406967e-08 0.0000000e+00 
-0.0000000e+00 8.9406967e-08 0.0000000e+00 
-0.0000000e+00 -6.8545341e-07 0.0000000e+00 
-0.0000000e+00 1.7881393e-07 0.0000000e+00 
-0.0000000e+00 -1.1920929e-07 0.0000000e+00 
-0.0000000e+00 -9.5367432e-07 0.0000000e+00 
-0.0000000e+00 -3.5762787e-07 0.0000000e+00 
-0.0000000e+00 2.9802322e-07 0.0000000e+00 
-0.0000000e+00 -4.4703484e-07 0.0000000e+00 
-0.0000000e+00 -8.3446503e-07 0.0000000e+00 
-0.0000000e+00 2.3841858e-07 0.0000000e+00 
-0.0000000e+00 -4.3213367e-07 0.0000000e+00 
-0.0000000e+00 1.4901161e-08 0.0000000e+00 
-0.0000000e+00 1.0430813e-07 0.0000000e+00 
-0.0000000e+00 -2.6077032e-08 0.0000000e+00 
-0.0000000e+00 -7.4505806e-09 0.0000000e+00 
-0.0000000e+00 1.4491379e-06 0.0000000e+00 
REACTION_MOMENT 3 22  float
0.0000000e+00 0.0000000e+00 5.2500000e+05 
0.0000000e+00 0.0000000e+00 -6.9849193e-10 
0.0000000e+00 0.0000000e+00 4.6566129e-10 
0.0000000e+00 0.0000000e+00 5.5879354e-09 
0.0000000e+00 0.0000000e+00 -1.7695129e-08 
0.0000000e+00 0.0000000e+00 -2.0489097e-08 
0.0000000e+00 0.0000000e+00 -7.1711838e-08 
0.0000000e+00 0.0000000e+00 5.7742000e-08 
0.0000000e+00 0.0000000e+00 -2.7939677e-08 
0.0000000e+00 0.0000000e+00 -1.1175871e-08 
-0.0000000e+00 -0.0000000e+00 -5.2500000e+05 
0.0000000e+00 0.0000000e+00 5.2500000e+05 
0.0000000e+00 0.0000000e+00 2.4773180e-07 
0.0000000e+00 0.0000000e+00 1.3038516e-08 
0.0000000e+00 0.0000000e+00 6.6123903e-08 
0.0000000e+00 0.0000000e+00 6.5192580e-09 
0.0000000e+00 0.0000000e+00 -5.8673322e-08 
0.0000000e+00 0.0000000e+00 -3.0267984e-08 
0.0000000e+00 0.0000000e+00 4.6100467e-08 
0.0000000e+00 0.0000000e+00 -6.7520887e-09 
0.0000000e+00 0.0000000e+00 1.6298145e-09 
0.0000000e+00 0.0000000e+00 -5.2500000e+05 
CELL_DATA 20
FIELD FieldData 2
MOMENT 3 20  float
0.0000000e+00 0.0000000e+00 5.2500000e+05 
0.0000000e+00 0.0000000e+00 5.2500000e+05 
0.0000000e+00 0.0000000e+00 5.2500000e+05 
0.0000000e+00 0.0000000e+00 5.2500000e+05 
0.0000000e+00 0.0000000e+00 5.2500000e+05 
0.0000000e+00 0.0000000e+00 5.2500000e+05 
0.0000000e+00 0.0000000e+00 5.2500000e+05 
0.0000000e+00 0.0000000e+00 5.2500000e+05 
0.0000000e+00 0.0000000e+00 5.2500000e+05 
0.0000000e+00 0.0000000e+00 5.2500000e+05 
0.0000000e+00 0.0000000e+00 5.2500000e+05 
0.0000000e+00 0.0000000e+00 5.2500000e+05 
0.0000000e+00 0.0000000e+00 5.2500000e+05 
0.0000000e+00 0.0000000e+00 5.2500000e+05 
0.0000000e+00 0.0000000e+00 5.2500000e+05 
0.0000000e+00 0.0000000e+00 5.2500000e+05 
0.0000000e+00 0.0000000e+00 5.2500000e+05 
0.0000000e+00 0.0000000e+00 5.2500000e+05 
0.0000000e+00 0.0000000e+00 5.2500000e+05 
0.0000000e+00 0.0000000e+00 5.2500000e+05 
FORCE 3 20  float
0.0000000e+00 -1.5795231e-06 0.0000000e+00 
0.0000000e+00 -1.5795231e-06 0.0000000e+00 
0.0000000e+00 -1.5795231e-06 0.0000000e+00 
0.0000000e+00 -1.5646219e-06 0.0000000e+00 
0.0000000e+00 -1.5795231e-06 0.0000000e+00 
0.0000000e+00 -1.4901161e-06 0.0000000e+00 
0.0000000e+00 -1.5795231e-06 0.0000000e+00 
0.0000000e+00 -8.9406967e-07 0.0000000e+00 
0.0000000e+00 -1.0728836e-06 0.0000000e+00 
0.0000000e+00 -9.5367432e-07 0.0000000e+00 
0.0000000e+00 3.5762787e-07 0.0000000e+00 
0.0000000e+00 5.9604645e-08 0.0000000e+00 
0.0000000e+00 5.0663948e-07 0.0000000e+00 
0.0000000e+00 1.3411045e-06 0.0000000e+00 
0.0000000e+00 1.1026859e-06 0.0000000e+00 
0.0000000e+00 1.5348196e-06 0.0000000e+00 
0.0000000e+00 1.5199184e-06 0.0000000e+00 
0.0000000e+00 1.4156103e-06 0.0000000e+00 
0.0000000e+00 1.4416873e-06 0.0000000e+00 
0.0000000e+00 1.4491379e-06 0.0000000e+00 
