# vtk DataFile Version 4.0
vtk output
ASCII
DATASET UNSTRUCTURED_GRID
POINTS 5 float
0.0000000e+00 0.0000000e+00 0.0000000e+00 
1.0000000e+00 0.0000000e+00 0.0000000e+00 
2.0000000e+00 0.0000000e+00 0.0000000e+00 
5.0000000e-01 0.0000000e+00 0.0000000e+00 
1.5000000e+00 0.0000000e+00 0.0000000e+00 

CELLS 4 12
2 0 3
2 3 1
2 1 4
2 4 2

CELL_TYPES 4
3
3
3
3
POINT_DATA 5
FIELD FieldData 6
DISPLACEMENT 3 5  float
0.0000000e+00 0.0000000e+00 0.0000000e+00 
0.0000000e+00 4.9563527e-24 0.0000000e+00 
0.0000000e+00 0.0000000e+00 0.0000000e+00 
0.0000000e+00 -1.4880952e-08 0.0000000e+00 
0.0000000e+00 1.4880952e-08 0.0000000e+00 
REACTION 3 5  float
-2.4514881e-07 7.5407684e-01 0.0000000e+00 
-0.0000000e+00 -0.0000000e+00 0.0000000e+00 
2.4514881e-07 -7.5407684e-01 0.0000000e+00 
-4.4764192e-08 -8.1537189e-03 0.0000000e+00 
4.4764192e-08 8.1537189e-03 0.0000000e+00 
ROTATION 3 5  float
0.0000000e+00 0.0000000e+00 0.0000000e+00 
0.0000000e+00 0.0000000e+00 1.1904762e-07 
0.0000000e+00 0.0000000e+00 0.0000000e+00 
0.0000000e+00 0.0000000e+00 -2.9761905e-08 
0.0000000e+00 0.0000000e+00 -2.9761905e-08 
REACTION_MOMENT 3 5  float
0.0000000e+00 0.0000000e+00 2.5101921e-01 
-0.0000000e+00 -0.0000000e+00 -2.0384304e-03 
0.0000000e+00 0.0000000e+00 2.5101921e-01 
0.0000000e+00 0.0000000e+00 -5.4710525e-10 
0.0000000e+00 0.0000000e+00 -5.4710525e-10 
FORCE 3 5  float
2.6765255e-07 -7.5407684e-01 0.0000000e+00 
2.6765255e-07 -7.4592316e-01 0.0000000e+00 
2.6765255e-07 -7.5407684e-01 0.0000000e+00 
2.6765255e-07 -7.5000000e-01 0.0000000e+00 
2.6765255e-07 -7.5000000e-01 0.0000000e+00 
MOMENT 3 5  float
0.0000000e+00 0.0000000e+00 1.0306288e-01 
0.0000000e+00 0.0000000e+00 3.4694470e-18 
0.0000000e+00 0.0000000e+00 -1.0306288e-01 
0.0000000e+00 0.0000000e+00 -1.2521930e-01 
0.0000000e+00 0.0000000e+00 1.2521930e-01 
CELL_DATA 4
FIELD FieldData 2
FORCE 3 4  float
2.6765255e-07 -7.5407684e-01 0.0000000e+00 
2.6765255e-07 -7.4592316e-01 0.0000000e+00 
2.6765255e-07 -7.4592316e-01 0.0000000e+00 
2.6765255e-07 -7.5407684e-01 0.0000000e+00 
MOMENT 3 4  float
0.0000000e+00 0.0000000e+00 6.2500000e-02 
0.0000000e+00 0.0000000e+00 -3.1250000e-01 
0.0000000e+00 0.0000000e+00 3.1250000e-01 
0.0000000e+00 0.0000000e+00 -6.2500000e-02 
