# vtk DataFile Version 4.0
vtk output
ASCII
DATASET UNSTRUCTURED_GRID
POINTS 6 float
0.0000000e+00 0.0000000e+00 0.0000000e+00 
0.0000000e+00 2.0000000e+00 0.0000000e+00 
0.0000000e+00 4.0000000e+00 0.0000000e+00 
2.0000000e+00 4.0000000e+00 0.0000000e+00 
2.0000000e+00 2.0000000e+00 0.0000000e+00 
2.0000000e+00 0.0000000e+00 0.0000000e+00 

CELLS 6 18
2 0 1
2 1 2
2 2 3
2 3 4
2 4 5
2 1 4

CELL_TYPES 6
3
3
3
3
3
3
POINT_DATA 6
FIELD FieldData 4
DISPLACEMENT 3 6  float
0.0000000e+00 0.0000000e+00 0.0000000e+00 
-6.6502033e-18 -6.6368011e-05 0.0000000e+00 
-7.8230019e-18 -9.9552017e-05 0.0000000e+00 
-7.8229655e-18 -9.9552017e-05 0.0000000e+00 
-6.6562161e-18 -6.6368011e-05 0.0000000e+00 
0.0000000e+00 0.0000000e+00 0.0000000e+00 
REACTION 3 6  float
1.8163918e-12 2.0000000e+04 -0.0000000e+00 
-1.4959175e-15 3.2022150e-12 -0.0000000e+00 
-1.3679742e-14 -3.1986067e-12 -0.0000000e+00 
2.4127400e-14 -0.0000000e+00 -0.0000000e+00 
-3.6409291e-12 -3.2022150e-12 -0.0000000e+00 
1.8155854e-12 2.0000000e+04 -0.0000000e+00 
ROTATION 3 6  float
0.0000000e+00 0.0000000e+00 4.4783662e-18 
0.0000000e+00 0.0000000e+00 1.0185725e-18 
0.0000000e+00 0.0000000e+00 1.5235831e-19 
0.0000000e+00 0.0000000e+00 1.5264768e-19 
0.0000000e+00 0.0000000e+00 1.0226028e-18 
0.0000000e+00 0.0000000e+00 4.4808610e-18 
REACTION_MOMENT 3 6  float
-0.0000000e+00 -0.0000000e+00 -6.0584518e-28 
-0.0000000e+00 -0.0000000e+00 2.4398965e-14 
-0.0000000e+00 -0.0000000e+00 -1.3206298e-14 
-0.0000000e+00 -0.0000000e+00 1.9330949e-14 
-0.0000000e+00 -0.0000000e+00 3.8013094e-14 
-0.0000000e+00 -0.0000000e+00 -0.0000000e+00 
CELL_DATA 6
FIELD FieldData 0
