# vtk DataFile Version 4.0
vtk output
ASCII
DATASET UNSTRUCTURED_GRID
POINTS 30 float
0.0000000e+00 0.0000000e+00 0.0000000e+00 
0.0000000e+00 0.0000000e+00 8.0000001e-01 
0.0000000e+00 0.0000000e+00 1.6000000e+00 
0.0000000e+00 0.0000000e+00 2.4000001e+00 
0.0000000e+00 0.0000000e+00 3.2000000e+00 
0.0000000e+00 0.0000000e+00 4.0000000e+00 
0.0000000e+00 0.0000000e+00 4.8000002e+00 
0.0000000e+00 0.0000000e+00 5.5999999e+00 
0.0000000e+00 0.0000000e+00 6.4000001e+00 
0.0000000e+00 0.0000000e+00 7.1999998e+00 
0.0000000e+00 0.0000000e+00 8.0000000e+00 
1.0000000e+01 0.0000000e+00 0.0000000e+00 
1.0000000e+01 0.0000000e+00 8.0000001e-01 
1.0000000e+01 0.0000000e+00 1.6000000e+00 
1.0000000e+01 0.0000000e+00 2.4000001e+00 
1.0000000e+01 0.0000000e+00 3.2000000e+00 
1.0000000e+01 0.0000000e+00 4.0000000e+00 
1.0000000e+01 0.0000000e+00 4.8000002e+00 
1.0000000e+01 0.0000000e+00 5.5999999e+00 
1.0000000e+01 0.0000000e+00 6.4000001e+00 
1.0000000e+01 0.0000000e+00 7.1999998e+00 
1.0000000e+01 0.0000000e+00 8.0000000e+00 
2.0000000e+00 0.0000000e+00 4.0000000e+00 
4.0000000e+00 0.0000000e+00 4.0000000e+00 
6.0000000e+00 0.0000000e+00 4.0000000e+00 
8.0000000e+00 0.0000000e+00 4.0000000e+00 
2.0000000e+00 0.0000000e+00 8.0000000e+00 
4.0000000e+00 0.0000000e+00 8.0000000e+00 
6.0000000e+00 0.0000000e+00 8.0000000e+00 
8.0000000e+00 0.0000000e+00 8.0000000e+00 

CELLS 30 90
2 0 1
2 1 2
2 2 3
2 3 4
2 4 5
2 5 6
2 6 7
2 7 8
2 8 9
2 9 10
2 11 12
2 12 13
2 13 14
2 14 15
2 15 16
2 16 17
2 17 18
2 18 19
2 19 20
2 20 21
2 5 22
2 22 23
2 23 24
2 24 25
2 25 16
2 10 26
2 26 27
2 27 28
2 28 29
2 29 21

CELL_TYPES 30
3
3
3
3
3
3
3
3
3
3
3
3
3
3
3
3
3
3
3
3
3
3
3
3
3
3
3
3
3
3
POINT_DATA 30
FIELD FieldData 7
DISPLACEMENT 3 30  float
0.0000000e+00 0.0000000e+00 0.0000000e+00 
-1.3541313e-03 0.0000000e+00 5.9180081e-07 
-2.6578363e-03 0.0000000e+00 1.4469501e-06 
-3.8506202e-03 0.0000000e+00 2.3020993e-06 
-4.8575308e-03 0.0000000e+00 1.7756984e-06 
-5.5662082e-03 0.0000000e+00 3.1139011e-06 
-6.0023419e-03 0.0000000e+00 4.9947216e-06 
-6.2674880e-03 0.0000000e+00 6.8755417e-06 
-6.3873897e-03 0.0000000e+00 8.7563621e-06 
-6.3877893e-03 0.0000000e+00 1.0637183e-05 
-6.2944293e-03 0.0000000e+00 1.2518003e-05 
0.0000000e+00 0.0000000e+00 0.0000000e+00 
-1.5796523e-03 0.0000000e+00 3.5536461e-06 
-3.0157159e-03 0.0000000e+00 3.9595911e-06 
-4.2135636e-03 0.0000000e+00 4.3655359e-06 
-5.0908104e-03 0.0000000e+00 4.7714807e-06 
-5.5704522e-03 0.0000000e+00 2.5796035e-06 
-5.7566660e-03 0.0000000e+00 -1.5155049e-06 
-5.8623115e-03 0.0000000e+00 -3.1128636e-06 
-5.9541194e-03 0.0000000e+00 -7.2195571e-06 
-6.0828710e-03 0.0000000e+00 -1.1326251e-05 
-6.2801451e-03 0.0000000e+00 -1.4859320e-05 
-5.5719661e-03 0.0000000e+00 8.1272906e-04 
-5.5777235e-03 0.0000000e+00 8.3169743e-04 
-5.5834814e-03 0.0000000e+00 4.2176404e-04 
-5.5804551e-03 0.0000000e+00 -4.2579108e-05 
-6.2855626e-03 0.0000000e+00 -4.4060554e-04 
-6.2860916e-03 0.0000000e+00 -8.2995906e-04 
-6.2836534e-03 0.0000000e+00 -8.8472589e-04 
-6.2859999e-03 0.0000000e+00 -5.7382643e-04 
ROTATION 3 30  float
0.0000000e+00 -1.7026452e-03 0.0000000e+00 
0.0000000e+00 -1.6727019e-03 0.0000000e+00 
0.0000000e+00 -1.5734331e-03 0.0000000e+00 
0.0000000e+00 -1.3953996e-03 0.0000000e+00 
0.0000000e+00 -1.0938237e-03 0.0000000e+00 
0.0000000e+00 -6.6276017e-04 0.0000000e+00 
0.0000000e+00 -4.3293691e-04 0.0000000e+00 
0.0000000e+00 -2.3529193e-04 0.0000000e+00 
0.0000000e+00 -6.9825182e-05 0.0000000e+00 
0.0000000e+00 6.3463325e-05 0.0000000e+00 
0.0000000e+00 1.6457359e-04 0.0000000e+00 
0.0000000e+00 -2.0070300e-03 0.0000000e+00 
0.0000000e+00 -1.9096364e-03 0.0000000e+00 
0.0000000e+00 -1.6633584e-03 0.0000000e+00 
0.0000000e+00 -1.3140978e-03 0.0000000e+00 
0.0000000e+00 -8.6185453e-04 0.0000000e+00 
0.0000000e+00 -3.2681681e-04 0.0000000e+00 
0.0000000e+00 -1.6384797e-04 0.0000000e+00 
0.0000000e+00 -1.1226225e-04 0.0000000e+00 
0.0000000e+00 -1.2755379e-04 0.0000000e+00 
0.0000000e+00 -2.0462164e-04 0.0000000e+00 
0.0000000e+00 -2.7655656e-04 0.0000000e+00 
0.0000000e+00 -1.7700045e-04 0.0000000e+00 
0.0000000e+00 1.2788670e-04 0.0000000e+00 
0.0000000e+00 2.5190125e-04 0.0000000e+00 
0.0000000e+00 1.7592305e-04 0.0000000e+00 
0.0000000e+00 2.4426170e-04 0.0000000e+00 
0.0000000e+00 1.2209527e-04 0.0000000e+00 
0.0000000e+00 -6.6462249e-05 0.0000000e+00 
0.0000000e+00 -2.4044525e-04 0.0000000e+00 
REACTION 3 30  float
2.9475425e+03 -0.0000000e+00 -1.5534772e+03 
-2.9103830e-11 -0.0000000e+00 -0.0000000e+00 
6.9849193e-10 -0.0000000e+00 1.3642421e-12 
1.2914825e-10 -0.0000000e+00 -4.5474735e-13 
2.2919266e-10 -0.0000000e+00 -1.8189894e-12 
-4.0745363e-10 -0.0000000e+00 2.3828761e-10 
-5.7480065e-09 -0.0000000e+00 7.0031092e-11 
2.0372681e-10 -0.0000000e+00 1.0913936e-11 
2.2882887e-09 -0.0000000e+00 2.9103830e-11 
4.0381565e-10 -0.0000000e+00 -0.0000000e+00 
-2.6921043e-10 -0.0000000e+00 9.0949470e-13 
9.5871611e+03 -0.0000000e+00 -9.3283213e+03 
-2.0827429e-10 -0.0000000e+00 -1.4551915e-11 
-6.4028427e-10 -0.0000000e+00 1.4551915e-11 
2.0372681e-10 -0.0000000e+00 7.2759576e-12 
1.4879333e-09 -0.0000000e+00 1.1095835e-10 
1.6298145e-09 -0.0000000e+00 6.3209882e-10 
-8.9221430e-10 -0.0000000e+00 9.0949470e-13 
1.1787051e-09 -0.0000000e+00 -1.8189894e-12 
-1.8553692e-09 -0.0000000e+00 5.4569682e-12 
3.4469849e-10 -0.0000000e+00 3.6379788e-12 
-9.9134922e-10 -0.0000000e+00 5.6297722e-10 
-0.0000000e+00 -0.0000000e+00 -4.8385118e-10 
-0.0000000e+00 -0.0000000e+00 4.7293724e-11 
2.6739144e-10 -0.0000000e+00 8.6765795e-10 
2.2155291e-09 -0.0000000e+00 1.1277734e-10 
-1.2951205e-09 -0.0000000e+00 -1.0004442e-11 
1.7407729e-09 -0.0000000e+00 3.8653525e-12 
8.4037310e-10 -0.0000000e+00 -1.3287718e-09 
-6.3664629e-10 -0.0000000e+00 -1.8189894e-12 
REACTION_MOMENT 3 30  float
-0.0000000e+00 -1.7462298e-10 -0.0000000e+00 
-0.0000000e+00 -1.7462298e-10 -0.0000000e+00 
-0.0000000e+00 -7.1304385e-10 -0.0000000e+00 
-0.0000000e+00 6.1118044e-10 -0.0000000e+00 
-0.0000000e+00 -1.2223609e-09 -0.0000000e+00 
-0.0000000e+00 -6.3664629e-10 -0.0000000e+00 
-0.0000000e+00 -2.4265319e-09 -0.0000000e+00 
-0.0000000e+00 -2.7648639e-10 -0.0000000e+00 
-0.0000000e+00 -2.3301254e-09 -0.0000000e+00 
-0.0000000e+00 9.0949470e-10 -0.0000000e+00 
-0.0000000e+00 2.4010660e-10 -0.0000000e+00 
-0.0000000e+00 -2.9103830e-11 -0.0000000e+00 
-0.0000000e+00 4.3655746e-11 -0.0000000e+00 
-0.0000000e+00 1.3096724e-10 -0.0000000e+00 
-0.0000000e+00 3.0559022e-10 -0.0000000e+00 
-0.0000000e+00 9.0949470e-11 -0.0000000e+00 
-0.0000000e+00 -3.2378011e-10 -0.0000000e+00 
-0.0000000e+00 1.8189894e-12 -0.0000000e+00 
-0.0000000e+00 -5.3660187e-10 -0.0000000e+00 
-0.0000000e+00 -7.2759576e-12 -0.0000000e+00 
-0.0000000e+00 -4.0017767e-11 -0.0000000e+00 
-0.0000000e+00 2.4374458e-10 -0.0000000e+00 
-0.0000000e+00 1.5643309e-10 -0.0000000e+00 
-0.0000000e+00 4.5474735e-11 -0.0000000e+00 
-0.0000000e+00 3.6379788e-11 -0.0000000e+00 
-0.0000000e+00 7.8216544e-11 -0.0000000e+00 
-0.0000000e+00 -2.7284841e-12 -0.0000000e+00 
-0.0000000e+00 3.6379788e-12 -0.0000000e+00 
-0.0000000e+00 -6.3664629e-12 -0.0000000e+00 
-0.0000000e+00 -1.8189894e-12 -0.0000000e+00 
VOLUME_ACCELERATION 3 30  float
0.0000000e+00 0.0000000e+00 0.0000000e+00 
0.0000000e+00 0.0000000e+00 0.0000000e+00 
0.0000000e+00 0.0000000e+00 0.0000000e+00 
0.0000000e+00 0.0000000e+00 0.0000000e+00 
0.0000000e+00 0.0000000e+00 0.0000000e+00 
0.0000000e+00 0.0000000e+00 0.0000000e+00 
0.0000000e+00 0.0000000e+00 0.0000000e+00 
0.0000000e+00 0.0000000e+00 0.0000000e+00 
0.0000000e+00 0.0000000e+00 0.0000000e+00 
0.0000000e+00 0.0000000e+00 0.0000000e+00 
0.0000000e+00 0.0000000e+00 0.0000000e+00 
0.0000000e+00 0.0000000e+00 0.0000000e+00 
0.0000000e+00 0.0000000e+00 0.0000000e+00 
0.0000000e+00 0.0000000e+00 0.0000000e+00 
0.0000000e+00 0.0000000e+00 0.0000000e+00 
0.0000000e+00 0.0000000e+00 0.0000000e+00 
0.0000000e+00 0.0000000e+00 0.0000000e+00 
0.0000000e+00 0.0000000e+00 0.0000000e+00 
0.0000000e+00 0.0000000e+00 0.0000000e+00 
0.0000000e+00 0.0000000e+00 0.0000000e+00 
0.0000000e+00 0.0000000e+00 0.0000000e+00 
0.0000000e+00 0.0000000e+00 0.0000000e+00 
0.0000000e+00 0.0000000e+00 0.0000000e+00 
0.0000000e+00 0.0000000e+00 0.0000000e+00 
0.0000000e+00 0.0000000e+00 0.0000000e+00 
0.0000000e+00 0.0000000e+00 0.0000000e+00 
0.0000000e+00 0.0000000e+00 0.0000000e+00 
0.0000000e+00 0.0000000e+00 0.0000000e+00 
0.0000000e+00 0.0000000e+00 0.0000000e+00 
0.0000000e+00 0.0000000e+00 0.0000000e+00 
POINT_LOAD 3 30  float
0.0000000e+00 0.0000000e+00 0.0000000e+00 
9.2915161e+02 0.0000000e+00 -6.9128973e+02 
0.0000000e+00 0.0000000e+00 0.0000000e+00 
4.4078291e+03 0.0000000e+00 3.6265696e+03 
-3.8226194e+03 0.0000000e+00 -4.8945845e+03 
0.0000000e+00 0.0000000e+00 0.0000000e+00 
0.0000000e+00 0.0000000e+00 0.0000000e+00 
0.0000000e+00 0.0000000e+00 0.0000000e+00 
0.0000000e+00 0.0000000e+00 0.0000000e+00 
0.0000000e+00 0.0000000e+00 0.0000000e+00 
-7.7259897e+03 0.0000000e+00 7.0297734e+03 
0.0000000e+00 0.0000000e+00 0.0000000e+00 
-4.5184873e+03 0.0000000e+00 8.2627158e+03 
0.0000000e+00 0.0000000e+00 0.0000000e+00 
0.0000000e+00 0.0000000e+00 0.0000000e+00 
-1.9872701e+03 0.0000000e+00 6.8192827e+03 
0.0000000e+00 0.0000000e+00 0.0000000e+00 
3.8789160e+03 0.0000000e+00 -6.5565928e+03 
5.0212677e+02 0.0000000e+00 6.5870044e+03 
0.0000000e+00 0.0000000e+00 0.0000000e+00 
6.5863779e+03 0.0000000e+00 -1.5057650e+03 
2.6016602e+03 0.0000000e+00 -7.2914458e+03 
0.0000000e+00 0.0000000e+00 0.0000000e+00 
0.0000000e+00 0.0000000e+00 0.0000000e+00 
-9.2232246e+03 0.0000000e+00 3.0114310e+02 
-7.3254521e+03 0.0000000e+00 3.2704668e+03 
9.8651670e+03 0.0000000e+00 -1.0060307e+03 
-3.1155967e+03 0.0000000e+00 -1.1275181e+03 
5.0239360e+03 0.0000000e+00 -1.4769043e+02 
-8.6112285e+03 0.0000000e+00 -1.7942405e+03 
POINT_MOMENT 3 30  float
0.0000000e+00 0.0000000e+00 0.0000000e+00 
0.0000000e+00 0.0000000e+00 0.0000000e+00 
0.0000000e+00 0.0000000e+00 0.0000000e+00 
0.0000000e+00 0.0000000e+00 0.0000000e+00 
0.0000000e+00 0.0000000e+00 0.0000000e+00 
0.0000000e+00 0.0000000e+00 0.0000000e+00 
0.0000000e+00 0.0000000e+00 0.0000000e+00 
0.0000000e+00 0.0000000e+00 0.0000000e+00 
0.0000000e+00 0.0000000e+00 0.0000000e+00 
0.0000000e+00 0.0000000e+00 0.0000000e+00 
0.0000000e+00 0.0000000e+00 0.0000000e+00 
0.0000000e+00 0.0000000e+00 0.0000000e+00 
0.0000000e+00 0.0000000e+00 0.0000000e+00 
0.0000000e+00 0.0000000e+00 0.0000000e+00 
0.0000000e+00 0.0000000e+00 0.0000000e+00 
0.0000000e+00 0.0000000e+00 0.0000000e+00 
0.0000000e+00 0.0000000e+00 0.0000000e+00 
0.0000000e+00 0.0000000e+00 0.0000000e+00 
0.0000000e+00 0.0000000e+00 0.0000000e+00 
0.0000000e+00 0.0000000e+00 0.0000000e+00 
0.0000000e+00 0.0000000e+00 0.0000000e+00 
0.0000000e+00 0.0000000e+00 0.0000000e+00 
0.0000000e+00 0.0000000e+00 0.0000000e+00 
0.0000000e+00 0.0000000e+00 0.0000000e+00 
0.0000000e+00 0.0000000e+00 0.0000000e+00 
0.0000000e+00 0.0000000e+00 0.0000000e+00 
0.0000000e+00 0.0000000e+00 0.0000000e+00 
0.0000000e+00 0.0000000e+00 0.0000000e+00 
0.0000000e+00 0.0000000e+00 0.0000000e+00 
0.0000000e+00 0.0000000e+00 0.0000000e+00 
CELL_DATA 30
FIELD FieldData 9
YOUNG_MODULUS 1 30  float
2.1000000e+11
2.1000000e+11
2.1000000e+11
2.1000000e+11
2.1000000e+11
2.1000000e+11
2.1000000e+11
2.1000000e+11
2.1000000e+11
2.1000000e+11
2.1000000e+11
2.1000000e+11
2.1000000e+11
2.1000000e+11
2.1000000e+11
2.1000000e+11
2.1000000e+11
2.1000000e+11
2.1000000e+11
2.1000000e+11
2.1000000e+11
2.1000000e+11
2.1000000e+11
2.1000000e+11
2.1000000e+11
2.1000000e+11
2.1000000e+11
2.1000000e+11
2.1000000e+11
2.1000000e+11
DENSITY 1 30  float
7.8500000e+03
7.8500000e+03
7.8500000e+03
7.8500000e+03
7.8500000e+03
7.8500000e+03
7.8500000e+03
7.8500000e+03
7.8500000e+03
7.8500000e+03
7.8500000e+03
7.8500000e+03
7.8500000e+03
7.8500000e+03
7.8500000e+03
7.8500000e+03
7.8500000e+03
7.8500000e+03
7.8500000e+03
7.8500000e+03
7.8500000e+03
7.8500000e+03
7.8500000e+03
7.8500000e+03
7.8500000e+03
7.8500000e+03
7.8500000e+03
7.8500000e+03
7.8500000e+03
7.8500000e+03
CROSS_AREA 1 30  float
9.9999998e-03
9.9999998e-03
9.9999998e-03
9.9999998e-03
9.9999998e-03
9.9999998e-03
9.9999998e-03
9.9999998e-03
9.9999998e-03
9.9999998e-03
9.9999998e-03
9.9999998e-03
9.9999998e-03
9.9999998e-03
9.9999998e-03
9.9999998e-03
9.9999998e-03
9.9999998e-03
9.9999998e-03
9.9999998e-03
9.9999998e-03
9.9999998e-03
9.9999998e-03
9.9999998e-03
9.9999998e-03
9.9999998e-03
9.9999998e-03
9.9999998e-03
9.9999998e-03
9.9999998e-03
I22 1 30  float
1.5000001e-04
1.5000001e-04
1.5000001e-04
1.5000001e-04
1.5000001e-04
1.5000001e-04
1.5000001e-04
1.5000001e-04
1.5000001e-04
1.5000001e-04
1.5000001e-04
1.5000001e-04
1.5000001e-04
1.5000001e-04
1.5000001e-04
1.5000001e-04
1.5000001e-04
1.5000001e-04
1.5000001e-04
1.5000001e-04
1.5000001e-04
1.5000001e-04
1.5000001e-04
1.5000001e-04
1.5000001e-04
1.5000001e-04
1.5000001e-04
1.5000001e-04
1.5000001e-04
1.5000001e-04
I33 1 30  float
1.5000001e-04
1.5000001e-04
1.5000001e-04
1.5000001e-04
1.5000001e-04
1.5000001e-04
1.5000001e-04
1.5000001e-04
1.5000001e-04
1.5000001e-04
1.5000001e-04
1.5000001e-04
1.5000001e-04
1.5000001e-04
1.5000001e-04
1.5000001e-04
1.5000001e-04
1.5000001e-04
1.5000001e-04
1.5000001e-04
1.5000001e-04
1.5000001e-04
1.5000001e-04
1.5000001e-04
1.5000001e-04
1.5000001e-04
1.5000001e-04
1.5000001e-04
1.5000001e-04
1.5000001e-04
TORSIONAL_INERTIA 1 30  float
3.0000001e-04
3.0000001e-04
3.0000001e-04
3.0000001e-04
3.0000001e-04
3.0000001e-04
3.0000001e-04
3.0000001e-04
3.0000001e-04
3.0000001e-04
3.0000001e-04
3.0000001e-04
3.0000001e-04
3.0000001e-04
3.0000001e-04
3.0000001e-04
3.0000001e-04
3.0000001e-04
3.0000001e-04
3.0000001e-04
3.0000001e-04
3.0000001e-04
3.0000001e-04
3.0000001e-04
3.0000001e-04
3.0000001e-04
3.0000001e-04
3.0000001e-04
3.0000001e-04
3.0000001e-04
POISSON_RATIO 1 30  float
3.0000001e-01
3.0000001e-01
3.0000001e-01
3.0000001e-01
3.0000001e-01
3.0000001e-01
3.0000001e-01
3.0000001e-01
3.0000001e-01
3.0000001e-01
3.0000001e-01
3.0000001e-01
3.0000001e-01
3.0000001e-01
3.0000001e-01
3.0000001e-01
3.0000001e-01
3.0000001e-01
3.0000001e-01
3.0000001e-01
3.0000001e-01
3.0000001e-01
3.0000001e-01
3.0000001e-01
3.0000001e-01
3.0000001e-01
3.0000001e-01
3.0000001e-01
3.0000001e-01
3.0000001e-01
MOMENT 3 30  float
0.0000000e+00 1.1790170e+03 0.0000000e+00 
0.0000000e+00 3.9087117e+03 0.0000000e+00 
0.0000000e+00 7.0100669e+03 0.0000000e+00 
0.0000000e+00 1.1874554e+04 0.0000000e+00 
0.0000000e+00 1.6973125e+04 0.0000000e+00 
0.0000000e+00 9.0492900e+03 0.0000000e+00 
0.0000000e+00 7.7822715e+03 0.0000000e+00 
0.0000000e+00 6.5152534e+03 0.0000000e+00 
0.0000000e+00 5.2482349e+03 0.0000000e+00 
0.0000000e+00 3.9812166e+03 0.0000000e+00 
0.0000000e+00 3.8348645e+03 0.0000000e+00 
0.0000000e+00 9.6971992e+03 0.0000000e+00 
0.0000000e+00 1.3752139e+04 0.0000000e+00 
0.0000000e+00 1.7807078e+04 0.0000000e+00 
0.0000000e+00 2.1067109e+04 0.0000000e+00 
0.0000000e+00 6.4168979e+03 0.0000000e+00 
0.0000000e+00 2.0311882e+03 0.0000000e+00 
0.0000000e+00 -6.0210443e+02 0.0000000e+00 
0.0000000e+00 -3.0345464e+03 0.0000000e+00 
0.0000000e+00 -2.8324373e+03 0.0000000e+00 
0.0000000e+00 7.6507153e+03 0.0000000e+00 
0.0000000e+00 4.8019727e+03 0.0000000e+00 
0.0000000e+00 1.9532294e+03 0.0000000e+00 
0.0000000e+00 -1.1966567e+03 0.0000000e+00 
0.0000000e+00 -7.9181528e+03 0.0000000e+00 
0.0000000e+00 1.2550876e+03 0.0000000e+00 
0.0000000e+00 -1.9241211e+03 0.0000000e+00 
0.0000000e+00 -2.9697810e+03 0.0000000e+00 
0.0000000e+00 -2.7402324e+03 0.0000000e+00 
0.0000000e+00 -5.6875281e+02 0.0000000e+00 
FORCE 3 30  float
1.5534772e+03 0.0000000e+00 2.9475425e+03 
2.2447668e+03 0.0000000e+00 3.8766941e+03 
2.2447668e+03 0.0000000e+00 3.8766941e+03 
-1.3818026e+03 0.0000000e+00 8.2845234e+03 
3.5127820e+03 0.0000000e+00 4.4619038e+03 
4.9371533e+03 0.0000000e+00 -1.5837729e+03 
4.9371533e+03 0.0000000e+00 -1.5837729e+03 
4.9371533e+03 0.0000000e+00 -1.5837729e+03 
4.9371533e+03 0.0000000e+00 -1.5837729e+03 
4.9371533e+03 0.0000000e+00 -1.5837729e+03 
9.3283213e+03 0.0000000e+00 9.5871611e+03 
1.0656051e+03 0.0000000e+00 5.0686743e+03 
1.0656051e+03 0.0000000e+00 5.0686743e+03 
1.0656051e+03 0.0000000e+00 5.0686743e+03 
-5.7536777e+03 0.0000000e+00 3.0814041e+03 
-1.0749659e+04 0.0000000e+00 -7.4215952e+03 
-4.1930664e+03 0.0000000e+00 -3.5426792e+03 
-1.0780071e+04 0.0000000e+00 -3.0405525e+03 
-1.0780071e+04 0.0000000e+00 -3.0405525e+03 
-9.2743057e+03 0.0000000e+00 3.5458252e+03 
-6.0456768e+03 0.0000000e+00 -1.4243716e+03 
-6.0456768e+03 0.0000000e+00 -1.4243716e+03 
-6.0456768e+03 0.0000000e+00 -1.4243716e+03 
3.1775474e+03 0.0000000e+00 -1.7255146e+03 
1.0502999e+04 0.0000000e+00 -4.9959814e+03 
9.3097627e+03 0.0000000e+00 -2.0926196e+03 
-5.5540424e+02 0.0000000e+00 -1.0865890e+03 
2.5601924e+03 0.0000000e+00 4.0929104e+01 
-2.4637437e+03 0.0000000e+00 1.8861952e+02 
6.1474854e+03 0.0000000e+00 1.9828600e+03 
