# vtk DataFile Version 4.0
vtk output
ASCII
DATASET UNSTRUCTURED_GRID
POINTS 11 float
4.0000000e-06 0.0000000e+00 0.0000000e+00 
1.0000000e-01 0.0000000e+00 0.0000000e+00 
2.0000000e-01 0.0000000e+00 0.0000000e+00 
3.0000001e-01 0.0000000e+00 0.0000000e+00 
4.0000001e-01 0.0000000e+00 0.0000000e+00 
5.0000000e-01 0.0000000e+00 0.0000000e+00 
6.0000002e-01 0.0000000e+00 0.0000000e+00 
6.9999999e-01 0.0000000e+00 0.0000000e+00 
8.0000001e-01 0.0000000e+00 0.0000000e+00 
8.9999998e-01 0.0000000e+00 0.0000000e+00 
1.0000000e+00 0.0000000e+00 0.0000000e+00 

CELLS 10 30
2 0 1
2 1 2
2 2 3
2 3 4
2 4 5
2 5 6
2 6 7
2 7 8
2 8 9
2 9 10

CELL_TYPES 10
3
3
3
3
3
3
3
3
3
3
POINT_DATA 11
FIELD FieldData 5
DISPLACEMENT 3 11  float
0.0000000e+00 0.0000000e+00 0.0000000e+00 
0.0000000e+00 0.0000000e+00 1.5673381e-03 
0.0000000e+00 0.0000000e+00 5.3966199e-03 
0.0000000e+00 0.0000000e+00 1.0178316e-02 
0.0000000e+00 0.0000000e+00 1.4602900e-02 
0.0000000e+00 0.0000000e+00 1.7360844e-02 
0.0000000e+00 0.0000000e+00 1.7460078e-02 
0.0000000e+00 0.0000000e+00 1.5178377e-02 
0.0000000e+00 0.0000000e+00 1.1110974e-02 
0.0000000e+00 0.0000000e+00 5.8531039e-03 
0.0000000e+00 0.0000000e+00 0.0000000e+00 
ROTATION 3 11  float
0.0000000e+00 0.0000000e+00 0.0000000e+00 
0.0000000e+00 -2.9165646e-02 0.0000000e+00 
0.0000000e+00 -4.5237437e-02 0.0000000e+00 
0.0000000e+00 -4.8213951e-02 0.0000000e+00 
0.0000000e+00 -3.8095180e-02 0.0000000e+00 
0.0000000e+00 -1.4881131e-02 0.0000000e+00 
0.0000000e+00 1.1904391e-02 0.0000000e+00 
0.0000000e+00 3.2737575e-02 0.0000000e+00 
0.0000000e+00 4.7618419e-02 0.0000000e+00 
0.0000000e+00 5.6546926e-02 0.0000000e+00 
0.0000000e+00 5.9523094e-02 0.0000000e+00 
REACTION 3 11  float
-0.0000000e+00 -0.0000000e+00 -2.7500090e+01 
-0.0000000e+00 -0.0000000e+00 -0.0000000e+00 
-0.0000000e+00 -0.0000000e+00 -1.1368684e-13 
-0.0000000e+00 -0.0000000e+00 1.1368684e-13 
-0.0000000e+00 -0.0000000e+00 -3.6948222e-13 
-0.0000000e+00 -0.0000000e+00 2.8421709e-14 
-0.0000000e+00 -0.0000000e+00 -1.1937118e-12 
-0.0000000e+00 -0.0000000e+00 -1.7053026e-13 
-0.0000000e+00 -0.0000000e+00 -4.5474735e-13 
-0.0000000e+00 -0.0000000e+00 1.1368684e-13 
-0.0000000e+00 -0.0000000e+00 -1.2499910e+01 
REACTION_MOMENT 3 11  float
-0.0000000e+00 7.4999800e+00 -0.0000000e+00 
-0.0000000e+00 7.4606987e-14 -0.0000000e+00 
-0.0000000e+00 -9.2015284e-13 -0.0000000e+00 
-0.0000000e+00 3.0198066e-14 -0.0000000e+00 
-0.0000000e+00 -3.5527137e-15 -0.0000000e+00 
-0.0000000e+00 3.8191672e-14 -0.0000000e+00 
-0.0000000e+00 -2.4158453e-13 -0.0000000e+00 
-0.0000000e+00 -4.5830006e-13 -0.0000000e+00 
-0.0000000e+00 4.6185278e-14 -0.0000000e+00 
-0.0000000e+00 -6.0396133e-14 -0.0000000e+00 
-0.0000000e+00 -7.1054274e-15 -0.0000000e+00 
POINT_LOAD 3 11  float
0.0000000e+00 0.0000000e+00 0.0000000e+00 
0.0000000e+00 0.0000000e+00 0.0000000e+00 
0.0000000e+00 0.0000000e+00 0.0000000e+00 
0.0000000e+00 0.0000000e+00 0.0000000e+00 
0.0000000e+00 0.0000000e+00 0.0000000e+00 
0.0000000e+00 0.0000000e+00 4.0000000e+01 
0.0000000e+00 0.0000000e+00 0.0000000e+00 
0.0000000e+00 0.0000000e+00 0.0000000e+00 
0.0000000e+00 0.0000000e+00 0.0000000e+00 
0.0000000e+00 0.0000000e+00 0.0000000e+00 
0.0000000e+00 0.0000000e+00 0.0000000e+00 
CELL_DATA 10
FIELD FieldData 3
CROSS_AREA 1 10  float
0.0000000e+00
0.0000000e+00
0.0000000e+00
0.0000000e+00
0.0000000e+00
0.0000000e+00
0.0000000e+00
0.0000000e+00
0.0000000e+00
0.0000000e+00
I22 1 10  float
0.0000000e+00
0.0000000e+00
0.0000000e+00
0.0000000e+00
0.0000000e+00
0.0000000e+00
0.0000000e+00
0.0000000e+00
0.0000000e+00
0.0000000e+00
I33 1 10  float
0.0000000e+00
0.0000000e+00
0.0000000e+00
0.0000000e+00
0.0000000e+00
0.0000000e+00
0.0000000e+00
0.0000000e+00
0.0000000e+00
0.0000000e+00
