# vtk DataFile Version 4.0
vtk output
ASCII
DATASET UNSTRUCTURED_GRID
POINTS 212 float
0.0000000e+00 0.0000000e+00 0.0000000e+00 
0.0000000e+00 0.0000000e+00 2.5000000e-01 
0.0000000e+00 0.0000000e+00 5.0000000e-01 
0.0000000e+00 0.0000000e+00 7.5000000e-01 
0.0000000e+00 0.0000000e+00 1.0000000e+00 
0.0000000e+00 0.0000000e+00 1.2500000e+00 
0.0000000e+00 0.0000000e+00 1.5000000e+00 
0.0000000e+00 0.0000000e+00 1.7500000e+00 
0.0000000e+00 0.0000000e+00 2.0000000e+00 
0.0000000e+00 0.0000000e+00 2.2500000e+00 
0.0000000e+00 0.0000000e+00 2.5000000e+00 
0.0000000e+00 0.0000000e+00 2.7500000e+00 
0.0000000e+00 0.0000000e+00 3.0000000e+00 
0.0000000e+00 0.0000000e+00 3.2500000e+00 
0.0000000e+00 0.0000000e+00 3.5000000e+00 
0.0000000e+00 0.0000000e+00 3.7500000e+00 
0.0000000e+00 0.0000000e+00 4.0000000e+00 
0.0000000e+00 0.0000000e+00 4.2500000e+00 
0.0000000e+00 0.0000000e+00 4.5000000e+00 
0.0000000e+00 0.0000000e+00 4.7500000e+00 
0.0000000e+00 0.0000000e+00 5.0000000e+00 
0.0000000e+00 0.0000000e+00 5.2500000e+00 
0.0000000e+00 0.0000000e+00 5.5000000e+00 
0.0000000e+00 0.0000000e+00 5.7500000e+00 
0.0000000e+00 0.0000000e+00 6.0000000e+00 
0.0000000e+00 0.0000000e+00 6.2500000e+00 
0.0000000e+00 0.0000000e+00 6.5000000e+00 
0.0000000e+00 0.0000000e+00 6.7500000e+00 
0.0000000e+00 0.0000000e+00 7.0000000e+00 
0.0000000e+00 0.0000000e+00 7.2500000e+00 
0.0000000e+00 0.0000000e+00 7.5000000e+00 
0.0000000e+00 0.0000000e+00 7.7500000e+00 
0.0000000e+00 0.0000000e+00 8.0000000e+00 
0.0000000e+00 0.0000000e+00 8.2500000e+00 
0.0000000e+00 0.0000000e+00 8.5000000e+00 
0.0000000e+00 0.0000000e+00 8.7500000e+00 
0.0000000e+00 0.0000000e+00 9.0000000e+00 
0.0000000e+00 0.0000000e+00 9.2500000e+00 
0.0000000e+00 0.0000000e+00 9.5000000e+00 
0.0000000e+00 0.0000000e+00 9.7500000e+00 
0.0000000e+00 0.0000000e+00 1.0000000e+01 
0.0000000e+00 0.0000000e+00 1.0250000e+01 
0.0000000e+00 0.0000000e+00 1.0500000e+01 
0.0000000e+00 0.0000000e+00 1.0750000e+01 
0.0000000e+00 0.0000000e+00 1.1000000e+01 
0.0000000e+00 0.0000000e+00 1.1250000e+01 
0.0000000e+00 0.0000000e+00 1.1500000e+01 
0.0000000e+00 0.0000000e+00 1.1750000e+01 
0.0000000e+00 0.0000000e+00 1.2000000e+01 
0.0000000e+00 0.0000000e+00 1.2250000e+01 
0.0000000e+00 0.0000000e+00 1.2500000e+01 
0.0000000e+00 0.0000000e+00 1.2750000e+01 
0.0000000e+00 0.0000000e+00 1.3000000e+01 
0.0000000e+00 0.0000000e+00 1.3250000e+01 
0.0000000e+00 0.0000000e+00 1.3500000e+01 
0.0000000e+00 0.0000000e+00 1.3750000e+01 
0.0000000e+00 0.0000000e+00 1.4000000e+01 
0.0000000e+00 0.0000000e+00 1.4250000e+01 
0.0000000e+00 0.0000000e+00 1.4500000e+01 
0.0000000e+00 0.0000000e+00 1.4750000e+01 
0.0000000e+00 0.0000000e+00 1.5000000e+01 
0.0000000e+00 0.0000000e+00 1.5250000e+01 
0.0000000e+00 0.0000000e+00 1.5500000e+01 
0.0000000e+00 0.0000000e+00 1.5750000e+01 
0.0000000e+00 0.0000000e+00 1.6000000e+01 
0.0000000e+00 0.0000000e+00 1.6250000e+01 
0.0000000e+00 0.0000000e+00 1.6500000e+01 
0.0000000e+00 0.0000000e+00 1.6750000e+01 
0.0000000e+00 0.0000000e+00 1.7000000e+01 
0.0000000e+00 0.0000000e+00 1.7250000e+01 
0.0000000e+00 0.0000000e+00 1.7500000e+01 
0.0000000e+00 0.0000000e+00 1.7750000e+01 
0.0000000e+00 0.0000000e+00 1.8000000e+01 
6.0000000e+00 0.0000000e+00 0.0000000e+00 
6.0000000e+00 0.0000000e+00 2.5000000e-01 
6.0000000e+00 0.0000000e+00 5.0000000e-01 
6.0000000e+00 0.0000000e+00 7.5000000e-01 
6.0000000e+00 0.0000000e+00 1.0000000e+00 
6.0000000e+00 0.0000000e+00 1.2500000e+00 
6.0000000e+00 0.0000000e+00 1.5000000e+00 
6.0000000e+00 0.0000000e+00 1.7500000e+00 
6.0000000e+00 0.0000000e+00 2.0000000e+00 
6.0000000e+00 0.0000000e+00 2.2500000e+00 
6.0000000e+00 0.0000000e+00 2.5000000e+00 
6.0000000e+00 0.0000000e+00 2.7500000e+00 
6.0000000e+00 0.0000000e+00 3.0000000e+00 
6.0000000e+00 0.0000000e+00 3.2500000e+00 
6.0000000e+00 0.0000000e+00 3.5000000e+00 
6.0000000e+00 0.0000000e+00 3.7500000e+00 
6.0000000e+00 0.0000000e+00 4.0000000e+00 
6.0000000e+00 0.0000000e+00 4.2500000e+00 
6.0000000e+00 0.0000000e+00 4.5000000e+00 
6.0000000e+00 0.0000000e+00 4.7500000e+00 
6.0000000e+00 0.0000000e+00 5.0000000e+00 
6.0000000e+00 0.0000000e+00 5.2500000e+00 
6.0000000e+00 0.0000000e+00 5.5000000e+00 
6.0000000e+00 0.0000000e+00 5.7500000e+00 
6.0000000e+00 0.0000000e+00 6.0000000e+00 
6.0000000e+00 0.0000000e+00 6.2500000e+00 
6.0000000e+00 0.0000000e+00 6.5000000e+00 
6.0000000e+00 0.0000000e+00 6.7500000e+00 
6.0000000e+00 0.0000000e+00 7.0000000e+00 
6.0000000e+00 0.0000000e+00 7.2500000e+00 
6.0000000e+00 0.0000000e+00 7.5000000e+00 
6.0000000e+00 0.0000000e+00 7.7500000e+00 
6.0000000e+00 0.0000000e+00 8.0000000e+00 
6.0000000e+00 0.0000000e+00 8.2500000e+00 
6.0000000e+00 0.0000000e+00 8.5000000e+00 
6.0000000e+00 0.0000000e+00 8.7500000e+00 
6.0000000e+00 0.0000000e+00 9.0000000e+00 
6.0000000e+00 0.0000000e+00 9.2500000e+00 
6.0000000e+00 0.0000000e+00 9.5000000e+00 
6.0000000e+00 0.0000000e+00 9.7500000e+00 
6.0000000e+00 0.0000000e+00 1.0000000e+01 
6.0000000e+00 0.0000000e+00 1.0250000e+01 
6.0000000e+00 0.0000000e+00 1.0500000e+01 
6.0000000e+00 0.0000000e+00 1.0750000e+01 
6.0000000e+00 0.0000000e+00 1.1000000e+01 
6.0000000e+00 0.0000000e+00 1.1250000e+01 
6.0000000e+00 0.0000000e+00 1.1500000e+01 
6.0000000e+00 0.0000000e+00 1.1750000e+01 
6.0000000e+00 0.0000000e+00 1.2000000e+01 
6.0000000e+00 0.0000000e+00 1.2250000e+01 
6.0000000e+00 0.0000000e+00 1.2500000e+01 
6.0000000e+00 0.0000000e+00 1.2750000e+01 
6.0000000e+00 0.0000000e+00 1.3000000e+01 
6.0000000e+00 0.0000000e+00 1.3250000e+01 
6.0000000e+00 0.0000000e+00 1.3500000e+01 
6.0000000e+00 0.0000000e+00 1.3750000e+01 
6.0000000e+00 0.0000000e+00 1.4000000e+01 
6.0000000e+00 0.0000000e+00 1.4250000e+01 
6.0000000e+00 0.0000000e+00 1.4500000e+01 
6.0000000e+00 0.0000000e+00 1.4750000e+01 
6.0000000e+00 0.0000000e+00 1.5000000e+01 
6.0000000e+00 0.0000000e+00 1.5250000e+01 
6.0000000e+00 0.0000000e+00 1.5500000e+01 
6.0000000e+00 0.0000000e+00 1.5750000e+01 
6.0000000e+00 0.0000000e+00 1.6000000e+01 
6.0000000e+00 0.0000000e+00 1.6250000e+01 
6.0000000e+00 0.0000000e+00 1.6500000e+01 
6.0000000e+00 0.0000000e+00 1.6750000e+01 
6.0000000e+00 0.0000000e+00 1.7000000e+01 
6.0000000e+00 0.0000000e+00 1.7250000e+01 
6.0000000e+00 0.0000000e+00 1.7500000e+01 
6.0000000e+00 0.0000000e+00 1.7750000e+01 
6.0000000e+00 0.0000000e+00 1.8000000e+01 
5.0000000e-01 0.0000000e+00 3.0000000e+00 
1.0000000e+00 0.0000000e+00 3.0000000e+00 
1.5000000e+00 0.0000000e+00 3.0000000e+00 
2.0000000e+00 0.0000000e+00 3.0000000e+00 
2.5000000e+00 0.0000000e+00 3.0000000e+00 
3.0000000e+00 0.0000000e+00 3.0000000e+00 
3.5000000e+00 0.0000000e+00 3.0000000e+00 
4.0000000e+00 0.0000000e+00 3.0000000e+00 
4.5000000e+00 0.0000000e+00 3.0000000e+00 
5.0000000e+00 0.0000000e+00 3.0000000e+00 
5.5000000e+00 0.0000000e+00 3.0000000e+00 
5.0000000e-01 0.0000000e+00 6.0000000e+00 
1.0000000e+00 0.0000000e+00 6.0000000e+00 
1.5000000e+00 0.0000000e+00 6.0000000e+00 
2.0000000e+00 0.0000000e+00 6.0000000e+00 
2.5000000e+00 0.0000000e+00 6.0000000e+00 
3.0000000e+00 0.0000000e+00 6.0000000e+00 
3.5000000e+00 0.0000000e+00 6.0000000e+00 
4.0000000e+00 0.0000000e+00 6.0000000e+00 
4.5000000e+00 0.0000000e+00 6.0000000e+00 
5.0000000e+00 0.0000000e+00 6.0000000e+00 
5.5000000e+00 0.0000000e+00 6.0000000e+00 
5.0000000e-01 0.0000000e+00 9.0000000e+00 
1.0000000e+00 0.0000000e+00 9.0000000e+00 
1.5000000e+00 0.0000000e+00 9.0000000e+00 
2.0000000e+00 0.0000000e+00 9.0000000e+00 
2.5000000e+00 0.0000000e+00 9.0000000e+00 
3.0000000e+00 0.0000000e+00 9.0000000e+00 
3.5000000e+00 0.0000000e+00 9.0000000e+00 
4.0000000e+00 0.0000000e+00 9.0000000e+00 
4.5000000e+00 0.0000000e+00 9.0000000e+00 
5.0000000e+00 0.0000000e+00 9.0000000e+00 
5.5000000e+00 0.0000000e+00 9.0000000e+00 
5.0000000e-01 0.0000000e+00 1.2000000e+01 
1.0000000e+00 0.0000000e+00 1.2000000e+01 
1.5000000e+00 0.0000000e+00 1.2000000e+01 
2.0000000e+00 0.0000000e+00 1.2000000e+01 
2.5000000e+00 0.0000000e+00 1.2000000e+01 
3.0000000e+00 0.0000000e+00 1.2000000e+01 
3.5000000e+00 0.0000000e+00 1.2000000e+01 
4.0000000e+00 0.0000000e+00 1.2000000e+01 
4.5000000e+00 0.0000000e+00 1.2000000e+01 
5.0000000e+00 0.0000000e+00 1.2000000e+01 
5.5000000e+00 0.0000000e+00 1.2000000e+01 
5.0000000e-01 0.0000000e+00 1.5000000e+01 
1.0000000e+00 0.0000000e+00 1.5000000e+01 
1.5000000e+00 0.0000000e+00 1.5000000e+01 
2.0000000e+00 0.0000000e+00 1.5000000e+01 
2.5000000e+00 0.0000000e+00 1.5000000e+01 
3.0000000e+00 0.0000000e+00 1.5000000e+01 
3.5000000e+00 0.0000000e+00 1.5000000e+01 
4.0000000e+00 0.0000000e+00 1.5000000e+01 
4.5000000e+00 0.0000000e+00 1.5000000e+01 
5.0000000e+00 0.0000000e+00 1.5000000e+01 
5.5000000e+00 0.0000000e+00 1.5000000e+01 
5.0000000e-01 0.0000000e+00 1.8000000e+01 
1.0000000e+00 0.0000000e+00 1.8000000e+01 
1.5000000e+00 0.0000000e+00 1.8000000e+01 
2.0000000e+00 0.0000000e+00 1.8000000e+01 
2.5000000e+00 0.0000000e+00 1.8000000e+01 
3.0000000e+00 0.0000000e+00 1.8000000e+01 
3.5000000e+00 0.0000000e+00 1.8000000e+01 
4.0000000e+00 0.0000000e+00 1.8000000e+01 
4.5000000e+00 0.0000000e+00 1.8000000e+01 
5.0000000e+00 0.0000000e+00 1.8000000e+01 
5.5000000e+00 0.0000000e+00 1.8000000e+01 

CELLS 216 648
2 0 1
2 1 2
2 2 3
2 3 4
2 4 5
2 5 6
2 6 7
2 7 8
2 8 9
2 9 10
2 10 11
2 11 12
2 12 13
2 13 14
2 14 15
2 15 16
2 16 17
2 17 18
2 18 19
2 19 20
2 20 21
2 21 22
2 22 23
2 23 24
2 24 25
2 25 26
2 26 27
2 27 28
2 28 29
2 29 30
2 30 31
2 31 32
2 32 33
2 33 34
2 34 35
2 35 36
2 36 37
2 37 38
2 38 39
2 39 40
2 40 41
2 41 42
2 42 43
2 43 44
2 44 45
2 45 46
2 46 47
2 47 48
2 48 49
2 49 50
2 50 51
2 51 52
2 52 53
2 53 54
2 54 55
2 55 56
2 56 57
2 57 58
2 58 59
2 59 60
2 60 61
2 61 62
2 62 63
2 63 64
2 64 65
2 65 66
2 66 67
2 67 68
2 68 69
2 69 70
2 70 71
2 71 72
2 73 74
2 74 75
2 75 76
2 76 77
2 77 78
2 78 79
2 79 80
2 80 81
2 81 82
2 82 83
2 83 84
2 84 85
2 85 86
2 86 87
2 87 88
2 88 89
2 89 90
2 90 91
2 91 92
2 92 93
2 93 94
2 94 95
2 95 96
2 96 97
2 97 98
2 98 99
2 99 100
2 100 101
2 101 102
2 102 103
2 103 104
2 104 105
2 105 106
2 106 107
2 107 108
2 108 109
2 109 110
2 110 111
2 111 112
2 112 113
2 113 114
2 114 115
2 115 116
2 116 117
2 117 118
2 118 119
2 119 120
2 120 121
2 121 122
2 122 123
2 123 124
2 124 125
2 125 126
2 126 127
2 127 128
2 128 129
2 129 130
2 130 131
2 131 132
2 132 133
2 133 134
2 134 135
2 135 136
2 136 137
2 137 138
2 138 139
2 139 140
2 140 141
2 141 142
2 142 143
2 143 144
2 144 145
2 12 146
2 146 147
2 147 148
2 148 149
2 149 150
2 150 151
2 151 152
2 152 153
2 153 154
2 154 155
2 155 156
2 156 85
2 24 157
2 157 158
2 158 159
2 159 160
2 160 161
2 161 162
2 162 163
2 163 164
2 164 165
2 165 166
2 166 167
2 167 97
2 36 168
2 168 169
2 169 170
2 170 171
2 171 172
2 172 173
2 173 174
2 174 175
2 175 176
2 176 177
2 177 178
2 178 109
2 48 179
2 179 180
2 180 181
2 181 182
2 182 183
2 183 184
2 184 185
2 185 186
2 186 187
2 187 188
2 188 189
2 189 121
2 60 190
2 190 191
2 191 192
2 192 193
2 193 194
2 194 195
2 195 196
2 196 197
2 197 198
2 198 199
2 199 200
2 200 133
2 72 201
2 201 202
2 202 203
2 203 204
2 204 205
2 205 206
2 206 207
2 207 208
2 208 209
2 209 210
2 210 211
2 211 145

CELL_TYPES 216
3
3
3
3
3
3
3
3
3
3
3
3
3
3
3
3
3
3
3
3
3
3
3
3
3
3
3
3
3
3
3
3
3
3
3
3
3
3
3
3
3
3
3
3
3
3
3
3
3
3
3
3
3
3
3
3
3
3
3
3
3
3
3
3
3
3
3
3
3
3
3
3
3
3
3
3
3
3
3
3
3
3
3
3
3
3
3
3
3
3
3
3
3
3
3
3
3
3
3
3
3
3
3
3
3
3
3
3
3
3
3
3
3
3
3
3
3
3
3
3
3
3
3
3
3
3
3
3
3
3
3
3
3
3
3
3
3
3
3
3
3
3
3
3
3
3
3
3
3
3
3
3
3
3
3
3
3
3
3
3
3
3
3
3
3
3
3
3
3
3
3
3
3
3
3
3
3
3
3
3
3
3
3
3
3
3
3
3
3
3
3
3
3
3
3
3
3
3
3
3
3
3
3
3
3
3
3
3
3
3
3
3
3
3
3
3
POINT_DATA 212
FIELD FieldData 7
DISPLACEMENT 3 212  float
0.0000000e+00 0.0000000e+00 0.0000000e+00 
-1.9605651e-04 0.0000000e+00 -8.0127541e-07 
-3.8388817e-04 0.0000000e+00 -1.6025508e-06 
-5.5527006e-04 0.0000000e+00 -2.4038261e-06 
-7.0197729e-04 0.0000000e+00 -3.2051016e-06 
-8.1578508e-04 0.0000000e+00 -4.0063769e-06 
-8.8846846e-04 0.0000000e+00 -4.8076522e-06 
-9.1180258e-04 0.0000000e+00 -5.6089275e-06 
-8.7756256e-04 0.0000000e+00 -6.4102032e-06 
-7.7752350e-04 0.0000000e+00 -7.2114785e-06 
-6.0346059e-04 0.0000000e+00 -8.0127538e-06 
-3.4714895e-04 0.0000000e+00 -8.8140296e-06 
-3.6364804e-07 0.0000000e+00 -9.6153044e-06 
3.1170397e-04 0.0000000e+00 -1.0283034e-05 
4.7648931e-04 0.0000000e+00 -1.0950764e-05 
5.2115717e-04 0.0000000e+00 -1.1618493e-05 
4.7287252e-04 0.0000000e+00 -1.2286222e-05 
3.5880020e-04 0.0000000e+00 -1.2953952e-05 
2.0610505e-04 0.0000000e+00 -1.3621681e-05 
4.1951989e-05 0.0000000e+00 -1.4289411e-05 
-1.0649411e-04 0.0000000e+00 -1.4957141e-05 
-2.1206838e-04 0.0000000e+00 -1.5624870e-05 
-2.4760593e-04 0.0000000e+00 -1.6292599e-05 
-1.8594187e-04 0.0000000e+00 -1.6960328e-05 
8.8642011e-08 0.0000000e+00 -1.7628059e-05 
1.9457923e-04 0.0000000e+00 -1.8162242e-05 
2.7854566e-04 0.0000000e+00 -1.8696426e-05 
2.7453605e-04 0.0000000e+00 -1.9230609e-05 
2.0509846e-04 0.0000000e+00 -1.9764793e-05 
9.2781047e-05 0.0000000e+00 -2.0298976e-05 
-3.9868104e-05 0.0000000e+00 -2.0833160e-05 
-1.7030089e-04 0.0000000e+00 -2.1367343e-05 
-2.7596919e-04 0.0000000e+00 -2.1901527e-05 
-3.3432490e-04 0.0000000e+00 -2.2435710e-05 
-3.2281992e-04 0.0000000e+00 -2.2969894e-05 
-2.1890612e-04 0.0000000e+00 -2.3504077e-05 
-3.5425977e-08 0.0000000e+00 -2.4038261e-05 
2.1545419e-04 0.0000000e+00 -2.4438899e-05 
3.1045478e-04 0.0000000e+00 -2.4839537e-05 
3.0935954e-04 0.0000000e+00 -2.5240175e-05 
2.3656173e-04 0.0000000e+00 -2.5640813e-05 
1.1645451e-04 0.0000000e+00 -2.6041449e-05 
-2.6568876e-05 0.0000000e+00 -2.6442087e-05 
-1.6811524e-04 0.0000000e+00 -2.6842725e-05 
-2.8379133e-04 0.0000000e+00 -2.7243363e-05 
-3.4920400e-04 0.0000000e+00 -2.7644001e-05 
-3.3995998e-04 0.0000000e+00 -2.8044638e-05 
-2.3166608e-04 0.0000000e+00 -2.8445276e-05 
7.0890181e-08 0.0000000e+00 -2.8845914e-05 
2.3857369e-04 0.0000000e+00 -2.9113005e-05 
3.6470359e-04 0.0000000e+00 -2.9380097e-05 
3.9916160e-04 0.0000000e+00 -2.9647190e-05 
3.6264875e-04 0.0000000e+00 -2.9914281e-05 
2.7586604e-04 0.0000000e+00 -3.0181372e-05 
1.5951447e-04 0.0000000e+00 -3.0448464e-05 
3.4295092e-05 0.0000000e+00 -3.0715557e-05 
-7.9091114e-05 0.0000000e+00 -3.0982646e-05 
-1.5994311e-04 0.0000000e+00 -3.1249740e-05 
-1.8755990e-04 0.0000000e+00 -3.1516833e-05 
-1.4124045e-04 0.0000000e+00 -3.1783922e-05 
-2.8377531e-07 0.0000000e+00 -3.2051015e-05 
1.1358547e-04 0.0000000e+00 -3.2184562e-05 
8.8495915e-05 0.0000000e+00 -3.2318108e-05 
-4.0071474e-05 0.0000000e+00 -3.2451651e-05 
-2.3663571e-04 0.0000000e+00 -3.2585198e-05 
-4.6571583e-04 0.0000000e+00 -3.2718744e-05 
-6.9183082e-04 0.0000000e+00 -3.2852291e-05 
-8.7949971e-04 0.0000000e+00 -3.2985838e-05 
-9.9324156e-04 0.0000000e+00 -3.3119384e-05 
-9.9757535e-04 0.0000000e+00 -3.3252927e-05 
-8.5702015e-04 0.0000000e+00 -3.3386474e-05 
-5.3609494e-04 0.0000000e+00 -3.3520020e-05 
6.8123478e-07 0.0000000e+00 -3.3653567e-05 
0.0000000e+00 0.0000000e+00 0.0000000e+00 
1.9605651e-04 0.0000000e+00 -8.0127541e-07 
3.8388817e-04 0.0000000e+00 -1.6025508e-06 
5.5527006e-04 0.0000000e+00 -2.4038261e-06 
7.0197729e-04 0.0000000e+00 -3.2051016e-06 
8.1578508e-04 0.0000000e+00 -4.0063769e-06 
8.8846846e-04 0.0000000e+00 -4.8076522e-06 
9.1180258e-04 0.0000000e+00 -5.6089275e-06 
8.7756256e-04 0.0000000e+00 -6.4102032e-06 
7.7752350e-04 0.0000000e+00 -7.2114785e-06 
6.0346059e-04 0.0000000e+00 -8.0127538e-06 
3.4714895e-04 0.0000000e+00 -8.8140296e-06 
3.6364804e-07 0.0000000e+00 -9.6153044e-06 
-3.1170397e-04 0.0000000e+00 -1.0283034e-05 
-4.7648931e-04 0.0000000e+00 -1.0950764e-05 
-5.2115717e-04 0.0000000e+00 -1.1618493e-05 
-4.7287252e-04 0.0000000e+00 -1.2286222e-05 
-3.5880020e-04 0.0000000e+00 -1.2953952e-05 
-2.0610505e-04 0.0000000e+00 -1.3621681e-05 
-4.1951989e-05 0.0000000e+00 -1.4289411e-05 
1.0649411e-04 0.0000000e+00 -1.4957141e-05 
2.1206838e-04 0.0000000e+00 -1.5624870e-05 
2.4760593e-04 0.0000000e+00 -1.6292599e-05 
1.8594187e-04 0.0000000e+00 -1.6960328e-05 
-8.8641990e-08 0.0000000e+00 -1.7628059e-05 
-1.9457923e-04 0.0000000e+00 -1.8162242e-05 
-2.7854566e-04 0.0000000e+00 -1.8696426e-05 
-2.7453605e-04 0.0000000e+00 -1.9230609e-05 
-2.0509846e-04 0.0000000e+00 -1.9764793e-05 
-9.2781047e-05 0.0000000e+00 -2.0298976e-05 
3.9868104e-05 0.0000000e+00 -2.0833160e-05 
1.7030089e-04 0.0000000e+00 -2.1367343e-05 
2.7596919e-04 0.0000000e+00 -2.1901527e-05 
3.3432490e-04 0.0000000e+00 -2.2435710e-05 
3.2281992e-04 0.0000000e+00 -2.2969894e-05 
2.1890612e-04 0.0000000e+00 -2.3504077e-05 
3.5425995e-08 0.0000000e+00 -2.4038261e-05 
-2.1545419e-04 0.0000000e+00 -2.4438899e-05 
-3.1045478e-04 0.0000000e+00 -2.4839537e-05 
-3.0935954e-04 0.0000000e+00 -2.5240175e-05 
-2.3656173e-04 0.0000000e+00 -2.5640813e-05 
-1.1645451e-04 0.0000000e+00 -2.6041449e-05 
2.6568876e-05 0.0000000e+00 -2.6442087e-05 
1.6811524e-04 0.0000000e+00 -2.6842725e-05 
2.8379133e-04 0.0000000e+00 -2.7243363e-05 
3.4920400e-04 0.0000000e+00 -2.7644001e-05 
3.3995998e-04 0.0000000e+00 -2.8044638e-05 
2.3166608e-04 0.0000000e+00 -2.8445276e-05 
-7.0890160e-08 0.0000000e+00 -2.8845914e-05 
-2.3857369e-04 0.0000000e+00 -2.9113005e-05 
-3.6470359e-04 0.0000000e+00 -2.9380097e-05 
-3.9916160e-04 0.0000000e+00 -2.9647190e-05 
-3.6264875e-04 0.0000000e+00 -2.9914281e-05 
-2.7586604e-04 0.0000000e+00 -3.0181372e-05 
-1.5951447e-04 0.0000000e+00 -3.0448464e-05 
-3.4295092e-05 0.0000000e+00 -3.0715557e-05 
7.9091114e-05 0.0000000e+00 -3.0982646e-05 
1.5994311e-04 0.0000000e+00 -3.1249740e-05 
1.8755990e-04 0.0000000e+00 -3.1516833e-05 
1.4124045e-04 0.0000000e+00 -3.1783922e-05 
2.8377534e-07 0.0000000e+00 -3.2051015e-05 
-1.1358547e-04 0.0000000e+00 -3.2184562e-05 
-8.8495915e-05 0.0000000e+00 -3.2318108e-05 
4.0071474e-05 0.0000000e+00 -3.2451651e-05 
2.3663571e-04 0.0000000e+00 -3.2585198e-05 
4.6571583e-04 0.0000000e+00 -3.2718744e-05 
6.9183082e-04 0.0000000e+00 -3.2852291e-05 
8.7949971e-04 0.0000000e+00 -3.2985838e-05 
9.9324156e-04 0.0000000e+00 -3.3119384e-05 
9.9757535e-04 0.0000000e+00 -3.3252927e-05 
8.5702015e-04 0.0000000e+00 -3.3386474e-05 
5.3609494e-04 0.0000000e+00 -3.3520020e-05 
-6.8123478e-07 0.0000000e+00 -3.3653567e-05 
-3.0304003e-07 0.0000000e+00 -1.2512673e-03 
-2.4243201e-07 0.0000000e+00 -3.0376213e-03 
-1.8182402e-07 0.0000000e+00 -4.9064034e-03 
-1.2121600e-07 0.0000000e+00 -6.4980667e-03 
-6.0608002e-08 0.0000000e+00 -7.5557926e-03 
5.2069529e-15 0.0000000e+00 -7.9254890e-03 
6.0608009e-08 0.0000000e+00 -7.5557926e-03 
1.2121602e-07 0.0000000e+00 -6.4980667e-03 
1.8182402e-07 0.0000000e+00 -4.9064034e-03 
2.4243204e-07 0.0000000e+00 -3.0376213e-03 
3.0304003e-07 0.0000000e+00 -1.2512673e-03 
7.3868343e-08 0.0000000e+00 -1.0072057e-03 
5.9094674e-08 0.0000000e+00 -2.5873173e-03 
4.4321009e-08 0.0000000e+00 -4.2956886e-03 
2.9547342e-08 0.0000000e+00 -5.7727727e-03 
1.4773675e-08 0.0000000e+00 -6.7617507e-03 
8.2259215e-15 0.0000000e+00 -7.1085314e-03 
-1.4773659e-08 0.0000000e+00 -6.7617507e-03 
-2.9547325e-08 0.0000000e+00 -5.7727727e-03 
-4.4320991e-08 0.0000000e+00 -4.2956886e-03 
-5.9094660e-08 0.0000000e+00 -2.5873173e-03 
-7.3868328e-08 0.0000000e+00 -1.0072057e-03 
-2.9521644e-08 0.0000000e+00 -1.0623762e-03 
-2.3617314e-08 0.0000000e+00 -2.6823825e-03 
-1.7712983e-08 0.0000000e+00 -4.4217827e-03 
-1.1808652e-08 0.0000000e+00 -5.9210309e-03 
-5.9043206e-09 0.0000000e+00 -6.9233072e-03 
1.0405899e-14 0.0000000e+00 -7.2745206e-03 
5.9043415e-09 0.0000000e+00 -6.9233072e-03 
1.1808672e-08 0.0000000e+00 -5.9210309e-03 
1.7713003e-08 0.0000000e+00 -4.4217827e-03 
2.3617334e-08 0.0000000e+00 -2.6823825e-03 
2.9521665e-08 0.0000000e+00 -1.0623762e-03 
5.9075152e-08 0.0000000e+00 -1.0996786e-03 
4.7260126e-08 0.0000000e+00 -2.7462714e-03 
3.5445098e-08 0.0000000e+00 -4.5063505e-03 
2.3630069e-08 0.0000000e+00 -6.0203685e-03 
1.1815041e-08 0.0000000e+00 -7.0315073e-03 
1.2460789e-14 0.0000000e+00 -7.3856744e-03 
-1.1815016e-08 0.0000000e+00 -7.0315073e-03 
-2.3630044e-08 0.0000000e+00 -6.0203685e-03 
-3.5445073e-08 0.0000000e+00 -4.5063505e-03 
-4.7260102e-08 0.0000000e+00 -2.7462714e-03 
-5.9075127e-08 0.0000000e+00 -1.0996786e-03 
-2.3647941e-07 0.0000000e+00 -9.0779143e-04 
-1.8918352e-07 0.0000000e+00 -2.3947633e-03 
-1.4188764e-07 0.0000000e+00 -4.0306929e-03 
-9.4591755e-08 0.0000000e+00 -5.4560327e-03 
-4.7295870e-08 0.0000000e+00 -6.4139641e-03 
1.4547276e-14 0.0000000e+00 -6.7503960e-03 
4.7295899e-08 0.0000000e+00 -6.4139641e-03 
9.4591783e-08 0.0000000e+00 -5.4560327e-03 
1.4188767e-07 0.0000000e+00 -4.0306929e-03 
1.8918355e-07 0.0000000e+00 -2.3947633e-03 
2.3647944e-07 0.0000000e+00 -9.0779143e-04 
5.6769568e-07 0.0000000e+00 -1.7552079e-03 
4.5415655e-07 0.0000000e+00 -3.9342092e-03 
3.4061742e-07 0.0000000e+00 -6.1083836e-03 
2.2707827e-07 0.0000000e+00 -7.9181846e-03 
1.1353914e-07 0.0000000e+00 -9.1067925e-03 
1.5469427e-14 0.0000000e+00 -9.5201163e-03 
-1.1353912e-07 0.0000000e+00 -9.1067925e-03 
-2.2707825e-07 0.0000000e+00 -7.9181846e-03 
-3.4061739e-07 0.0000000e+00 -6.1083836e-03 
-4.5415652e-07 0.0000000e+00 -3.9342092e-03 
-5.6769562e-07 0.0000000e+00 -1.7552079e-03 
ROTATION 3 212  float
0.0000000e+00 -7.8970933e-04 0.0000000e+00 
0.0000000e+00 -7.7325955e-04 0.0000000e+00 
0.0000000e+00 -7.2391029e-04 0.0000000e+00 
0.0000000e+00 -6.4166152e-04 0.0000000e+00 
0.0000000e+00 -5.2651326e-04 0.0000000e+00 
0.0000000e+00 -3.7846551e-04 0.0000000e+00 
0.0000000e+00 -1.9751824e-04 0.0000000e+00 
0.0000000e+00 1.6328537e-05 0.0000000e+00 
0.0000000e+00 2.6307482e-04 0.0000000e+00 
0.0000000e+00 5.4272061e-04 0.0000000e+00 
0.0000000e+00 8.5526588e-04 0.0000000e+00 
0.0000000e+00 1.2007107e-03 0.0000000e+00 
0.0000000e+00 1.5790550e-03 0.0000000e+00 
0.0000000e+00 9.3559601e-04 0.0000000e+00 
0.0000000e+00 4.0079650e-04 0.0000000e+00 
0.0000000e+00 -2.5343472e-05 0.0000000e+00 
0.0000000e+00 -3.4282394e-04 0.0000000e+00 
0.0000000e+00 -5.5164489e-04 0.0000000e+00 
0.0000000e+00 -6.5180630e-04 0.0000000e+00 
0.0000000e+00 -6.4330822e-04 0.0000000e+00 
0.0000000e+00 -5.2615063e-04 0.0000000e+00 
0.0000000e+00 -3.0033354e-04 0.0000000e+00 
0.0000000e+00 3.4143075e-05 0.0000000e+00 
0.0000000e+00 4.7727922e-04 0.0000000e+00 
0.0000000e+00 1.0290749e-03 0.0000000e+00 
0.0000000e+00 5.4188195e-04 0.0000000e+00 
0.0000000e+00 1.4488153e-04 0.0000000e+00 
0.0000000e+00 -1.6192648e-04 0.0000000e+00 
0.0000000e+00 -3.7854206e-04 0.0000000e+00 
0.0000000e+00 -5.0496520e-04 0.0000000e+00 
0.0000000e+00 -5.4119591e-04 0.0000000e+00 
0.0000000e+00 -4.8723424e-04 0.0000000e+00 
0.0000000e+00 -3.4308009e-04 0.0000000e+00 
0.0000000e+00 -1.0873353e-04 0.0000000e+00 
0.0000000e+00 2.1580547e-04 0.0000000e+00 
0.0000000e+00 6.3053687e-04 0.0000000e+00 
0.0000000e+00 1.1354608e-03 0.0000000e+00 
0.0000000e+00 6.0471823e-04 0.0000000e+00 
0.0000000e+00 1.7154859e-04 0.0000000e+00 
0.0000000e+00 -1.6404824e-04 0.0000000e+00 
0.0000000e+00 -4.0207221e-04 0.0000000e+00 
0.0000000e+00 -5.4252334e-04 0.0000000e+00 
0.0000000e+00 -5.8540161e-04 0.0000000e+00 
0.0000000e+00 -5.3070707e-04 0.0000000e+00 
0.0000000e+00 -3.7843967e-04 0.0000000e+00 
0.0000000e+00 -1.2859942e-04 0.0000000e+00 
0.0000000e+00 2.1881367e-04 0.0000000e+00 
0.0000000e+00 6.6379958e-04 0.0000000e+00 
0.0000000e+00 1.2063583e-03 0.0000000e+00 
0.0000000e+00 7.1546476e-04 0.0000000e+00 
0.0000000e+00 3.0737516e-04 0.0000000e+00 
0.0000000e+00 -1.7910361e-05 0.0000000e+00 
0.0000000e+00 -2.6039183e-04 0.0000000e+00 
0.0000000e+00 -4.2006923e-04 0.0000000e+00 
0.0000000e+00 -4.9694255e-04 0.0000000e+00 
0.0000000e+00 -4.9101183e-04 0.0000000e+00 
0.0000000e+00 -4.0227707e-04 0.0000000e+00 
0.0000000e+00 -2.3073825e-04 0.0000000e+00 
0.0000000e+00 2.3604631e-05 0.0000000e+00 
0.0000000e+00 3.6075158e-04 0.0000000e+00 
0.0000000e+00 7.8070257e-04 0.0000000e+00 
0.0000000e+00 1.5390539e-04 0.0000000e+00 
0.0000000e+00 -3.3096789e-04 0.0000000e+00 
0.0000000e+00 -6.7391724e-04 0.0000000e+00 
0.0000000e+00 -8.7494269e-04 0.0000000e+00 
0.0000000e+00 -9.3404419e-04 0.0000000e+00 
0.0000000e+00 -8.5122179e-04 0.0000000e+00 
0.0000000e+00 -6.2647549e-04 0.0000000e+00 
0.0000000e+00 -2.5980530e-04 0.0000000e+00 
0.0000000e+00 2.4878883e-04 0.0000000e+00 
0.0000000e+00 8.9930685e-04 0.0000000e+00 
0.0000000e+00 1.6917489e-03 0.0000000e+00 
0.0000000e+00 2.6261148e-03 0.0000000e+00 
0.0000000e+00 7.8970933e-04 0.0000000e+00 
0.0000000e+00 7.7325955e-04 0.0000000e+00 
0.0000000e+00 7.2391029e-04 0.0000000e+00 
0.0000000e+00 6.4166152e-04 0.0000000e+00 
0.0000000e+00 5.2651326e-04 0.0000000e+00 
0.0000000e+00 3.7846551e-04 0.0000000e+00 
0.0000000e+00 1.9751824e-04 0.0000000e+00 
0.0000000e+00 -1.6328537e-05 0.0000000e+00 
0.0000000e+00 -2.6307482e-04 0.0000000e+00 
0.0000000e+00 -5.4272061e-04 0.0000000e+00 
0.0000000e+00 -8.5526588e-04 0.0000000e+00 
0.0000000e+00 -1.2007107e-03 0.0000000e+00 
0.0000000e+00 -1.5790550e-03 0.0000000e+00 
0.0000000e+00 -9.3559601e-04 0.0000000e+00 
0.0000000e+00 -4.0079650e-04 0.0000000e+00 
0.0000000e+00 2.5343472e-05 0.0000000e+00 
0.0000000e+00 3.4282394e-04 0.0000000e+00 
0.0000000e+00 5.5164489e-04 0.0000000e+00 
0.0000000e+00 6.5180630e-04 0.0000000e+00 
0.0000000e+00 6.4330822e-04 0.0000000e+00 
0.0000000e+00 5.2615063e-04 0.0000000e+00 
0.0000000e+00 3.0033354e-04 0.0000000e+00 
0.0000000e+00 -3.4143075e-05 0.0000000e+00 
0.0000000e+00 -4.7727922e-04 0.0000000e+00 
0.0000000e+00 -1.0290749e-03 0.0000000e+00 
0.0000000e+00 -5.4188195e-04 0.0000000e+00 
0.0000000e+00 -1.4488153e-04 0.0000000e+00 
0.0000000e+00 1.6192648e-04 0.0000000e+00 
0.0000000e+00 3.7854206e-04 0.0000000e+00 
0.0000000e+00 5.0496520e-04 0.0000000e+00 
0.0000000e+00 5.4119591e-04 0.0000000e+00 
0.0000000e+00 4.8723424e-04 0.0000000e+00 
0.0000000e+00 3.4308009e-04 0.0000000e+00 
0.0000000e+00 1.0873353e-04 0.0000000e+00 
0.0000000e+00 -2.1580547e-04 0.0000000e+00 
0.0000000e+00 -6.3053687e-04 0.0000000e+00 
0.0000000e+00 -1.1354608e-03 0.0000000e+00 
0.0000000e+00 -6.0471823e-04 0.0000000e+00 
0.0000000e+00 -1.7154859e-04 0.0000000e+00 
0.0000000e+00 1.6404824e-04 0.0000000e+00 
0.0000000e+00 4.0207221e-04 0.0000000e+00 
0.0000000e+00 5.4252334e-04 0.0000000e+00 
0.0000000e+00 5.8540161e-04 0.0000000e+00 
0.0000000e+00 5.3070707e-04 0.0000000e+00 
0.0000000e+00 3.7843967e-04 0.0000000e+00 
0.0000000e+00 1.2859942e-04 0.0000000e+00 
0.0000000e+00 -2.1881367e-04 0.0000000e+00 
0.0000000e+00 -6.6379958e-04 0.0000000e+00 
0.0000000e+00 -1.2063583e-03 0.0000000e+00 
0.0000000e+00 -7.1546476e-04 0.0000000e+00 
0.0000000e+00 -3.0737516e-04 0.0000000e+00 
0.0000000e+00 1.7910361e-05 0.0000000e+00 
0.0000000e+00 2.6039183e-04 0.0000000e+00 
0.0000000e+00 4.2006923e-04 0.0000000e+00 
0.0000000e+00 4.9694255e-04 0.0000000e+00 
0.0000000e+00 4.9101183e-04 0.0000000e+00 
0.0000000e+00 4.0227707e-04 0.0000000e+00 
0.0000000e+00 2.3073825e-04 0.0000000e+00 
0.0000000e+00 -2.3604631e-05 0.0000000e+00 
0.0000000e+00 -3.6075158e-04 0.0000000e+00 
0.0000000e+00 -7.8070257e-04 0.0000000e+00 
0.0000000e+00 -1.5390539e-04 0.0000000e+00 
0.0000000e+00 3.3096789e-04 0.0000000e+00 
0.0000000e+00 6.7391724e-04 0.0000000e+00 
0.0000000e+00 8.7494269e-04 0.0000000e+00 
0.0000000e+00 9.3404419e-04 0.0000000e+00 
0.0000000e+00 8.5122179e-04 0.0000000e+00 
0.0000000e+00 6.2647549e-04 0.0000000e+00 
0.0000000e+00 2.5980530e-04 0.0000000e+00 
0.0000000e+00 -2.4878883e-04 0.0000000e+00 
0.0000000e+00 -8.9930685e-04 0.0000000e+00 
0.0000000e+00 -1.6917489e-03 0.0000000e+00 
0.0000000e+00 -2.6261148e-03 0.0000000e+00 
0.0000000e+00 3.1992188e-03 0.0000000e+00 
0.0000000e+00 3.7921064e-03 0.0000000e+00 
0.0000000e+00 3.5631731e-03 0.0000000e+00 
0.0000000e+00 2.7178740e-03 0.0000000e+00 
0.0000000e+00 1.4616647e-03 0.0000000e+00 
0.0000000e+00 -4.4262075e-16 0.0000000e+00 
0.0000000e+00 -1.4616647e-03 0.0000000e+00 
0.0000000e+00 -2.7178740e-03 0.0000000e+00 
0.0000000e+00 -3.5631731e-03 0.0000000e+00 
0.0000000e+00 -3.7921064e-03 0.0000000e+00 
0.0000000e+00 -3.1992188e-03 0.0000000e+00 
0.0000000e+00 2.7409019e-03 0.0000000e+00 
0.0000000e+00 3.4254529e-03 0.0000000e+00 
0.0000000e+00 3.2881829e-03 0.0000000e+00 
0.0000000e+00 2.5345474e-03 0.0000000e+00 
0.0000000e+00 1.3700012e-03 0.0000000e+00 
0.0000000e+00 -3.3348140e-16 0.0000000e+00 
0.0000000e+00 -1.3700012e-03 0.0000000e+00 
0.0000000e+00 -2.5345474e-03 0.0000000e+00 
0.0000000e+00 -3.2881829e-03 0.0000000e+00 
0.0000000e+00 -3.4254529e-03 0.0000000e+00 
0.0000000e+00 -2.7409019e-03 0.0000000e+00 
0.0000000e+00 2.8295568e-03 0.0000000e+00 
0.0000000e+00 3.4963768e-03 0.0000000e+00 
0.0000000e+00 3.3413759e-03 0.0000000e+00 
0.0000000e+00 2.5700093e-03 0.0000000e+00 
0.0000000e+00 1.3877322e-03 0.0000000e+00 
0.0000000e+00 -3.2741810e-16 0.0000000e+00 
0.0000000e+00 -1.3877322e-03 0.0000000e+00 
0.0000000e+00 -2.5700093e-03 0.0000000e+00 
0.0000000e+00 -3.3413759e-03 0.0000000e+00 
0.0000000e+00 -3.4963768e-03 0.0000000e+00 
0.0000000e+00 -2.8295568e-03 0.0000000e+00 
0.0000000e+00 2.8886383e-03 0.0000000e+00 
0.0000000e+00 3.5436419e-03 0.0000000e+00 
0.0000000e+00 3.3768248e-03 0.0000000e+00 
0.0000000e+00 2.5936419e-03 0.0000000e+00 
0.0000000e+00 1.3995485e-03 0.0000000e+00 
0.0000000e+00 -2.4253192e-16 0.0000000e+00 
0.0000000e+00 -1.3995485e-03 0.0000000e+00 
0.0000000e+00 -2.5936419e-03 0.0000000e+00 
0.0000000e+00 -3.3768248e-03 0.0000000e+00 
0.0000000e+00 -3.5436419e-03 0.0000000e+00 
0.0000000e+00 -2.8886383e-03 0.0000000e+00 
0.0000000e+00 2.5339250e-03 0.0000000e+00 
0.0000000e+00 3.2598714e-03 0.0000000e+00 
0.0000000e+00 3.1639969e-03 0.0000000e+00 
0.0000000e+00 2.4517565e-03 0.0000000e+00 
0.0000000e+00 1.3286059e-03 0.0000000e+00 
0.0000000e+00 -2.9406996e-16 0.0000000e+00 
0.0000000e+00 -1.3286059e-03 0.0000000e+00 
0.0000000e+00 -2.4517565e-03 0.0000000e+00 
0.0000000e+00 -3.1639969e-03 0.0000000e+00 
0.0000000e+00 -3.2598714e-03 0.0000000e+00 
0.0000000e+00 -2.5339250e-03 0.0000000e+00 
0.0000000e+00 4.0717684e-03 0.0000000e+00 
0.0000000e+00 4.4901459e-03 0.0000000e+00 
0.0000000e+00 4.0867031e-03 0.0000000e+00 