# vtk DataFile Version 4.0
vtk output
ASCII
DATASET UNSTRUCTURED_GRID
POINTS 61 float
0.0000000e+00 0.0000000e+00 0.0000000e+00 
0.0000000e+00 2.0000000e-01 0.0000000e+00 
0.0000000e+00 4.0000001e-01 0.0000000e+00 
0.0000000e+00 6.0000002e-01 0.0000000e+00 
0.0000000e+00 8.0000001e-01 0.0000000e+00 
0.0000000e+00 1.0000000e+00 0.0000000e+00 
0.0000000e+00 1.2000000e+00 0.0000000e+00 
0.0000000e+00 1.4000000e+00 0.0000000e+00 
0.0000000e+00 1.6000000e+00 0.0000000e+00 
0.0000000e+00 1.8000000e+00 0.0000000e+00 
0.0000000e+00 2.0000000e+00 0.0000000e+00 
0.0000000e+00 2.2000000e+00 0.0000000e+00 
0.0000000e+00 2.4000001e+00 0.0000000e+00 
0.0000000e+00 2.5999999e+00 0.0000000e+00 
0.0000000e+00 2.8000000e+00 0.0000000e+00 
0.0000000e+00 3.0000000e+00 0.0000000e+00 
0.0000000e+00 3.2000000e+00 0.0000000e+00 
0.0000000e+00 3.4000001e+00 0.0000000e+00 
0.0000000e+00 3.5999999e+00 0.0000000e+00 
0.0000000e+00 3.8000000e+00 0.0000000e+00 
0.0000000e+00 4.0000000e+00 0.0000000e+00 
2.0000000e-01 4.0000000e+00 0.0000000e+00 
4.0000001e-01 4.0000000e+00 0.0000000e+00 
6.0000002e-01 4.0000000e+00 0.0000000e+00 
8.0000001e-01 4.0000000e+00 0.0000000e+00 
1.0000000e+00 4.0000000e+00 0.0000000e+00 
1.0000000e+00 4.0000000e+00 0.0000000e+00 
1.2000000e+00 4.0000000e+00 0.0000000e+00 
1.4000000e+00 4.0000000e+00 0.0000000e+00 
1.6000000e+00 4.0000000e+00 0.0000000e+00 
1.8000000e+00 4.0000000e+00 0.0000000e+00 
2.0000000e+00 4.0000000e+00 0.0000000e+00 
2.0000000e+00 3.8000000e+00 0.0000000e+00 
2.0000000e+00 3.5999999e+00 0.0000000e+00 
2.0000000e+00 3.4000001e+00 0.0000000e+00 
2.0000000e+00 3.2000000e+00 0.0000000e+00 
2.0000000e+00 3.0000000e+00 0.0000000e+00 
2.0000000e+00 2.8000000e+00 0.0000000e+00 
2.0000000e+00 2.5999999e+00 0.0000000e+00 
2.0000000e+00 2.4000001e+00 0.0000000e+00 
2.0000000e+00 2.2000000e+00 0.0000000e+00 
2.0000000e+00 2.0000000e+00 0.0000000e+00 
2.0000000e+00 1.8000000e+00 0.0000000e+00 
2.0000000e+00 1.6000000e+00 0.0000000e+00 
2.0000000e+00 1.4000000e+00 0.0000000e+00 
2.0000000e+00 1.2000000e+00 0.0000000e+00 
2.0000000e+00 1.0000000e+00 0.0000000e+00 
2.0000000e+00 8.0000001e-01 0.0000000e+00 
2.0000000e+00 6.0000002e-01 0.0000000e+00 
2.0000000e+00 4.0000001e-01 0.0000000e+00 
2.0000000e+00 2.0000000e-01 0.0000000e+00 
2.0000000e+00 0.0000000e+00 0.0000000e+00 
2.0000000e-01 2.0000000e+00 0.0000000e+00 
4.0000001e-01 2.0000000e+00 0.0000000e+00 
6.0000002e-01 2.0000000e+00 0.0000000e+00 
8.0000001e-01 2.0000000e+00 0.0000000e+00 
1.0000000e+00 2.0000000e+00 0.0000000e+00 
1.2000000e+00 2.0000000e+00 0.0000000e+00 
1.4000000e+00 2.0000000e+00 0.0000000e+00 
1.6000000e+00 2.0000000e+00 0.0000000e+00 
1.8000000e+00 2.0000000e+00 0.0000000e+00 

CELLS 60 180
2 0 1
2 1 2
2 2 3
2 3 4
2 4 5
2 5 6
2 6 7
2 7 8
2 8 9
2 9 10
2 10 11
2 11 12
2 12 13
2 13 14
2 14 15
2 15 16
2 16 17
2 17 18
2 18 19
2 19 20
2 20 21
2 21 22
2 22 23
2 23 24
2 24 25
2 26 27
2 27 28
2 28 29
2 29 30
2 30 31
2 31 32
2 32 33
2 33 34
2 34 35
2 35 36
2 36 37
2 37 38
2 38 39
2 39 40
2 40 41
2 41 42
2 42 43
2 43 44
2 44 45
2 45 46
2 46 47
2 47 48
2 48 49
2 49 50
2 50 51
2 10 52
2 52 53
2 53 54
2 54 55
2 55 56
2 56 57
2 57 58
2 58 59
2 59 60
2 60 41

CELL_TYPES 60
3
3
3
3
3
3
3
3
3
3
3
3
3
3
3
3
3
3
3
3
3
3
3
3
3
3
3
3
3
3
3
3
3
3
3
3
3
3
3
3
3
3
3
3
3
3
3
3
3
3
3
3
3
3
3
3
3
3
3
3
POINT_DATA 61
FIELD FieldData 4
DISPLACEMENT 3 61  float
0.0000000e+00 0.0000000e+00 0.0000000e+00 
6.2472041e-04 -1.0108856e-17 0.0000000e+00 
2.2191650e-03 -2.0292329e-17 0.0000000e+00 
4.3637590e-03 -3.0522736e-17 0.0000000e+00 
6.6389274e-03 -4.0750639e-17 0.0000000e+00 
8.6250957e-03 -5.0724770e-17 0.0000000e+00 
9.9026877e-03 -6.0655520e-17 0.0000000e+00 
1.0052131e-02 -7.0010906e-17 0.0000000e+00 
8.6538475e-03 -8.0995137e-17 0.0000000e+00 
5.2882652e-03 -9.1981611e-17 0.0000000e+00 
-4.6419210e-04 -1.0197782e-16 0.0000000e+00 
-9.3764132e-03 -1.0359387e-16 0.0000000e+00 
-2.0800238e-02 -1.0506183e-16 0.0000000e+00 
-3.3023674e-02 -1.0648568e-16 0.0000000e+00 
-4.4334725e-02 -1.0787831e-16 0.0000000e+00 
-5.3021394e-02 -1.0945782e-16 0.0000000e+00 
-5.7371691e-02 -1.1132131e-16 0.0000000e+00 
-5.5673614e-02 -1.1343575e-16 0.0000000e+00 
-4.6215173e-02 -1.2178941e-16 0.0000000e+00 
-2.7284369e-02 -1.3284002e-16 0.0000000e+00 
2.8307915e-03 -1.4511432e-16 0.0000000e+00 
2.7562273e-03 -4.2726178e-02 0.0000000e+00 
2.6816630e-03 -9.8348707e-02 0.0000000e+00 
2.6070988e-03 -1.6686758e-01 0.0000000e+00 
2.5325345e-03 -2.4828282e-01 0.0000000e+00 
-4.0415516e-14 -3.4234115e-01 0.0000000e+00 
-4.0415516e-14 -3.4234115e-01 0.0000000e+00 
-2.5325345e-03 -2.4828282e-01 0.0000000e+00 
-2.6070988e-03 -1.6686758e-01 0.0000000e+00 
-2.6816630e-03 -9.8348707e-02 0.0000000e+00 
-2.7562273e-03 -4.2726178e-02 0.0000000e+00 
-2.8307915e-03 7.6725404e-16 0.0000000e+00 
2.7284369e-02 7.2360399e-16 0.0000000e+00 
4.6215173e-02 6.8050791e-16 0.0000000e+00 
5.5673614e-02 6.3666522e-16 0.0000000e+00 
5.7371691e-02 6.0711791e-16 0.0000000e+00 
5.3021394e-02 5.7571331e-16 0.0000000e+00 
4.4334725e-02 5.4527074e-16 0.0000000e+00 
3.3023674e-02 5.1532045e-16 0.0000000e+00 
2.0800238e-02 4.8554396e-16 0.0000000e+00 
9.3764132e-03 4.5561172e-16 0.0000000e+00 
4.6419210e-04 4.2521687e-16 0.0000000e+00 
-5.2882652e-03 3.8371135e-16 0.0000000e+00 
-8.6538475e-03 3.4176959e-16 0.0000000e+00 
-1.0052131e-02 2.9948300e-16 0.0000000e+00 
-9.9026877e-03 2.5694689e-16 0.0000000e+00 
-8.6250957e-03 2.1418395e-16 0.0000000e+00 
-6.6389274e-03 1.7129877e-16 0.0000000e+00 
-4.3637590e-03 1.2836127e-16 0.0000000e+00 
-2.2191650e-03 8.5447751e-17 0.0000000e+00 
-6.2472041e-04 4.2634808e-17 0.0000000e+00 
0.0000000e+00 0.0000000e+00 0.0000000e+00 
-3.7135367e-04 6.3771778e-03 0.0000000e+00 
-2.7851525e-04 1.1337205e-02 0.0000000e+00 
-1.8567684e-04 1.4880082e-02 0.0000000e+00 
-9.2838418e-05 1.7005807e-02 0.0000000e+00 
-2.5684895e-14 1.7714383e-02 0.0000000e+00 
9.2838418e-05 1.7005807e-02 0.0000000e+00 
1.8567684e-04 1.4880082e-02 0.0000000e+00 
2.7851525e-04 1.1337205e-02 0.0000000e+00 
3.7135367e-04 6.3771778e-03 0.0000000e+00 
ROTATION 3 61  float
0.0000000e+00 0.0000000e+00 0.0000000e+00 
0.0000000e+00 0.0000000e+00 -5.8975583e-03 
0.0000000e+00 0.0000000e+00 -9.6972417e-03 
0.0000000e+00 0.0000000e+00 -1.1399051e-02 
0.0000000e+00 0.0000000e+00 -1.1002987e-02 
0.0000000e+00 0.0000000e+00 -8.5090473e-03 
0.0000000e+00 0.0000000e+00 -3.9172336e-03 
0.0000000e+00 0.0000000e+00 2.7724546e-03 
0.0000000e+00 0.0000000e+00 1.1560017e-02 
0.0000000e+00 0.0000000e+00 2.2445453e-02 
0.0000000e+00 0.0000000e+00 3.5428766e-02 
0.0000000e+00 0.0000000e+00 5.2266780e-02 
0.0000000e+00 0.0000000e+00 6.0544815e-02 
0.0000000e+00 0.0000000e+00 6.0262877e-02 
0.0000000e+00 0.0000000e+00 5.1420964e-02 
0.0000000e+00 0.0000000e+00 3.4019075e-02 
0.0000000e+00 0.0000000e+00 8.0572087e-03 
0.0000000e+00 0.0000000e+00 -2.6464634e-02 
0.0000000e+00 0.0000000e+00 -6.9546454e-02 
0.0000000e+00 0.0000000e+00 -1.2118825e-01 
0.0000000e+00 0.0000000e+00 -1.8139002e-01 
0.0000000e+00 0.0000000e+00 -2.4587177e-01 
0.0000000e+00 0.0000000e+00 -3.1035352e-01 
0.0000000e+00 0.0000000e+00 -3.7483528e-01 
0.0000000e+00 0.0000000e+00 -4.3931705e-01 
0.0000000e+00 0.0000000e+00 -5.0000000e-01 
0.0000000e+00 0.0000000e+00 5.0000000e-01 
0.0000000e+00 0.0000000e+00 4.3931705e-01 
0.0000000e+00 0.0000000e+00 3.7483528e-01 
0.0000000e+00 0.0000000e+00 3.1035352e-01 
0.0000000e+00 0.0000000e+00 2.4587177e-01 
0.0000000e+00 0.0000000e+00 1.8139002e-01 
0.0000000e+00 0.0000000e+00 1.2118825e-01 
0.0000000e+00 0.0000000e+00 6.9546454e-02 
0.0000000e+00 0.0000000e+00 2.6464634e-02 
0.0000000e+00 0.0000000e+00 -8.0572087e-03 
0.0000000e+00 0.0000000e+00 -3.4019075e-02 
0.0000000e+00 0.0000000e+00 -5.1420964e-02 
0.0000000e+00 0.0000000e+00 -6.0262877e-02 
0.0000000e+00 0.0000000e+00 -6.0544815e-02 
0.0000000e+00 0.0000000e+00 -5.2266780e-02 
0.0000000e+00 0.0000000e+00 -3.5428766e-02 
0.0000000e+00 0.0000000e+00 -2.2445453e-02 
0.0000000e+00 0.0000000e+00 -1.1560017e-02 
0.0000000e+00 0.0000000e+00 -2.7724546e-03 
0.0000000e+00 0.0000000e+00 3.9172336e-03 
0.0000000e+00 0.0000000e+00 8.5090473e-03 
0.0000000e+00 0.0000000e+00 1.1002987e-02 
0.0000000e+00 0.0000000e+00 1.1399051e-02 
0.0000000e+00 0.0000000e+00 9.6972417e-03 
0.0000000e+00 0.0000000e+00 5.8975583e-03 
0.0000000e+00 0.0000000e+00 0.0000000e+00 
0.0000000e+00 0.0000000e+00 2.8343013e-02 
0.0000000e+00 0.0000000e+00 2.1257259e-02 
0.0000000e+00 0.0000000e+00 1.4171506e-02 
0.0000000e+00 0.0000000e+00 7.0857531e-03 
0.0000000e+00 0.0000000e+00 -4.3888783e-15 
0.0000000e+00 0.0000000e+00 -7.0857531e-03 
0.0000000e+00 0.0000000e+00 -1.4171506e-02 
0.0000000e+00 0.0000000e+00 -2.1257259e-02 
0.0000000e+00 0.0000000e+00 -2.8343013e-02 
REACTION 3 61  float
-4.9567035e+04 -2.4913806e+03 0.0000000e+00 
-8.0659012e+01 -1.4349976e+04 0.0000000e+00 
-1.2498961e+02 -1.3808900e+04 0.0000000e+00 
-4.1326260e+01 -3.8798044e+03 0.0000000e+00 
8.5065063e+01 8.2769199e+03 0.0000000e+00 
1.2324699e+02 1.5502915e+04 0.0000000e+00 
4.3378128e+01 1.0635834e+04 0.0000000e+00 
6.3595493e+01 -1.3488461e+04 0.0000000e+00 
7.9668958e+02 -6.4013559e+04 0.0000000e+00 
3.3950166e+03 -1.4800814e+05 0.0000000e+00 
-2.6417094e+05 -3.1251956e+05 0.0000000e+00 
1.6891301e+04 -3.4216791e+05 0.0000000e+00 
7.2478247e+03 -1.2660427e+05 0.0000000e+00 
-8.1920537e+03 1.4377520e+05 0.0000000e+00 
-1.7074986e+04 3.5159119e+05 0.0000000e+00 
-1.2263895e+04 3.7813616e+05 0.0000000e+00 
-1.8199240e+03 1.0260171e+05 0.0000000e+00 
-1.9116973e+04 -5.9363525e+05 0.0000000e+00 
-1.3176392e+05 -1.8144471e+06 0.0000000e+00 
-4.4603447e+05 -3.6260125e+06 0.0000000e+00 
-1.1302014e+07 7.6910370e+06 0.0000000e+00 
-7.7214255e+06 1.8918778e+06 0.0000000e+00 
-9.1630020e+06 2.8586768e+06 0.0000000e+00 
-1.0274551e+07 3.9133945e+06 0.0000000e+00 
-5.7293380e+06 4.0804835e+06 0.0000000e+00 
4.4585144e+07 -1.4380108e+07 0.0000000e+00 
-4.4585144e+07 -1.4380108e+07 0.0000000e+00 
5.7293380e+06 4.0804835e+06 0.0000000e+00 
1.0274551e+07 3.9133945e+06 0.0000000e+00 
9.1630020e+06 2.8586768e+06 0.0000000e+00 
7.7214255e+06 1.8918778e+06 0.0000000e+00 
1.1302014e+07 7.6910370e+06 0.0000000e+00 
4.4603447e+05 -3.6260125e+06 0.0000000e+00 
1.3176392e+05 -1.8144471e+06 0.0000000e+00 
1.9116973e+04 -5.9363525e+05 0.0000000e+00 
1.8199240e+03 1.0260171e+05 0.0000000e+00 
1.2263895e+04 3.7813616e+05 0.0000000e+00 
1.7074986e+04 3.5159119e+05 0.0000000e+00 
8.1920537e+03 1.4377520e+05 0.0000000e+00 
-7.2478247e+03 -1.2660427e+05 0.0000000e+00 
-1.6891301e+04 -3.4216791e+05 0.0000000e+00 
2.6417094e+05 -3.1251956e+05 0.0000000e+00 
-3.3950166e+03 -1.4800814e+05 0.0000000e+00 
-7.9668958e+02 -6.4013559e+04 0.0000000e+00 
-6.3595493e+01 -1.3488461e+04 0.0000000e+00 
-4.3378128e+01 1.0635834e+04 0.0000000e+00 
-1.2324699e+02 1.5502915e+04 0.0000000e+00 
-8.5065063e+01 8.2769199e+03 0.0000000e+00 
4.1326260e+01 -3.8798044e+03 0.0000000e+00 
1.2498961e+02 -1.3808900e+04 0.0000000e+00 
8.0659012e+01 -1.4349976e+04 0.0000000e+00 
4.9567035e+04 -2.4913806e+03 0.0000000e+00 
1.0862798e+05 3.8764282e+03 0.0000000e+00 
8.1522586e+04 2.5606194e+03 0.0000000e+00 
5.4372980e+04 1.6199083e+03 0.0000000e+00 
2.7193871e+04 1.0551425e+03 0.0000000e+00 
5.8033038e-08 8.6683063e+02 0.0000000e+00 
-2.7193871e+04 1.0551425e+03 0.0000000e+00 
-5.4372980e+04 1.6199084e+03 0.0000000e+00 
-8.1522586e+04 2.5606194e+03 0.0000000e+00 
-1.0862798e+05 3.8764282e+03 0.0000000e+00 
REACTION_MOMENT 3 61  float
0.0000000e+00 0.0000000e+00 3.2822012e+04 
0.0000000e+00 0.0000000e+00 -4.7911186e+00 
0.0000000e+00 0.0000000e+00 -1.6810015e+01 
0.0000000e+00 0.0000000e+00 -2.6466955e+01 
0.0000000e+00 0.0000000e+00 -2.3933525e+01 
0.0000000e+00 0.0000000e+00 -1.1804538e+01 
0.0000000e+00 0.0000000e+00 -2.1341867e+00 
0.0000000e+00 0.0000000e+00 2.2309394e+00 
0.0000000e+00 0.0000000e+00 4.2016956e+01 
0.0000000e+00 0.0000000e+00 2.5147931e+02 
0.0000000e+00 0.0000000e+00 1.7759465e+03 
0.0000000e+00 0.0000000e+00 2.6370593e+03 
0.0000000e+00 0.0000000e+00 4.0100549e+03 
0.0000000e+00 0.0000000e+00 3.9564651e+03 
0.0000000e+00 0.0000000e+00 2.5188809e+03 
0.0000000e+00 0.0000000e+00 8.4050989e+02 
0.0000000e+00 0.0000000e+00 7.3690315e+01 
0.0000000e+00 0.0000000e+00 -7.8624249e+02 
0.0000000e+00 0.0000000e+00 -8.0846133e+03 
0.0000000e+00 0.0000000e+00 -3.7405277e+04 
0.0000000e+00 0.0000000e+00 -1.1448862e+05 
0.0000000e+00 0.0000000e+00 -2.6924434e+05 
0.0000000e+00 0.0000000e+00 -5.2238506e+05 
0.0000000e+00 0.0000000e+00 -8.8579456e+05 
0.0000000e+00 0.0000000e+00 -1.2441364e+06 
-0.0000000e+00 -0.0000000e+00 -9.9054281e+05 
0.0000000e+00 0.0000000e+00 9.9054281e+05 
0.0000000e+00 0.0000000e+00 1.2441364e+06 
0.0000000e+00 0.0000000e+00 8.8579456e+05 
0.0000000e+00 0.0000000e+00 5.2238506e+05 
0.0000000e+00 0.0000000e+00 2.6924434e+05 
0.0000000e+00 0.0000000e+00 1.1448862e+05 
0.0000000e+00 0.0000000e+00 3.7405277e+04 
0.0000000e+00 0.0000000e+00 8.0846133e+03 
0.0000000e+00 0.0000000e+00 7.8624249e+02 
0.0000000e+00 0.0000000e+00 -7.3690315e+01 
0.0000000e+00 0.0000000e+00 -8.4050989e+02 
0.0000000e+00 0.0000000e+00 -2.5188809e+03 
0.0000000e+00 0.0000000e+00 -3.9564651e+03 
0.0000000e+00 0.0000000e+00 -4.0100549e+03 
0.0000000e+00 0.0000000e+00 -2.6370593e+03 
0.0000000e+00 0.0000000e+00 -1.7759465e+03 
0.0000000e+00 0.0000000e+00 -2.5147931e+02 
0.0000000e+00 0.0000000e+00 -4.2016956e+01 
0.0000000e+00 0.0000000e+00 -2.2309394e+00 
0.0000000e+00 0.0000000e+00 2.1341867e+00 
0.0000000e+00 0.0000000e+00 1.1804538e+01 
0.0000000e+00 0.0000000e+00 2.3933525e+01 
0.0000000e+00 0.0000000e+00 2.6466955e+01 
0.0000000e+00 0.0000000e+00 1.6810015e+01 
0.0000000e+00 0.0000000e+00 4.7911186e+00 
0.0000000e+00 0.0000000e+00 -3.2822012e+04 
0.0000000e+00 0.0000000e+00 1.1884613e+03 
0.0000000e+00 0.0000000e+00 7.5061920e+02 
0.0000000e+00 0.0000000e+00 4.3336343e+02 
0.0000000e+00 0.0000000e+00 1.9655957e+02 
0.0000000e+00 0.0000000e+00 -4.8964284e-07 
0.0000000e+00 0.0000000e+00 -1.9655959e+02 
0.0000000e+00 0.0000000e+00 -4.3336343e+02 
0.0000000e+00 0.0000000e+00 -7.5061920e+02 
0.0000000e+00 0.0000000e+00 -1.1884613e+03 
CELL_DATA 60
FIELD FieldData 2
FORCE 3 60  float
2.6461953e+03 -4.9559012e+04 0.0000000e+00 
1.7236611e+04 -4.9511859e+04 0.0000000e+00 
3.1182176e+04 -4.9441180e+04 0.0000000e+00 
3.5094469e+04 -4.9418004e+04 0.0000000e+00 
2.6745674e+04 -4.9465789e+04 0.0000000e+00 
1.1066881e+04 -4.9536016e+04 0.0000000e+00 
1.5142641e+02 -4.9562223e+04 0.0000000e+00 
1.3256464e+04 -4.9592617e+04 0.0000000e+00 
7.6785992e+04 -5.0001078e+04 0.0000000e+00 
2.2422869e+05 -5.1775086e+04 0.0000000e+00 
5.3774875e+05 1.9356692e+05 0.0000000e+00 
8.8270531e+05 1.8416762e+05 0.0000000e+00 
1.0102427e+06 1.8016041e+05 0.0000000e+00 
8.6540481e+05 1.8469056e+05 0.0000000e+00 
5.1091241e+05 1.9419920e+05 0.0000000e+00 
1.2827351e+05 2.0118022e+05 0.0000000e+00 
1.9549902e+04 2.0227547e+05 0.0000000e+00 
6.0557119e+05 2.1182855e+05 0.0000000e+00 
2.4137120e+06 2.7991778e+05 0.0000000e+00 
6.0466470e+06 5.1121481e+05 0.0000000e+00 
1.1780374e+07 8.4497944e+05 0.0000000e+00 
1.9653228e+07 1.8063170e+06 0.0000000e+00 
2.9107920e+07 3.2250522e+06 0.0000000e+00 
3.9870868e+07 5.1156350e+06 0.0000000e+00 
4.6435988e+07 6.1904415e+06 0.0000000e+00 
4.6435988e+07 -6.1904415e+06 0.0000000e+00 
3.9870868e+07 -5.1156350e+06 0.0000000e+00 
2.9107920e+07 -3.2250522e+06 0.0000000e+00 
1.9653228e+07 -1.8063170e+06 0.0000000e+00 
1.1780374e+07 -8.4497944e+05 0.0000000e+00 
6.0466470e+06 -5.1121481e+05 0.0000000e+00 
2.4137120e+06 -2.7991778e+05 0.0000000e+00 
6.0557119e+05 -2.1182855e+05 0.0000000e+00 
1.9549902e+04 -2.0227547e+05 0.0000000e+00 
1.2827351e+05 -2.0118022e+05 0.0000000e+00 
5.1091241e+05 -1.9419920e+05 0.0000000e+00 
8.6540481e+05 -1.8469056e+05 0.0000000e+00 
1.0102427e+06 -1.8016041e+05 0.0000000e+00 
8.8270531e+05 -1.8416762e+05 0.0000000e+00 
5.3774875e+05 -1.9356692e+05 0.0000000e+00 
2.2422869e+05 5.1775086e+04 0.0000000e+00 
7.6785992e+04 5.0001078e+04 0.0000000e+00 
1.3256464e+04 4.9592617e+04 0.0000000e+00 
1.5142641e+02 4.9562223e+04 0.0000000e+00 
1.1066881e+04 4.9536016e+04 0.0000000e+00 
2.6745674e+04 4.9465789e+04 0.0000000e+00 
3.5094469e+04 4.9418004e+04 0.0000000e+00 
3.1182176e+04 4.9441180e+04 0.0000000e+00 
1.7236611e+04 4.9511859e+04 0.0000000e+00 
2.6461953e+03 4.9559012e+04 0.0000000e+00 
5.2682862e+05 -7.2402441e+03 0.0000000e+00 
4.1817597e+05 -4.6951821e+03 0.0000000e+00 
3.3664359e+05 -2.8517131e+03 0.0000000e+00 
2.8226822e+05 -1.5100906e+03 0.0000000e+00 
2.5507441e+05 -4.6985980e+02 0.0000000e+00 
2.5507441e+05 4.6985980e+02 0.0000000e+00 
2.8226822e+05 1.5100906e+03 0.0000000e+00 
3.3664359e+05 2.8517131e+03 0.0000000e+00 
4.1817597e+05 4.6951821e+03 0.0000000e+00 
5.2682862e+05 7.2402441e+03 0.0000000e+00 
MOMENT 3 60  float
0.0000000e+00 0.0000000e+00 2.7866086e+04 
0.0000000e+00 0.0000000e+00 1.7954027e+04 
0.0000000e+00 0.0000000e+00 8.0414717e+03 
0.0000000e+00 0.0000000e+00 -1.8715175e+03 
0.0000000e+00 0.0000000e+00 -1.1784395e+04 
0.0000000e+00 0.0000000e+00 -2.1696725e+04 
0.0000000e+00 0.0000000e+00 -3.1608785e+04 
0.0000000e+00 0.0000000e+00 -4.1522160e+04 
0.0000000e+00 0.0000000e+00 -5.1440340e+04 
0.0000000e+00 0.0000000e+00 -6.1369328e+04 
0.0000000e+00 0.0000000e+00 -7.9631805e+04 
0.0000000e+00 0.0000000e+00 -3.9172062e+04 
0.0000000e+00 0.0000000e+00 1.3344329e+03 
0.0000000e+00 0.0000000e+00 4.1839125e+04 
0.0000000e+00 0.0000000e+00 8.2294805e+04 
0.0000000e+00 0.0000000e+00 1.2269633e+05 
0.0000000e+00 0.0000000e+00 1.6312108e+05 
0.0000000e+00 0.0000000e+00 2.0376964e+05 
0.0000000e+00 0.0000000e+00 2.4500845e+05 
0.0000000e+00 0.0000000e+00 2.8741784e+05 
0.0000000e+00 0.0000000e+00 3.1100078e+05 
0.0000000e+00 0.0000000e+00 3.1555259e+05 
0.0000000e+00 0.0000000e+00 3.2138275e+05 
0.0000000e+00 0.0000000e+00 3.2852984e+05 
0.0000000e+00 0.0000000e+00 3.1354250e+05 
0.0000000e+00 0.0000000e+00 3.1354250e+05 
0.0000000e+00 0.0000000e+00 3.2852984e+05 
0.0000000e+00 0.0000000e+00 3.2138275e+05 
0.0000000e+00 0.0000000e+00 3.1555259e+05 
0.0000000e+00 0.0000000e+00 3.1100078e+05 
0.0000000e+00 0.0000000e+00 2.8741784e+05 
0.0000000e+00 0.0000000e+00 2.4500845e+05 
0.0000000e+00 0.0000000e+00 2.0376964e+05 
0.0000000e+00 0.0000000e+00 1.6312108e+05 
0.0000000e+00 0.0000000e+00 1.2269633e+05 
0.0000000e+00 0.0000000e+00 8.2294805e+04 
0.0000000e+00 0.0000000e+00 4.1839125e+04 
0.0000000e+00 0.0000000e+00 1.3344329e+03 
0.0000000e+00 0.0000000e+00 -3.9172062e+04 
0.0000000e+00 0.0000000e+00 -7.9631805e+04 
0.0000000e+00 0.0000000e+00 -6.1369328e+04 
0.0000000e+00 0.0000000e+00 -5.1440340e+04 
0.0000000e+00 0.0000000e+00 -4.1522160e+04 
0.0000000e+00 0.0000000e+00 -3.1608785e+04 
0.0000000e+00 0.0000000e+00 -2.1696725e+04 
0.0000000e+00 0.0000000e+00 -1.1784395e+04 
0.0000000e+00 0.0000000e+00 -1.8715175e+03 
0.0000000e+00 0.0000000e+00 8.0414717e+03 
0.0000000e+00 0.0000000e+00 1.7954027e+04 
0.0000000e+00 0.0000000e+00 2.7866086e+04 
0.0000000e+00 0.0000000e+00 3.3509941e+04 
0.0000000e+00 0.0000000e+00 3.3503797e+04 
0.0000000e+00 0.0000000e+00 3.3499188e+04 
0.0000000e+00 0.0000000e+00 3.3496113e+04 
0.0000000e+00 0.0000000e+00 3.3494578e+04 
0.0000000e+00 0.0000000e+00 3.3494578e+04 
0.0000000e+00 0.0000000e+00 3.3496113e+04 
0.0000000e+00 0.0000000e+00 3.3499188e+04 
0.0000000e+00 0.0000000e+00 3.3503797e+04 
0.0000000e+00 0.0000000e+00 3.3509941e+04 
