# vtk DataFile Version 4.0
vtk output
ASCII
DATASET UNSTRUCTURED_GRID
POINTS 86 float
0.0000000e+00 0.0000000e+00 0.0000000e+00 
0.0000000e+00 0.0000000e+00 6.0000002e-01 
0.0000000e+00 0.0000000e+00 1.2000000e+00 
0.0000000e+00 0.0000000e+00 1.8000000e+00 
0.0000000e+00 0.0000000e+00 2.4000001e+00 
0.0000000e+00 0.0000000e+00 3.0000000e+00 
0.0000000e+00 0.0000000e+00 3.5999999e+00 
0.0000000e+00 0.0000000e+00 4.1999998e+00 
0.0000000e+00 0.0000000e+00 4.8000002e+00 
0.0000000e+00 0.0000000e+00 5.4000001e+00 
0.0000000e+00 0.0000000e+00 6.0000000e+00 
0.0000000e+00 0.0000000e+00 6.5999999e+00 
0.0000000e+00 0.0000000e+00 7.1999998e+00 
0.0000000e+00 0.0000000e+00 7.8000002e+00 
0.0000000e+00 0.0000000e+00 8.3999996e+00 
0.0000000e+00 0.0000000e+00 9.0000000e+00 
0.0000000e+00 0.0000000e+00 9.6000004e+00 
0.0000000e+00 0.0000000e+00 1.0200000e+01 
0.0000000e+00 0.0000000e+00 1.0800000e+01 
0.0000000e+00 0.0000000e+00 1.1400000e+01 
0.0000000e+00 0.0000000e+00 1.2000000e+01 
0.0000000e+00 0.0000000e+00 1.2600000e+01 
0.0000000e+00 0.0000000e+00 1.3200000e+01 
0.0000000e+00 0.0000000e+00 1.3800000e+01 
0.0000000e+00 0.0000000e+00 1.4400000e+01 
0.0000000e+00 0.0000000e+00 1.5000000e+01 
0.0000000e+00 0.0000000e+00 1.5600000e+01 
0.0000000e+00 0.0000000e+00 1.6200001e+01 
0.0000000e+00 0.0000000e+00 1.6799999e+01 
0.0000000e+00 0.0000000e+00 1.7400000e+01 
0.0000000e+00 0.0000000e+00 1.8000000e+01 
6.0000000e+00 0.0000000e+00 0.0000000e+00 
6.0000000e+00 0.0000000e+00 6.0000002e-01 
6.0000000e+00 0.0000000e+00 1.2000000e+00 
6.0000000e+00 0.0000000e+00 1.8000000e+00 
6.0000000e+00 0.0000000e+00 2.4000001e+00 
6.0000000e+00 0.0000000e+00 3.0000000e+00 
6.0000000e+00 0.0000000e+00 3.5999999e+00 
6.0000000e+00 0.0000000e+00 4.1999998e+00 
6.0000000e+00 0.0000000e+00 4.8000002e+00 
6.0000000e+00 0.0000000e+00 5.4000001e+00 
6.0000000e+00 0.0000000e+00 6.0000000e+00 
6.0000000e+00 0.0000000e+00 6.5999999e+00 
6.0000000e+00 0.0000000e+00 7.1999998e+00 
6.0000000e+00 0.0000000e+00 7.8000002e+00 
6.0000000e+00 0.0000000e+00 8.3999996e+00 
6.0000000e+00 0.0000000e+00 9.0000000e+00 
6.0000000e+00 0.0000000e+00 9.6000004e+00 
6.0000000e+00 0.0000000e+00 1.0200000e+01 
6.0000000e+00 0.0000000e+00 1.0800000e+01 
6.0000000e+00 0.0000000e+00 1.1400000e+01 
6.0000000e+00 0.0000000e+00 1.2000000e+01 
6.0000000e+00 0.0000000e+00 1.2600000e+01 
6.0000000e+00 0.0000000e+00 1.3200000e+01 
6.0000000e+00 0.0000000e+00 1.3800000e+01 
6.0000000e+00 0.0000000e+00 1.4400000e+01 
6.0000000e+00 0.0000000e+00 1.5000000e+01 
6.0000000e+00 0.0000000e+00 1.5600000e+01 
6.0000000e+00 0.0000000e+00 1.6200001e+01 
6.0000000e+00 0.0000000e+00 1.6799999e+01 
6.0000000e+00 0.0000000e+00 1.7400000e+01 
6.0000000e+00 0.0000000e+00 1.8000000e+01 
1.2000000e+00 0.0000000e+00 3.0000000e+00 
2.4000001e+00 0.0000000e+00 3.0000000e+00 
3.5999999e+00 0.0000000e+00 3.0000000e+00 
4.8000002e+00 0.0000000e+00 3.0000000e+00 
1.2000000e+00 0.0000000e+00 6.0000000e+00 
2.4000001e+00 0.0000000e+00 6.0000000e+00 
3.5999999e+00 0.0000000e+00 6.0000000e+00 
4.8000002e+00 0.0000000e+00 6.0000000e+00 
1.2000000e+00 0.0000000e+00 9.0000000e+00 
2.4000001e+00 0.0000000e+00 9.0000000e+00 
3.5999999e+00 0.0000000e+00 9.0000000e+00 
4.8000002e+00 0.0000000e+00 9.0000000e+00 
1.2000000e+00 0.0000000e+00 1.2000000e+01 
2.4000001e+00 0.0000000e+00 1.2000000e+01 
3.5999999e+00 0.0000000e+00 1.2000000e+01 
4.8000002e+00 0.0000000e+00 1.2000000e+01 
1.2000000e+00 0.0000000e+00 1.5000000e+01 
2.4000001e+00 0.0000000e+00 1.5000000e+01 
3.5999999e+00 0.0000000e+00 1.5000000e+01 
4.8000002e+00 0.0000000e+00 1.5000000e+01 
1.2000000e+00 0.0000000e+00 1.8000000e+01 
2.4000001e+00 0.0000000e+00 1.8000000e+01 
3.5999999e+00 0.0000000e+00 1.8000000e+01 
4.8000002e+00 0.0000000e+00 1.8000000e+01 

CELLS 90 270
2 0 1
2 1 2
2 2 3
2 3 4
2 4 5
2 5 6
2 6 7
2 7 8
2 8 9
2 9 10
2 10 11
2 11 12
2 12 13
2 13 14
2 14 15
2 15 16
2 16 17
2 17 18
2 18 19
2 19 20
2 20 21
2 21 22
2 22 23
2 23 24
2 24 25
2 25 26
2 26 27
2 27 28
2 28 29
2 29 30
2 31 32
2 32 33
2 33 34
2 34 35
2 35 36
2 36 37
2 37 38
2 38 39
2 39 40
2 40 41
2 41 42
2 42 43
2 43 44
2 44 45
2 45 46
2 46 47
2 47 48
2 48 49
2 49 50
2 50 51
2 51 52
2 52 53
2 53 54
2 54 55
2 55 56
2 56 57
2 57 58
2 58 59
2 59 60
2 60 61
2 5 62
2 62 63
2 63 64
2 64 65
2 65 36
2 10 66
2 66 67
2 67 68
2 68 69
2 69 41
2 15 70
2 70 71
2 71 72
2 72 73
2 73 46
2 20 74
2 74 75
2 75 76
2 76 77
2 77 51
2 25 78
2 78 79
2 79 80
2 80 81
2 81 56
2 30 82
2 82 83
2 83 84
2 84 85
2 85 61

CELL_TYPES 90
3
3
3
3
3
3
3
3
3
3
3
3
3
3
3
3
3
3
3
3
3
3
3
3
3
3
3
3
3
3
3
3
3
3
3
3
3
3
3
3
3
3
3
3
3
3
3
3
3
3
3
3
3
3
3
3
3
3
3
3
3
3
3
3
3
3
3
3
3
3
3
3
3
3
3
3
3
3
3
3
3
3
3
3
3
3
3
3
3
3
POINT_DATA 86
FIELD FieldData 3
ADJOINT_DISPLACEMENT 3 86  float
0.0000000e+00 0.0000000e+00 0.0000000e+00 
-5.4024559e-02 0.0000000e+00 -2.6673510e-16 
-1.0692873e-01 0.0000000e+00 -5.3347019e-16 
-1.5759213e-01 0.0000000e+00 -8.0020531e-16 
-2.0489436e-01 0.0000000e+00 -1.0669404e-15 
-2.4771506e-01 0.0000000e+00 -1.3336755e-15 
-3.0017081e-01 0.0000000e+00 1.6515063e-06 
-3.8160765e-01 0.0000000e+00 3.3030126e-06 
-4.9874914e-01 0.0000000e+00 4.9545188e-06 
-6.5831894e-01 0.0000000e+00 6.6060252e-06 
-8.6704063e-01 0.0000000e+00 8.2575316e-06 
-1.0748515e+00 0.0000000e+00 6.5151180e-06 
-1.2317816e+00 0.0000000e+00 4.7727049e-06 
-1.3446935e+00 0.0000000e+00 3.0302913e-06 
-1.4204500e+00 0.0000000e+00 1.2878779e-06 
-1.4659133e+00 0.0000000e+00 -4.5453555e-07 
-1.4980679e+00 0.0000000e+00 -8.1816700e-07 
-1.5282511e+00 0.0000000e+00 -1.1817984e-06 
-1.5548555e+00 0.0000000e+00 -1.5454299e-06 
-1.5762740e+00 0.0000000e+00 -1.9090614e-06 
-1.5908995e+00 0.0000000e+00 -2.2726929e-06 
-1.6002510e+00 0.0000000e+00 -2.3484488e-06 
-1.6071680e+00 0.0000000e+00 -2.4242049e-06 
-1.6120235e+00 0.0000000e+00 -2.4999608e-06 
-1.6151903e+00 0.0000000e+00 -2.5757170e-06 
-1.6170413e+00 0.0000000e+00 -2.6514729e-06 
-1.6183709e+00 0.0000000e+00 -2.6666239e-06 
-1.6196761e+00 0.0000000e+00 -2.6817752e-06 
-1.6208849e+00 0.0000000e+00 -2.6969262e-06 
-1.6219254e+00 0.0000000e+00 -2.7120773e-06 
-1.6227250e+00 0.0000000e+00 -2.7272283e-06 
0.0000000e+00 0.0000000e+00 0.0000000e+00 
-4.5065820e-02 0.0000000e+00 2.8121777e-16 
-9.1252029e-02 0.0000000e+00 5.6243591e-16 
-1.3967901e-01 0.0000000e+00 8.4364984e-16 
-1.9146715e-01 0.0000000e+00 1.1248638e-15 
-2.4773684e-01 0.0000000e+00 1.4060788e-15 
-3.2409856e-01 0.0000000e+00 -1.6515063e-06 
-4.3093345e-01 0.0000000e+00 -3.3030126e-06 
-5.6151789e-01 0.0000000e+00 -4.9545188e-06 
-7.0912832e-01 0.0000000e+00 -6.6060252e-06 
-8.6704099e-01 0.0000000e+00 -8.2575316e-06 
-1.0242282e+00 0.0000000e+00 -6.5151180e-06 
-1.1695693e+00 0.0000000e+00 -4.7727049e-06 
-1.2962016e+00 0.0000000e+00 -3.0302913e-06 
-1.3972627e+00 0.0000000e+00 -1.2878779e-06 
-1.4658898e+00 0.0000000e+00 4.5453555e-07 
-1.5099170e+00 0.0000000e+00 8.1816700e-07 
-1.5428249e+00 0.0000000e+00 1.1817984e-06 
-1.5662206e+00 0.0000000e+00 1.5454299e-06 
-1.5817116e+00 0.0000000e+00 1.9090614e-06 
-1.5909050e+00 0.0000000e+00 2.2726929e-06 
-1.5974634e+00 0.0000000e+00 2.3484488e-06 
-1.6037289e+00 0.0000000e+00 2.4242049e-06 
-1.6093289e+00 0.0000000e+00 2.4999608e-06 
-1.6138903e+00 0.0000000e+00 2.5757170e-06 
-1.6170402e+00 0.0000000e+00 2.6514729e-06 
-1.6190753e+00 0.0000000e+00 2.6666239e-06 
-1.6205893e+00 0.0000000e+00 2.6817752e-06 
-1.6216542e+00 0.0000000e+00 2.6969262e-06 
-1.6223421e+00 0.0000000e+00 2.7120773e-06 
-1.6227252e+00 0.0000000e+00 2.7272283e-06 
-2.4771941e-01 0.0000000e+00 3.2621402e-02 
-2.4772377e-01 0.0000000e+00 1.3687242e-03 
-2.4772812e-01 0.0000000e+00 -4.6194658e-02 
-2.4773248e-01 0.0000000e+00 -6.2505357e-02 
-8.6704069e-01 0.0000000e+00 -5.1796699e-01 
-8.6704075e-01 0.0000000e+00 -6.7921138e-01 
-8.6704087e-01 0.0000000e+00 -5.8146977e-01 
-8.6704093e-01 0.0000000e+00 -3.2248712e-01 
-1.4659086e+00 0.0000000e+00 2.5694080e-02 
-1.4659039e+00 0.0000000e+00 -1.1674826e-03 
-1.4658992e+00 0.0000000e+00 -4.0876221e-02 
-1.4658945e+00 0.0000000e+00 -5.3723216e-02 
-1.5909005e+00 0.0000000e+00 1.1579595e-02 
-1.5909017e+00 0.0000000e+00 9.0801707e-03 
-1.5909028e+00 0.0000000e+00 7.9026632e-04 
-1.5909039e+00 0.0000000e+00 -4.9993037e-03 
-1.6170411e+00 0.0000000e+00 9.4204373e-04 
-1.6170409e+00 0.0000000e+00 -3.3049972e-04 
-1.6170406e+00 0.0000000e+00 -2.0748605e-03 
-1.6170404e+00 0.0000000e+00 -2.5456171e-03 
-1.6227250e+00 0.0000000e+00 7.5515424e-04 
-1.6227251e+00 0.0000000e+00 6.9828867e-04 
-1.6227251e+00 0.0000000e+00 2.6302788e-04 
-1.6227251e+00 0.0000000e+00 -1.1427650e-04 
ADJOINT_ROTATION 3 86  float
0.0000000e+00 -9.0352148e-02 0.0000000e+00 
0.0000000e+00 -8.9418493e-02 0.0000000e+00 
0.0000000e+00 -8.6617522e-02 0.0000000e+00 
0.0000000e+00 -8.1949249e-02 0.0000000e+00 
0.0000000e+00 -7.5413659e-02 0.0000000e+00 
0.0000000e+00 -6.7010753e-02 0.0000000e+00 
0.0000000e+00 -1.0970949e-01 0.0000000e+00 
0.0000000e+00 -1.6361426e-01 0.0000000e+00 
0.0000000e+00 -2.2872506e-01 0.0000000e+00 
0.0000000e+00 -3.0504188e-01 0.0000000e+00 
0.0000000e+00 -3.9256474e-01 0.0000000e+00 
0.0000000e+00 -3.0204460e-01 0.0000000e+00 
0.0000000e+00 -2.2296210e-01 0.0000000e+00 
0.0000000e+00 -1.5531729e-01 0.0000000e+00 
0.0000000e+00 -9.9110179e-02 0.0000000e+00 
0.0000000e+00 -5.4340743e-02 0.0000000e+00 
0.0000000e+00 -5.2394513e-02 0.0000000e+00 
0.0000000e+00 -4.7769502e-02 0.0000000e+00 
0.0000000e+00 -4.0465705e-02 0.0000000e+00 
0.0000000e+00 -3.0483127e-02 0.0000000e+00 
0.0000000e+00 -1.7821765e-02 0.0000000e+00 
0.0000000e+00 -1.3453498e-02 0.0000000e+00 
0.0000000e+00 -9.7067803e-03 0.0000000e+00 
0.0000000e+00 -6.5816147e-03 0.0000000e+00 
0.0000000e+00 -4.0779994e-03 0.0000000e+00 
0.0000000e+00 -2.1959348e-03 0.0000000e+00 
0.0000000e+00 -2.2156427e-03 0.0000000e+00 
0.0000000e+00 -2.1151288e-03 0.0000000e+00 
0.0000000e+00 -1.8943928e-03 0.0000000e+00 
0.0000000e+00 -1.5534346e-03 0.0000000e+00 
0.0000000e+00 -1.0922545e-03 0.0000000e+00 
0.0000000e+00 -7.4798480e-02 0.0000000e+00 
0.0000000e+00 -7.5732142e-02 0.0000000e+00 
0.0000000e+00 -7.8533106e-02 0.0000000e+00 
0.0000000e+00 -8.3201386e-02 0.0000000e+00 
0.0000000e+00 -8.9736976e-02 0.0000000e+00 
0.0000000e+00 -9.8139875e-02 0.0000000e+00 
0.0000000e+00 -1.5453152e-01 0.0000000e+00 
0.0000000e+00 -1.9971713e-01 0.0000000e+00 
0.0000000e+00 -2.3369670e-01 0.0000000e+00 
0.0000000e+00 -2.5647026e-01 0.0000000e+00 
0.0000000e+00 -2.6803777e-01 0.0000000e+00 
0.0000000e+00 -2.5401312e-01 0.0000000e+00 
0.0000000e+00 -2.2855081e-01 0.0000000e+00 
0.0000000e+00 -1.9165081e-01 0.0000000e+00 
0.0000000e+00 -1.4331312e-01 0.0000000e+00 
0.0000000e+00 -8.3537757e-02 0.0000000e+00 
0.0000000e+00 -6.3666098e-02 0.0000000e+00 
0.0000000e+00 -4.6473224e-02 0.0000000e+00 
0.0000000e+00 -3.1959131e-02 0.0000000e+00 
0.0000000e+00 -2.0123821e-02 0.0000000e+00 
0.0000000e+00 -1.0967296e-02 0.0000000e+00 
0.0000000e+00 -1.0790203e-02 0.0000000e+00 
0.0000000e+00 -9.9915592e-03 0.0000000e+00 
0.0000000e+00 -8.5713649e-03 0.0000000e+00 
0.0000000e+00 -6.5296195e-03 0.0000000e+00 
0.0000000e+00 -3.8663237e-03 0.0000000e+00 
0.0000000e+00 -2.9375495e-03 0.0000000e+00 
0.0000000e+00 -2.1289976e-03 0.0000000e+00 
0.0000000e+00 -1.4406675e-03 0.0000000e+00 
0.0000000e+00 -8.7255955e-04 0.0000000e+00 
0.0000000e+00 -4.2467364e-04 0.0000000e+00 
0.0000000e+00 6.0357233e-03 0.0000000e+00 
0.0000000e+00 3.9446052e-02 0.0000000e+00 
0.0000000e+00 3.3220228e-02 0.0000000e+00 
0.0000000e+00 -1.2641748e-02 0.0000000e+00 
0.0000000e+00 2.6943249e-01 0.0000000e+00 
0.0000000e+00 1.2883820e-02 0.0000000e+00 
0.0000000e+00 -1.6221078e-01 0.0000000e+00 
0.0000000e+00 -2.5585130e-01 0.0000000e+00 
0.0000000e+00 6.0013896e-03 0.0000000e+00 
0.0000000e+00 3.3252753e-02 0.0000000e+00 
0.0000000e+00 2.7413350e-02 0.0000000e+00 
0.0000000e+00 -1.1516821e-02 0.0000000e+00 
0.0000000e+00 -2.6328494e-03 0.0000000e+00 
0.0000000e+00 5.6470553e-03 0.0000000e+00 
0.0000000e+00 7.0179496e-03 0.0000000e+00 
0.0000000e+00 1.4798325e-03 0.0000000e+00 
0.0000000e+00 3.7902305e-04 0.0000000e+00 
0.0000000e+00 1.4994630e-03 0.0000000e+00 
0.0000000e+00 1.1653852e-03 0.0000000e+00 
0.0000000e+00 -6.2321033e-04 0.0000000e+00 
0.0000000e+00 -2.3148557e-04 0.0000000e+00 
0.0000000e+00 2.6565703e-04 0.0000000e+00 
0.0000000e+00 3.9917324e-04 0.0000000e+00 
0.0000000e+00 1.6906300e-04 0.0000000e+00 
SHAPE_SENSITIVITY 3 86  float
0.0000000e+00 0.0000000e+00 0.0000000e+00 
0.0000000e+00 0.0000000e+00 0.0000000e+00 
0.0000000e+00 0.0000000e+00 0.0000000e+00 
0.0000000e+00 0.0000000e+00 0.0000000e+00 
0.0000000e+00 0.0000000e+00 0.0000000e+00 
0.0000000e+00 0.0000000e+00 0.0000000e+00 
0.0000000e+00 0.0000000e+00 0.0000000e+00 
0.0000000e+00 0.0000000e+00 0.0000000e+00 
0.0000000e+00 0.0000000e+00 0.0000000e+00 
0.0000000e+00 0.0000000e+00 0.0000000e+00 
0.0000000e+00 0.0000000e+00 0.0000000e+00 
0.0000000e+00 0.0000000e+00 0.0000000e+00 
0.0000000e+00 0.0000000e+00 0.0000000e+00 
0.0000000e+00 0.0000000e+00 0.0000000e+00 
0.0000000e+00 0.0000000e+00 0.0000000e+00 
0.0000000e+00 0.0000000e+00 0.0000000e+00 
0.0000000e+00 0.0000000e+00 0.0000000e+00 
0.0000000e+00 0.0000000e+00 0.0000000e+00 
0.0000000e+00 0.0000000e+00 0.0000000e+00 
0.0000000e+00 0.0000000e+00 0.0000000e+00 
0.0000000e+00 0.0000000e+00 0.0000000e+00 
0.0000000e+00 0.0000000e+00 0.0000000e+00 
0.0000000e+00 0.0000000e+00 0.0000000e+00 
0.0000000e+00 0.0000000e+00 0.0000000e+00 
0.0000000e+00 0.0000000e+00 0.0000000e+00 
0.0000000e+00 0.0000000e+00 0.0000000e+00 
0.0000000e+00 0.0000000e+00 0.0000000e+00 
0.0000000e+00 0.0000000e+00 0.0000000e+00 
0.0000000e+00 0.0000000e+00 0.0000000e+00 
0.0000000e+00 0.0000000e+00 0.0000000e+00 
0.0000000e+00 0.0000000e+00 0.0000000e+00 
0.0000000e+00 0.0000000e+00 0.0000000e+00 
0.0000000e+00 0.0000000e+00 0.0000000e+00 
0.0000000e+00 0.0000000e+00 0.0000000e+00 
0.0000000e+00 0.0000000e+00 0.0000000e+00 
0.0000000e+00 0.0000000e+00 0.0000000e+00 
0.0000000e+00 0.0000000e+00 0.0000000e+00 
0.0000000e+00 0.0000000e+00 0.0000000e+00 
0.0000000e+00 0.0000000e+00 0.0000000e+00 
0.0000000e+00 0.0000000e+00 0.0000000e+00 
0.0000000e+00 0.0000000e+00 0.0000000e+00 
0.0000000e+00 0.0000000e+00 0.0000000e+00 
0.0000000e+00 0.0000000e+00 0.0000000e+00 
0.0000000e+00 0.0000000e+00 0.0000000e+00 
0.0000000e+00 0.0000000e+00 0.0000000e+00 
0.0000000e+00 0.0000000e+00 0.0000000e+00 
0.0000000e+00 0.0000000e+00 0.0000000e+00 
0.0000000e+00 0.0000000e+00 0.0000000e+00 
0.0000000e+00 0.0000000e+00 0.0000000e+00 
0.0000000e+00 0.0000000e+00 0.0000000e+00 
0.0000000e+00 0.0000000e+00 0.0000000e+00 
0.0000000e+00 0.0000000e+00 0.0000000e+00 
0.0000000e+00 0.0000000e+00 0.0000000e+00 
0.0000000e+00 0.0000000e+00 0.0000000e+00 
0.0000000e+00 0.0000000e+00 0.0000000e+00 
0.0000000e+00 0.0000000e+00 0.0000000e+00 
0.0000000e+00 0.0000000e+00 0.0000000e+00 
0.0000000e+00 0.0000000e+00 0.0000000e+00 
0.0000000e+00 0.0000000e+00 0.0000000e+00 
0.0000000e+00 0.0000000e+00 0.0000000e+00 
0.0000000e+00 0.0000000e+00 0.0000000e+00 
0.0000000e+00 0.0000000e+00 0.0000000e+00 
0.0000000e+00 0.0000000e+00 0.0000000e+00 
0.0000000e+00 0.0000000e+00 0.0000000e+00 
0.0000000e+00 0.0000000e+00 0.0000000e+00 
0.0000000e+00 0.0000000e+00 0.0000000e+00 
0.0000000e+00 0.0000000e+00 0.0000000e+00 
0.0000000e+00 0.0000000e+00 0.0000000e+00 
0.0000000e+00 0.0000000e+00 0.0000000e+00 
0.0000000e+00 0.0000000e+00 0.0000000e+00 
0.0000000e+00 0.0000000e+00 0.0000000e+00 
0.0000000e+00 0.0000000e+00 0.0000000e+00 
0.0000000e+00 0.0000000e+00 0.0000000e+00 
0.0000000e+00 0.0000000e+00 0.0000000e+00 
0.0000000e+00 0.0000000e+00 0.0000000e+00 
0.0000000e+00 0.0000000e+00 0.0000000e+00 
0.0000000e+00 0.0000000e+00 0.0000000e+00 
0.0000000e+00 0.0000000e+00 0.0000000e+00 
0.0000000e+00 0.0000000e+00 0.0000000e+00 
0.0000000e+00 0.0000000e+00 0.0000000e+00 
0.0000000e+00 0.0000000e+00 0.0000000e+00 
0.0000000e+00 0.0000000e+00 0.0000000e+00 
0.0000000e+00 0.0000000e+00 0.0000000e+00 
0.0000000e+00 0.0000000e+00 0.0000000e+00 
0.0000000e+00 0.0000000e+00 0.0000000e+00 
0.0000000e+00 0.0000000e+00 0.0000000e+00 
CELL_DATA 90
FIELD FieldData 1
I22_SENSITIVITY 1 90  float
7.7126216e+03
5.3988223e+04
1.4653984e+05
2.8536722e+05
4.7047031e+05
2.7839303e+05
-7.9299695e+04
-6.1690669e+05
-1.3344289e+06
-2.2318612e+06
-2.3303300e+06
-9.8622731e+05
5.3788629e+04
7.8971875e+05
1.2215650e+06
-1.2217306e+04
-1.0229478e+03
4.4927184e+04
1.2563227e+05
2.4109328e+05
-4.1566504e+04
-1.7784971e+04
5.7230415e+01
1.1959376e+04
1.7921820e+04
-1.8168461e+01
6.0031390e+02
1.9739496e+03
4.1027397e+03
6.9867163e+03
-8.4075654e+03
-5.8852680e+04
-1.5974295e+05
-3.1107828e+05
-5.1285844e+05
5.6591919e+05
1.1172953e+05
-1.7226331e+05
-2.8605553e+05
-2.2965197e+05
-2.7373544e+05
-1.8547780e+05
1.9144688e+05
8.5703625e+05
1.8112928e+06
-2.0237364e+05
-6.7086398e+04
3.4484988e+04
1.0234093e+05
1.3648141e+05
-1.4443833e+03
-9.2843781e+02
1.0843331e+04
3.3870648e+04
6.8153969e+04
-6.9259336e+03
-4.0629075e+03
-1.7855822e+03
-9.4015221e+01
1.0117993e+03
4.4980600e+06
1.2018265e+06
8.7491469e+04
1.4069249e+06
5.4698515e+06
-1.6109523e+07
-4.8294570e+06
8.1643250e+05
2.0784114e+06
3.8535272e+05
2.2243385e+06
5.7292388e+05
2.5010551e+04
6.8314350e+05
2.8298745e+06
4.3417078e+05
1.0742245e+05
-1.2023386e+02
8.2408555e+04
3.3378100e+05
3.1377607e+04
1.6186959e+04
-3.0079558e+03
4.1530127e+03
8.2418875e+04
1.0122013e+04
1.0471052e+03
-7.3818652e+02
2.8356719e+03
4.4619849e+03
