# vtk DataFile Version 4.0
vtk output
ASCII
DATASET UNSTRUCTURED_GRID
POINTS 30 float
0.0000000e+00 0.0000000e+00 0.0000000e+00 
0.0000000e+00 0.0000000e+00 8.0000001e-01 
0.0000000e+00 0.0000000e+00 1.6000000e+00 
0.0000000e+00 0.0000000e+00 2.4000001e+00 
0.0000000e+00 0.0000000e+00 3.2000000e+00 
0.0000000e+00 0.0000000e+00 4.0000000e+00 
0.0000000e+00 0.0000000e+00 4.8000002e+00 
0.0000000e+00 0.0000000e+00 5.5999999e+00 
0.0000000e+00 0.0000000e+00 6.4000001e+00 
0.0000000e+00 0.0000000e+00 7.1999998e+00 
0.0000000e+00 0.0000000e+00 8.0000000e+00 
1.0000000e+01 0.0000000e+00 0.0000000e+00 
1.0000000e+01 0.0000000e+00 8.0000001e-01 
1.0000000e+01 0.0000000e+00 1.6000000e+00 
1.0000000e+01 0.0000000e+00 2.4000001e+00 
1.0000000e+01 0.0000000e+00 3.2000000e+00 
1.0000000e+01 0.0000000e+00 4.0000000e+00 
1.0000000e+01 0.0000000e+00 4.8000002e+00 
1.0000000e+01 0.0000000e+00 5.5999999e+00 
1.0000000e+01 0.0000000e+00 6.4000001e+00 
1.0000000e+01 0.0000000e+00 7.1999998e+00 
1.0000000e+01 0.0000000e+00 8.0000000e+00 
2.0000000e+00 0.0000000e+00 4.0000000e+00 
4.0000000e+00 0.0000000e+00 4.0000000e+00 
6.0000000e+00 0.0000000e+00 4.0000000e+00 
8.0000000e+00 0.0000000e+00 4.0000000e+00 
2.0000000e+00 0.0000000e+00 8.0000000e+00 
4.0000000e+00 0.0000000e+00 8.0000000e+00 
6.0000000e+00 0.0000000e+00 8.0000000e+00 
8.0000000e+00 0.0000000e+00 8.0000000e+00 

CELLS 30 90
2 0 1
2 1 2
2 2 3
2 3 4
2 4 5
2 5 6
2 6 7
2 7 8
2 8 9
2 9 10
2 11 12
2 12 13
2 13 14
2 14 15
2 15 16
2 16 17
2 17 18
2 18 19
2 19 20
2 20 21
2 5 22
2 22 23
2 23 24
2 24 25
2 25 16
2 10 26
2 26 27
2 27 28
2 28 29
2 29 21

CELL_TYPES 30
3
3
3
3
3
3
3
3
3
3
3
3
3
3
3
3
3
3
3
3
3
3
3
3
3
3
3
3
3
3
POINT_DATA 30
FIELD FieldData 3
ADJOINT_DISPLACEMENT 3 30  float
0.0000000e+00 0.0000000e+00 0.0000000e+00 
-6.2936932e-02 0.0000000e+00 -1.0255818e-17 
-1.2365861e-01 0.0000000e+00 -2.0511636e-17 
-1.7994981e-01 0.0000000e+00 -3.0767453e-17 
-2.2959527e-01 0.0000000e+00 -4.1023271e-17 
-2.7037975e-01 0.0000000e+00 -5.1279087e-17 
-3.1423110e-01 0.0000000e+00 9.8149700e-05 
-3.8335496e-01 0.0000000e+00 1.9629940e-04 
-4.9095273e-01 0.0000000e+00 2.9444910e-04 
-6.5022576e-01 0.0000000e+00 3.9259880e-04 
-8.7437552e-01 0.0000000e+00 4.9074850e-04 
0.0000000e+00 0.0000000e+00 0.0000000e+00 
-4.6118289e-02 0.0000000e+00 2.4702222e-17 
-9.4451822e-02 0.0000000e+00 4.9531042e-17 
-1.4721584e-01 0.0000000e+00 7.4710007e-17 
-2.0662561e-01 0.0000000e+00 1.0023732e-16 
-2.7489635e-01 0.0000000e+00 1.2362315e-16 
-3.6627346e-01 0.0000000e+00 -9.8149700e-05 
-4.8472458e-01 0.0000000e+00 -1.9629940e-04 
-6.1704826e-01 0.0000000e+00 -2.9444910e-04 
-7.5004321e-01 0.0000000e+00 -3.9259880e-04 
-8.7050796e-01 0.0000000e+00 -4.9074850e-04 
-2.7128306e-01 0.0000000e+00 2.7609061e-02 
-2.7218640e-01 0.0000000e+00 -2.4019539e-02 
-2.7308971e-01 0.0000000e+00 -8.9452669e-02 
-2.7399302e-01 0.0000000e+00 -1.0325720e-01 
-8.7360203e-01 0.0000000e+00 8.8605070e-01 
-8.7282848e-01 0.0000000e+00 1.9416571e-01 
-8.7205499e-01 0.0000000e+00 -1.4059746e-01 
-8.7128145e-01 0.0000000e+00 -1.8367191e-01 
ADJOINT_ROTATION 3 30  float
0.0000000e+00 -7.9132669e-02 0.0000000e+00 
0.0000000e+00 -7.7748142e-02 0.0000000e+00 
0.0000000e+00 -7.3594563e-02 0.0000000e+00 
0.0000000e+00 -6.6671915e-02 0.0000000e+00 
0.0000000e+00 -5.6980222e-02 0.0000000e+00 
0.0000000e+00 -4.4519469e-02 0.0000000e+00 
0.0000000e+00 -6.7859218e-02 0.0000000e+00 
0.0000000e+00 -1.0770072e-01 0.0000000e+00 
0.0000000e+00 -1.6404398e-01 0.0000000e+00 
0.0000000e+00 -2.3688897e-01 0.0000000e+00 
0.0000000e+00 -3.2623571e-01 0.0000000e+00 
0.0000000e+00 -5.7186350e-02 0.0000000e+00 
0.0000000e+00 -5.8570880e-02 0.0000000e+00 
0.0000000e+00 -6.2724464e-02 0.0000000e+00 
0.0000000e+00 -6.9647104e-02 0.0000000e+00 
0.0000000e+00 -7.9338804e-02 0.0000000e+00 
0.0000000e+00 -9.1799557e-02 0.0000000e+00 
0.0000000e+00 -1.3389294e-01 0.0000000e+00 
0.0000000e+00 -1.5948457e-01 0.0000000e+00 
0.0000000e+00 -1.6857445e-01 0.0000000e+00 
0.0000000e+00 -1.6116257e-01 0.0000000e+00 
0.0000000e+00 -1.3724896e-01 0.0000000e+00 
0.0000000e+00 1.1457646e-02 0.0000000e+00 
0.0000000e+00 3.4718193e-02 0.0000000e+00 
0.0000000e+00 2.5262177e-02 0.0000000e+00 
0.0000000e+00 -1.6910408e-02 0.0000000e+00 
0.0000000e+00 -5.5387151e-01 0.0000000e+00 
0.0000000e+00 2.5120929e-01 0.0000000e+00 
0.0000000e+00 8.9006640e-02 0.0000000e+00 
0.0000000e+00 -4.0479440e-02 0.0000000e+00 
SHAPE_SENSITIVITY 3 30  float
0.0000000e+00 0.0000000e+00 0.0000000e+00 
0.0000000e+00 0.0000000e+00 0.0000000e+00 
0.0000000e+00 0.0000000e+00 0.0000000e+00 
0.0000000e+00 0.0000000e+00 0.0000000e+00 
0.0000000e+00 0.0000000e+00 0.0000000e+00 
0.0000000e+00 0.0000000e+00 0.0000000e+00 
0.0000000e+00 0.0000000e+00 0.0000000e+00 
0.0000000e+00 0.0000000e+00 0.0000000e+00 
0.0000000e+00 0.0000000e+00 0.0000000e+00 
0.0000000e+00 0.0000000e+00 0.0000000e+00 
0.0000000e+00 0.0000000e+00 0.0000000e+00 
0.0000000e+00 0.0000000e+00 0.0000000e+00 
0.0000000e+00 0.0000000e+00 0.0000000e+00 
0.0000000e+00 0.0000000e+00 0.0000000e+00 
0.0000000e+00 0.0000000e+00 0.0000000e+00 
0.0000000e+00 0.0000000e+00 0.0000000e+00 
0.0000000e+00 0.0000000e+00 0.0000000e+00 
0.0000000e+00 0.0000000e+00 0.0000000e+00 
0.0000000e+00 0.0000000e+00 0.0000000e+00 
0.0000000e+00 0.0000000e+00 0.0000000e+00 
0.0000000e+00 0.0000000e+00 0.0000000e+00 
0.0000000e+00 0.0000000e+00 0.0000000e+00 
0.0000000e+00 0.0000000e+00 0.0000000e+00 
0.0000000e+00 0.0000000e+00 0.0000000e+00 
0.0000000e+00 0.0000000e+00 0.0000000e+00 
0.0000000e+00 0.0000000e+00 0.0000000e+00 
0.0000000e+00 0.0000000e+00 0.0000000e+00 
0.0000000e+00 0.0000000e+00 0.0000000e+00 
0.0000000e+00 0.0000000e+00 0.0000000e+00 
0.0000000e+00 0.0000000e+00 0.0000000e+00 
CELL_DATA 30
FIELD FieldData 1
I22_SENSITIVITY 1 30  float
6.8734047e+04
4.8113822e+05
1.1690262e+06
1.9954792e+06
3.0289540e+06
2.0933894e+06
6.0291031e+05
-3.4098410e+06
-9.9448610e+06
-1.6813918e+07
-6.1124707e+04
-4.1532962e+05
-1.1036720e+06
-1.8772621e+06
-2.6478235e+06
6.7441306e+05
1.8294573e+05
-2.0207072e+05
6.6145062e+05
3.5274618e+06
1.6055040e+07
2.5964712e+06
6.2950806e+05
6.4307930e+06
1.6321624e+07
-3.8366624e+07
-1.1498333e+07
6.3628625e+06
1.0334348e+07
1.3249657e+07
