# vtk DataFile Version 4.0
vtk output
ASCII
DATASET UNSTRUCTURED_GRID
POINTS 48 float
0.0000000e+00 0.0000000e+00 0.0000000e+00 
0.0000000e+00 0.0000000e+00 5.0000000e-01 
0.0000000e+00 0.0000000e+00 1.0000000e+00 
0.0000000e+00 0.0000000e+00 1.5000000e+00 
0.0000000e+00 0.0000000e+00 2.0000000e+00 
0.0000000e+00 0.0000000e+00 2.5000000e+00 
0.0000000e+00 0.0000000e+00 3.0000000e+00 
0.0000000e+00 0.0000000e+00 3.5000000e+00 
0.0000000e+00 0.0000000e+00 4.0000000e+00 
0.0000000e+00 0.0000000e+00 4.5000000e+00 
0.0000000e+00 0.0000000e+00 5.0000000e+00 
0.0000000e+00 0.0000000e+00 5.5000000e+00 
0.0000000e+00 0.0000000e+00 6.0000000e+00 
0.0000000e+00 0.0000000e+00 6.5000000e+00 
0.0000000e+00 0.0000000e+00 7.0000000e+00 
0.0000000e+00 0.0000000e+00 7.5000000e+00 
0.0000000e+00 0.0000000e+00 8.0000000e+00 
4.0000000e+00 0.0000000e+00 0.0000000e+00 
4.0000000e+00 0.0000000e+00 5.0000000e-01 
4.0000000e+00 0.0000000e+00 1.0000000e+00 
4.0000000e+00 0.0000000e+00 1.5000000e+00 
4.0000000e+00 0.0000000e+00 2.0000000e+00 
4.0000000e+00 0.0000000e+00 2.5000000e+00 
4.0000000e+00 0.0000000e+00 3.0000000e+00 
4.0000000e+00 0.0000000e+00 3.5000000e+00 
4.0000000e+00 0.0000000e+00 4.0000000e+00 
4.0000000e+00 0.0000000e+00 4.5000000e+00 
4.0000000e+00 0.0000000e+00 5.0000000e+00 
4.0000000e+00 0.0000000e+00 5.5000000e+00 
4.0000000e+00 0.0000000e+00 6.0000000e+00 
4.0000000e+00 0.0000000e+00 6.5000000e+00 
4.0000000e+00 0.0000000e+00 7.0000000e+00 
4.0000000e+00 0.0000000e+00 7.5000000e+00 
4.0000000e+00 0.0000000e+00 8.0000000e+00 
5.0000000e-01 0.0000000e+00 4.0000000e+00 
1.0000000e+00 0.0000000e+00 4.0000000e+00 
1.5000000e+00 0.0000000e+00 4.0000000e+00 
2.0000000e+00 0.0000000e+00 4.0000000e+00 
2.5000000e+00 0.0000000e+00 4.0000000e+00 
3.0000000e+00 0.0000000e+00 4.0000000e+00 
3.5000000e+00 0.0000000e+00 4.0000000e+00 
5.0000000e-01 0.0000000e+00 8.0000000e+00 
1.0000000e+00 0.0000000e+00 8.0000000e+00 
1.5000000e+00 0.0000000e+00 8.0000000e+00 
2.0000000e+00 0.0000000e+00 8.0000000e+00 
2.5000000e+00 0.0000000e+00 8.0000000e+00 
3.0000000e+00 0.0000000e+00 8.0000000e+00 
3.5000000e+00 0.0000000e+00 8.0000000e+00 

CELLS 48 144
2 0 1
2 1 2
2 2 3
2 3 4
2 4 5
2 5 6
2 6 7
2 7 8
2 8 9
2 9 10
2 10 11
2 11 12
2 12 13
2 13 14
2 14 15
2 15 16
2 17 18
2 18 19
2 19 20
2 20 21
2 21 22
2 22 23
2 23 24
2 24 25
2 25 26
2 26 27
2 27 28
2 28 29
2 29 30
2 30 31
2 31 32
2 32 33
2 8 34
2 34 35
2 35 36
2 36 37
2 37 38
2 38 39
2 39 40
2 40 25
2 16 41
2 41 42
2 42 43
2 43 44
2 44 45
2 45 46
2 46 47
2 47 33

CELL_TYPES 48
3
3
3
3
3
3
3
3
3
3
3
3
3
3
3
3
3
3
3
3
3
3
3
3
3
3
3
3
3
3
3
3
3
3
3
3
3
3
3
3
3
3
3
3
3
3
3
3
POINT_DATA 48
FIELD FieldData 7
DISPLACEMENT 3 48  float
0.0000000e+00 0.0000000e+00 0.0000000e+00 
-8.5309591e+00 0.0000000e+00 -8.0000000e+01 
-1.6468763e+01 0.0000000e+00 -1.6000000e+02 
-2.3220259e+01 0.0000000e+00 -2.4000000e+02 
-2.8192291e+01 0.0000000e+00 -3.2000000e+02 
-3.0791704e+01 0.0000000e+00 -4.0000000e+02 
-3.0425343e+01 0.0000000e+00 -4.8000000e+02 
-2.6500055e+01 0.0000000e+00 -5.6000000e+02 
-1.8422686e+01 0.0000000e+00 -6.4000000e+02 
-1.0676784e+01 0.0000000e+00 -6.8000000e+02 
-6.9782896e+00 0.0000000e+00 -7.2000000e+02 
-5.5826316e+00 0.0000000e+00 -7.6000000e+02 
-4.7452369e+00 0.0000000e+00 -8.0000000e+02 
-2.7215331e+00 0.0000000e+00 -8.4000000e+02 
2.2330527e+00 0.0000000e+00 -8.8000000e+02 
1.1863092e+01 0.0000000e+00 -9.2000000e+02 
2.7913158e+01 0.0000000e+00 -9.6000000e+02 
0.0000000e+00 0.0000000e+00 0.0000000e+00 
8.5309591e+00 0.0000000e+00 -8.0000000e+01 
1.6468763e+01 0.0000000e+00 -1.6000000e+02 
2.3220259e+01 0.0000000e+00 -2.4000000e+02 
2.8192291e+01 0.0000000e+00 -3.2000000e+02 
3.0791704e+01 0.0000000e+00 -4.0000000e+02 
3.0425343e+01 0.0000000e+00 -4.8000000e+02 
2.6500055e+01 0.0000000e+00 -5.6000000e+02 
1.8422686e+01 0.0000000e+00 -6.4000000e+02 
1.0676784e+01 0.0000000e+00 -6.8000000e+02 
6.9782896e+00 0.0000000e+00 -7.2000000e+02 
5.5826316e+00 0.0000000e+00 -7.6000000e+02 
4.7452369e+00 0.0000000e+00 -8.0000000e+02 
2.7215331e+00 0.0000000e+00 -8.4000000e+02 
-2.2330527e+00 0.0000000e+00 -8.8000000e+02 
-1.1863092e+01 0.0000000e+00 -9.2000000e+02 
-2.7913158e+01 0.0000000e+00 -9.6000000e+02 
-1.3817014e+01 0.0000000e+00 -6.5416138e+02 
-9.2113428e+00 0.0000000e+00 -6.7052667e+02 
-4.6056714e+00 0.0000000e+00 -6.8284589e+02 
5.1361353e-11 0.0000000e+00 -6.8736890e+02 
4.6056714e+00 0.0000000e+00 -6.8284589e+02 
9.2113428e+00 0.0000000e+00 -6.7052667e+02 
1.3817014e+01 0.0000000e+00 -6.5416138e+02 
2.0934870e+01 0.0000000e+00 -9.8246558e+02 
1.3956579e+01 0.0000000e+00 -1.0047624e+03 
6.9782896e+00 0.0000000e+00 -1.0206405e+03 
8.6599387e-11 0.0000000e+00 -1.0263499e+03 
-6.9782896e+00 0.0000000e+00 -1.0206405e+03 
-1.3956579e+01 0.0000000e+00 -1.0047624e+03 
-2.0934870e+01 0.0000000e+00 -9.8246558e+02 
ROTATION 3 48  float
0.0000000e+00 -1.7259636e+01 0.0000000e+00 
0.0000000e+00 -1.6666483e+01 0.0000000e+00 
0.0000000e+00 -1.4887018e+01 0.0000000e+00 
0.0000000e+00 -1.1921245e+01 0.0000000e+00 
0.0000000e+00 -7.7691627e+00 0.0000000e+00 
0.0000000e+00 -2.4307709e+00 0.0000000e+00 
0.0000000e+00 4.0939298e+00 0.0000000e+00 
0.0000000e+00 1.1804940e+01 0.0000000e+00 
0.0000000e+00 2.0702259e+01 0.0000000e+00 
0.0000000e+00 1.0862871e+01 0.0000000e+00 
0.0000000e+00 4.5126276e+00 0.0000000e+00 
0.0000000e+00 1.6515286e+00 0.0000000e+00 
0.0000000e+00 2.2795746e+00 0.0000000e+00 
0.0000000e+00 6.3967657e+00 0.0000000e+00 
0.0000000e+00 1.4003101e+01 0.0000000e+00 
0.0000000e+00 2.5098581e+01 0.0000000e+00 
0.0000000e+00 3.9683208e+01 0.0000000e+00 
0.0000000e+00 1.7259636e+01 0.0000000e+00 
0.0000000e+00 1.6666483e+01 0.0000000e+00 
0.0000000e+00 1.4887018e+01 0.0000000e+00 
0.0000000e+00 1.1921245e+01 0.0000000e+00 
0.0000000e+00 7.7691627e+00 0.0000000e+00 
0.0000000e+00 2.4307709e+00 0.0000000e+00 
0.0000000e+00 -4.0939298e+00 0.0000000e+00 
0.0000000e+00 -1.1804940e+01 0.0000000e+00 
0.0000000e+00 -2.0702259e+01 0.0000000e+00 
0.0000000e+00 -1.0862871e+01 0.0000000e+00 
0.0000000e+00 -4.5126276e+00 0.0000000e+00 
0.0000000e+00 -1.6515286e+00 0.0000000e+00 
0.0000000e+00 -2.2795746e+00 0.0000000e+00 
0.0000000e+00 -6.3967657e+00 0.0000000e+00 
0.0000000e+00 -1.4003101e+01 0.0000000e+00 
0.0000000e+00 -2.5098581e+01 0.0000000e+00 
0.0000000e+00 -3.9683208e+01 0.0000000e+00 
0.0000000e+00 3.3026695e+01 0.0000000e+00 
0.0000000e+00 3.0351130e+01 0.0000000e+00 
0.0000000e+00 1.7675566e+01 0.0000000e+00 
0.0000000e+00 -1.0665323e-11 0.0000000e+00 
0.0000000e+00 -1.7675566e+01 0.0000000e+00 
0.0000000e+00 -3.0351130e+01 0.0000000e+00 
0.0000000e+00 -3.3026695e+01 0.0000000e+00 
0.0000000e+00 4.7262405e+01 0.0000000e+00 
0.0000000e+00 3.9841602e+01 0.0000000e+00 
0.0000000e+00 2.2420801e+01 0.0000000e+00 
0.0000000e+00 3.6379788e-12 0.0000000e+00 
0.0000000e+00 -2.2420801e+01 0.0000000e+00 
0.0000000e+00 -3.9841602e+01 0.0000000e+00 
0.0000000e+00 -4.7262405e+01 0.0000000e+00 
REACTION 3 48  float
4.7452369e+00 -0.0000000e+00 1.6000000e+02 
-0.0000000e+00 -0.0000000e+00 -0.0000000e+00 
-0.0000000e+00 -0.0000000e+00 2.8421709e-14 
-1.7053026e-13 -0.0000000e+00 5.6843419e-14 
1.7053026e-13 -0.0000000e+00 -1.1368684e-13 
-0.0000000e+00 -0.0000000e+00 -0.0000000e+00 
-0.0000000e+00 -0.0000000e+00 -1.1368684e-13 
-2.2737368e-12 -0.0000000e+00 -0.0000000e+00 
1.1723955e-13 -0.0000000e+00 2.9107361e+02 
3.3821834e-12 -0.0000000e+00 -4.0927262e-12 
2.8421709e-14 -0.0000000e+00 -6.8212103e-13 
1.8474111e-13 -0.0000000e+00 -0.0000000e+00 
-1.4210855e-14 -0.0000000e+00 -4.5474735e-13 
1.7053026e-13 -0.0000000e+00 -0.0000000e+00 
-0.0000000e+00 -0.0000000e+00 -9.0949470e-13 
-2.2737368e-13 -0.0000000e+00 -2.2737368e-13 
2.1316282e-14 -0.0000000e+00 4.5761954e+02 
-4.7452369e+00 -0.0000000e+00 1.6000000e+02 
-0.0000000e+00 -0.0000000e+00 -0.0000000e+00 
-3.9790393e-13 -0.0000000e+00 -0.0000000e+00 
-5.6843419e-14 -0.0000000e+00 -1.1368684e-13 
1.2221335e-12 -0.0000000e+00 2.2737368e-13 
1.4210855e-13 -0.0000000e+00 -1.1368684e-13 
-1.1937118e-12 -0.0000000e+00 1.1368684e-13 
-1.7053026e-13 -0.0000000e+00 -2.2737368e-13 
-8.1712415e-14 -0.0000000e+00 2.9107361e+02 
5.2580162e-13 -0.0000000e+00 -4.5474735e-13 
4.2632564e-14 -0.0000000e+00 4.5474735e-13 
9.9475983e-14 -0.0000000e+00 -2.2737368e-13 
1.4210855e-14 -0.0000000e+00 -0.0000000e+00 
-0.0000000e+00 -0.0000000e+00 -0.0000000e+00 
-0.0000000e+00 -0.0000000e+00 -0.0000000e+00 
-0.0000000e+00 -0.0000000e+00 -0.0000000e+00 
7.1054274e-14 -0.0000000e+00 4.5761954e+02 
9.2370556e-14 -0.0000000e+00 6.2393835e+02 
3.1441516e-13 -0.0000000e+00 5.8957050e+02 
1.0658141e-14 -0.0000000e+00 3.8312561e+02 
4.0856207e-14 -0.0000000e+00 2.5283968e+02 
7.1054274e-15 -0.0000000e+00 3.8312561e+02 
1.0658141e-14 -0.0000000e+00 5.8957050e+02 
5.1159077e-13 -0.0000000e+00 6.2393835e+02 
1.2789769e-13 -0.0000000e+00 9.1199744e+02 
8.8817842e-15 -0.0000000e+00 7.8735449e+02 
-7.1054274e-15 -0.0000000e+00 4.9567877e+02 
-1.0480505e-13 -0.0000000e+00 3.2540436e+02 
-3.4816594e-13 -0.0000000e+00 4.9567877e+02 
7.1054274e-15 -0.0000000e+00 7.8735449e+02 
-3.5527137e-15 -0.0000000e+00 9.1199744e+02 
REACTION_MOMENT 3 48  float
-0.0000000e+00 -5.5422333e-13 -0.0000000e+00 
-0.0000000e+00 1.6342483e-13 -0.0000000e+00 
-0.0000000e+00 -7.1054274e-14 -0.0000000e+00 
-0.0000000e+00 4.4408921e-13 -0.0000000e+00 
-0.0000000e+00 -5.1336713e-13 -0.0000000e+00 
-0.0000000e+00 -4.1566750e-13 -0.0000000e+00 
-0.0000000e+00 4.9027449e-13 -0.0000000e+00 
-0.0000000e+00 -8.5265128e-14 -0.0000000e+00 
-0.0000000e+00 -9.6633812e-13 -0.0000000e+00 
-0.0000000e+00 -1.5027979e-12 -0.0000000e+00 
-0.0000000e+00 -6.1817218e-13 -0.0000000e+00 
-0.0000000e+00 -7.1054274e-15 -0.0000000e+00 
-0.0000000e+00 1.7763568e-14 -0.0000000e+00 
-0.0000000e+00 6.3948846e-14 -0.0000000e+00 
-0.0000000e+00 9.9475983e-14 -0.0000000e+00 
-0.0000000e+00 5.6843419e-14 -0.0000000e+00 
-0.0000000e+00 6.4517280e-12 -0.0000000e+00 
-0.0000000e+00 1.4210855e-14 -0.0000000e+00 
-0.0000000e+00 -6.3948846e-14 -0.0000000e+00 
-0.0000000e+00 -1.7763568e-13 -0.0000000e+00 
-0.0000000e+00 -4.2277293e-13 -0.0000000e+00 
-0.0000000e+00 -2.6645353e-14 -0.0000000e+00 
-0.0000000e+00 5.5777605e-13 -0.0000000e+00 
-0.0000000e+00 1.0658141e-13 -0.0000000e+00 
-0.0000000e+00 -4.2632564e-13 -0.0000000e+00 
-0.0000000e+00 -1.9326762e-12 -0.0000000e+00 
-0.0000000e+00 1.9184654e-13 -0.0000000e+00 
-0.0000000e+00 -3.5527137e-15 -0.0000000e+00 
-0.0000000e+00 3.5527137e-15 -0.0000000e+00 
-0.0000000e+00 -1.7763568e-14 -0.0000000e+00 
-0.0000000e+00 -1.4210855e-14 -0.0000000e+00 
-0.0000000e+00 4.2632564e-14 -0.0000000e+00 
-0.0000000e+00 1.1368684e-13 -0.0000000e+00 
-0.0000000e+00 3.6379788e-12 -0.0000000e+00 
-0.0000000e+00 5.8264504e-12 -0.0000000e+00 
-0.0000000e+00 -4.4053650e-13 -0.0000000e+00 
-0.0000000e+00 -2.2737368e-13 -0.0000000e+00 
-0.0000000e+00 -2.1046276e-11 -0.0000000e+00 
-0.0000000e+00 -2.8563818e-12 -0.0000000e+00 
-0.0000000e+00 8.7823082e-12 -0.0000000e+00 
-0.0000000e+00 3.5669245e-12 -0.0000000e+00 
-0.0000000e+00 3.4390268e-12 -0.0000000e+00 
-0.0000000e+00 8.3986151e-12 -0.0000000e+00 
-0.0000000e+00 -2.6432190e-12 -0.0000000e+00 
-0.0000000e+00 9.6633812e-12 -0.0000000e+00 
-0.0000000e+00 -1.0999202e-11 -0.0000000e+00 
-0.0000000e+00 -7.4464879e-12 -0.0000000e+00 
-0.0000000e+00 1.6854074e-11 -0.0000000e+00 
LINE_LOAD 3 48  float
0.0000000e+00 0.0000000e+00 0.0000000e+00 
0.0000000e+00 0.0000000e+00 0.0000000e+00 
0.0000000e+00 0.0000000e+00 0.0000000e+00 
0.0000000e+00 0.0000000e+00 0.0000000e+00 
0.0000000e+00 0.0000000e+00 0.0000000e+00 
0.0000000e+00 0.0000000e+00 0.0000000e+00 
0.0000000e+00 0.0000000e+00 0.0000000e+00 
0.0000000e+00 0.0000000e+00 0.0000000e+00 
0.0000000e+00 0.0000000e+00 -4.0000000e+01 
0.0000000e+00 0.0000000e+00 0.0000000e+00 
0.0000000e+00 0.0000000e+00 0.0000000e+00 
0.0000000e+00 0.0000000e+00 0.0000000e+00 
0.0000000e+00 0.0000000e+00 0.0000000e+00 
0.0000000e+00 0.0000000e+00 0.0000000e+00 
0.0000000e+00 0.0000000e+00 0.0000000e+00 
0.0000000e+00 0.0000000e+00 0.0000000e+00 
0.0000000e+00 0.0000000e+00 -4.0000000e+01 
0.0000000e+00 0.0000000e+00 0.0000000e+00 
0.0000000e+00 0.0000000e+00 0.0000000e+00 
0.0000000e+00 0.0000000e+00 0.0000000e+00 
0.0000000e+00 0.0000000e+00 0.0000000e+00 
0.0000000e+00 0.0000000e+00 0.0000000e+00 
0.0000000e+00 0.0000000e+00 0.0000000e+00 
0.0000000e+00 0.0000000e+00 0.0000000e+00 
0.0000000e+00 0.0000000e+00 0.0000000e+00 
0.0000000e+00 0.0000000e+00 -4.0000000e+01 
0.0000000e+00 0.0000000e+00 0.0000000e+00 
0.0000000e+00 0.0000000e+00 0.0000000e+00 
0.0000000e+00 0.0000000e+00 0.0000000e+00 
0.0000000e+00 0.0000000e+00 0.0000000e+00 
0.0000000e+00 0.0000000e+00 0.0000000e+00 
0.0000000e+00 0.0000000e+00 0.0000000e+00 
0.0000000e+00 0.0000000e+00 0.0000000e+00 
0.0000000e+00 0.0000000e+00 -4.0000000e+01 
0.0000000e+00 0.0000000e+00 -4.0000000e+01 
0.0000000e+00 0.0000000e+00 -4.0000000e+01 
0.0000000e+00 0.0000000e+00 -4.0000000e+01 
0.0000000e+00 0.0000000e+00 -4.0000000e+01 
0.0000000e+00 0.0000000e+00 -4.0000000e+01 
0.0000000e+00 0.0000000e+00 -4.0000000e+01 
0.0000000e+00 0.0000000e+00 -4.0000000e+01 
0.0000000e+00 0.0000000e+00 -4.0000000e+01 
0.0000000e+00 0.0000000e+00 -4.0000000e+01 
0.0000000e+00 0.0000000e+00 -4.0000000e+01 
0.0000000e+00 0.0000000e+00 -4.0000000e+01 
0.0000000e+00 0.0000000e+00 -4.0000000e+01 
0.0000000e+00 0.0000000e+00 -4.0000000e+01 
0.0000000e+00 0.0000000e+00 -4.0000000e+01 
POINT_LOAD 3 48  float
0.0000000e+00 0.0000000e+00 0.0000000e+00 
0.0000000e+00 0.0000000e+00 0.0000000e+00 
0.0000000e+00 0.0000000e+00 0.0000000e+00 
0.0000000e+00 0.0000000e+00 0.0000000e+00 
0.0000000e+00 0.0000000e+00 0.0000000e+00 
0.0000000e+00 0.0000000e+00 0.0000000e+00 
0.0000000e+00 0.0000000e+00 0.0000000e+00 
0.0000000e+00 0.0000000e+00 0.0000000e+00 
0.0000000e+00 0.0000000e+00 0.0000000e+00 
0.0000000e+00 0.0000000e+00 0.0000000e+00 
0.0000000e+00 0.0000000e+00 0.0000000e+00 
0.0000000e+00 0.0000000e+00 0.0000000e+00 
0.0000000e+00 0.0000000e+00 0.0000000e+00 
0.0000000e+00 0.0000000e+00 0.0000000e+00 
0.0000000e+00 0.0000000e+00 0.0000000e+00 
0.0000000e+00 0.0000000e+00 0.0000000e+00 
0.0000000e+00 0.0000000e+00 0.0000000e+00 
0.0000000e+00 0.0000000e+00 0.0000000e+00 
0.0000000e+00 0.0000000e+00 0.0000000e+00 
0.0000000e+00 0.0000000e+00 0.0000000e+00 
0.0000000e+00 0.0000000e+00 0.0000000e+00 
0.0000000e+00 0.0000000e+00 0.0000000e+00 
0.0000000e+00 0.0000000e+00 0.0000000e+00 
0.0000000e+00 0.0000000e+00 0.0000000e+00 
0.0000000e+00 0.0000000e+00 0.0000000e+00 
0.0000000e+00 0.0000000e+00 0.0000000e+00 
0.0000000e+00 0.0000000e+00 0.0000000e+00 
0.0000000e+00 0.0000000e+00 0.0000000e+00 
0.0000000e+00 0.0000000e+00 0.0000000e+00 
0.0000000e+00 0.0000000e+00 0.0000000e+00 
0.0000000e+00 0.0000000e+00 0.0000000e+00 
0.0000000e+00 0.0000000e+00 0.0000000e+00 
0.0000000e+00 0.0000000e+00 0.0000000e+00 
0.0000000e+00 0.0000000e+00 0.0000000e+00 
0.0000000e+00 0.0000000e+00 0.0000000e+00 
0.0000000e+00 0.0000000e+00 0.0000000e+00 
0.0000000e+00 0.0000000e+00 0.0000000e+00 
0.0000000e+00 0.0000000e+00 0.0000000e+00 
0.0000000e+00 0.0000000e+00 0.0000000e+00 
0.0000000e+00 0.0000000e+00 0.0000000e+00 
0.0000000e+00 0.0000000e+00 0.0000000e+00 
0.0000000e+00 0.0000000e+00 0.0000000e+00 
0.0000000e+00 0.0000000e+00 0.0000000e+00 
0.0000000e+00 0.0000000e+00 0.0000000e+00 
0.0000000e+00 0.0000000e+00 0.0000000e+00 
0.0000000e+00 0.0000000e+00 0.0000000e+00 
0.0000000e+00 0.0000000e+00 0.0000000e+00 
0.0000000e+00 0.0000000e+00 0.0000000e+00 
POINT_MOMENT 3 48  float
0.0000000e+00 0.0000000e+00 0.0000000e+00 
0.0000000e+00 0.0000000e+00 0.0000000e+00 
0.0000000e+00 0.0000000e+00 0.0000000e+00 
0.0000000e+00 0.0000000e+00 0.0000000e+00 
0.0000000e+00 0.0000000e+00 0.0000000e+00 
0.0000000e+00 0.0000000e+00 0.0000000e+00 
0.0000000e+00 0.0000000e+00 0.0000000e+00 
0.0000000e+00 0.0000000e+00 0.0000000e+00 
0.0000000e+00 0.0000000e+00 0.0000000e+00 
0.0000000e+00 0.0000000e+00 0.0000000e+00 
0.0000000e+00 0.0000000e+00 0.0000000e+00 
0.0000000e+00 0.0000000e+00 0.0000000e+00 
0.0000000e+00 0.0000000e+00 0.0000000e+00 
0.0000000e+00 0.0000000e+00 0.0000000e+00 
0.0000000e+00 0.0000000e+00 0.0000000e+00 
0.0000000e+00 0.0000000e+00 0.0000000e+00 
0.0000000e+00 0.0000000e+00 0.0000000e+00 
0.0000000e+00 0.0000000e+00 0.0000000e+00 
0.0000000e+00 0.0000000e+00 0.0000000e+00 
0.0000000e+00 0.0000000e+00 0.0000000e+00 
0.0000000e+00 0.0000000e+00 0.0000000e+00 
0.0000000e+00 0.0000000e+00 0.0000000e+00 
0.0000000e+00 0.0000000e+00 0.0000000e+00 
0.0000000e+00 0.0000000e+00 0.0000000e+00 
0.0000000e+00 0.0000000e+00 0.0000000e+00 
0.0000000e+00 0.0000000e+00 0.0000000e+00 
0.0000000e+00 0.0000000e+00 0.0000000e+00 
0.0000000e+00 0.0000000e+00 0.0000000e+00 
0.0000000e+00 0.0000000e+00 0.0000000e+00 
0.0000000e+00 0.0000000e+00 0.0000000e+00 
0.0000000e+00 0.0000000e+00 0.0000000e+00 
0.0000000e+00 0.0000000e+00 0.0000000e+00 
0.0000000e+00 0.0000000e+00 0.0000000e+00 
0.0000000e+00 0.0000000e+00 0.0000000e+00 
0.0000000e+00 0.0000000e+00 0.0000000e+00 
0.0000000e+00 0.0000000e+00 0.0000000e+00 
0.0000000e+00 0.0000000e+00 0.0000000e+00 
0.0000000e+00 0.0000000e+00 0.0000000e+00 
0.0000000e+00 0.0000000e+00 0.0000000e+00 
0.0000000e+00 0.0000000e+00 0.0000000e+00 
0.0000000e+00 0.0000000e+00 0.0000000e+00 
0.0000000e+00 0.0000000e+00 0.0000000e+00 
0.0000000e+00 0.0000000e+00 0.0000000e+00 
0.0000000e+00 0.0000000e+00 0.0000000e+00 
0.0000000e+00 0.0000000e+00 0.0000000e+00 
0.0000000e+00 0.0000000e+00 0.0000000e+00 
0.0000000e+00 0.0000000e+00 0.0000000e+00 
0.0000000e+00 0.0000000e+00 0.0000000e+00 
CELL_DATA 48
FIELD FieldData 9
YOUNG_MODULUS 1 48  float
1.0000000e+00
1.0000000e+00
1.0000000e+00
1.0000000e+00
1.0000000e+00
1.0000000e+00
1.0000000e+00
1.0000000e+00
1.0000000e+00
1.0000000e+00
1.0000000e+00
1.0000000e+00
1.0000000e+00
1.0000000e+00
1.0000000e+00
1.0000000e+00
1.0000000e+00
1.0000000e+00
1.0000000e+00
1.0000000e+00
1.0000000e+00
1.0000000e+00
1.0000000e+00
1.0000000e+00
1.0000000e+00
1.0000000e+00
1.0000000e+00
1.0000000e+00
1.0000000e+00
1.0000000e+00
1.0000000e+00
1.0000000e+00
1.0000000e+00
1.0000000e+00
1.0000000e+00
1.0000000e+00
1.0000000e+00
1.0000000e+00
1.0000000e+00
1.0000000e+00
1.0000000e+00
1.0000000e+00
1.0000000e+00
1.0000000e+00
1.0000000e+00
1.0000000e+00
1.0000000e+00
1.0000000e+00
DENSITY 1 48  float
7.8500000e+03
7.8500000e+03
7.8500000e+03
7.8500000e+03
7.8500000e+03
7.8500000e+03
7.8500000e+03
7.8500000e+03
7.8500000e+03
7.8500000e+03
7.8500000e+03
7.8500000e+03
7.8500000e+03
7.8500000e+03
7.8500000e+03
7.8500000e+03
7.8500000e+03
7.8500000e+03
7.8500000e+03
7.8500000e+03
7.8500000e+03
7.8500000e+03
7.8500000e+03
7.8500000e+03
7.8500000e+03
7.8500000e+03
7.8500000e+03
7.8500000e+03
7.8500000e+03
7.8500000e+03
7.8500000e+03
7.8500000e+03
7.8500000e+03
7.8500000e+03
7.8500000e+03
7.8500000e+03
7.8500000e+03
7.8500000e+03
7.8500000e+03
7.8500000e+03
7.8500000e+03
7.8500000e+03
7.8500000e+03
7.8500000e+03
7.8500000e+03
7.8500000e+03
7.8500000e+03
7.8500000e+03
CROSS_AREA 1 48  float
1.0000000e+00
1.0000000e+00
1.0000000e+00
1.0000000e+00
1.0000000e+00
1.0000000e+00
1.0000000e+00
1.0000000e+00
1.0000000e+00
1.0000000e+00
1.0000000e+00
1.0000000e+00
1.0000000e+00
1.0000000e+00
1.0000000e+00
1.0000000e+00
1.0000000e+00
1.0000000e+00
1.0000000e+00
1.0000000e+00
1.0000000e+00
1.0000000e+00
1.0000000e+00
1.0000000e+00
1.0000000e+00
1.0000000e+00
1.0000000e+00
1.0000000e+00
1.0000000e+00
1.0000000e+00
1.0000000e+00
1.0000000e+00
1.0000000e+00
1.0000000e+00
1.0000000e+00
1.0000000e+00
1.0000000e+00
1.0000000e+00
1.0000000e+00
1.0000000e+00
1.0000000e+00
1.0000000e+00
1.0000000e+00
1.0000000e+00
1.0000000e+00
1.0000000e+00
1.0000000e+00
1.0000000e+00
I22 1 48  float
1.0000000e+00
1.0000000e+00
1.0000000e+00
1.0000000e+00
1.0000000e+00
1.0000000e+00
1.0000000e+00
1.0000000e+00
1.0000000e+00
1.0000000e+00
1.0000000e+00
1.0000000e+00
1.0000000e+00
1.0000000e+00
1.0000000e+00
1.0000000e+00
1.0000000e+00
1.0000000e+00
1.0000000e+00
1.0000000e+00
1.0000000e+00
1.0000000e+00
1.0000000e+00
1.0000000e+00
1.0000000e+00
1.0000000e+00
1.0000000e+00
1.0000000e+00
1.0000000e+00
1.0000000e+00
1.0000000e+00
1.0000000e+00
1.0000000e+00
1.0000000e+00
1.0000000e+00
1.0000000e+00
1.0000000e+00
1.0000000e+00
1.0000000e+00
1.0000000e+00
1.0000000e+00
1.0000000e+00
1.0000000e+00
1.0000000e+00
1.0000000e+00
1.0000000e+00
1.0000000e+00
1.0000000e+00
I33 1 48  float
1.0000000e+00
1.0000000e+00
1.0000000e+00
1.0000000e+00
1.0000000e+00
1.0000000e+00
1.0000000e+00
1.0000000e+00
1.0000000e+00
1.0000000e+00
1.0000000e+00
1.0000000e+00
1.0000000e+00
1.0000000e+00
1.0000000e+00
1.0000000e+00
1.0000000e+00
1.0000000e+00
1.0000000e+00
1.0000000e+00
1.0000000e+00
1.0000000e+00
1.0000000e+00
1.0000000e+00
1.0000000e+00
1.0000000e+00
1.0000000e+00
1.0000000e+00
1.0000000e+00
1.0000000e+00
1.0000000e+00
1.0000000e+00
1.0000000e+00
1.0000000e+00
1.0000000e+00
1.0000000e+00
1.0000000e+00
1.0000000e+00
1.0000000e+00
1.0000000e+00
1.0000000e+00
1.0000000e+00
1.0000000e+00
1.0000000e+00
1.0000000e+00
1.0000000e+00
1.0000000e+00
1.0000000e+00
TORSIONAL_INERTIA 1 48  float
1.0000000e+00
1.0000000e+00
1.0000000e+00
1.0000000e+00
1.0000000e+00
1.0000000e+00
1.0000000e+00
1.0000000e+00
1.0000000e+00
1.0000000e+00
1.0000000e+00
1.0000000e+00
1.0000000e+00
1.0000000e+00
1.0000000e+00
1.0000000e+00
1.0000000e+00
1.0000000e+00
1.0000000e+00
1.0000000e+00
1.0000000e+00
1.0000000e+00
1.0000000e+00
1.0000000e+00
1.0000000e+00
1.0000000e+00
1.0000000e+00
1.0000000e+00
1.0000000e+00
1.0000000e+00
1.0000000e+00
1.0000000e+00
1.0000000e+00
1.0000000e+00
1.0000000e+00
1.0000000e+00
1.0000000e+00
1.0000000e+00
1.0000000e+00
1.0000000e+00
1.0000000e+00
1.0000000e+00
1.0000000e+00
1.0000000e+00
1.0000000e+00
1.0000000e+00
1.0000000e+00
1.0000000e+00
POISSON_RATIO 1 48  float
3.0000001e-01
3.0000001e-01
3.0000001e-01
3.0000001e-01
3.0000001e-01
3.0000001e-01
3.0000001e-01
3.0000001e-01
3.0000001e-01
3.0000001e-01
3.0000001e-01
3.0000001e-01
3.0000001e-01
3.0000001e-01
3.0000001e-01
3.0000001e-01
3.0000001e-01
3.0000001e-01
3.0000001e-01
3.0000001e-01
3.0000001e-01
3.0000001e-01
3.0000001e-01
3.0000001e-01
3.0000001e-01
3.0000001e-01
3.0000001e-01
3.0000001e-01
3.0000001e-01
3.0000001e-01
3.0000001e-01
3.0000001e-01
3.0000001e-01
3.0000001e-01
3.0000001e-01
3.0000001e-01
3.0000001e-01
3.0000001e-01
3.0000001e-01
3.0000001e-01
3.0000001e-01
3.0000001e-01
3.0000001e-01
3.0000001e-01
3.0000001e-01
3.0000001e-01
3.0000001e-01
3.0000001e-01
MOMENT 3 48  float
0.0000000e+00 1.1863092e+00 0.0000000e+00 
0.0000000e+00 3.5589278e+00 0.0000000e+00 
0.0000000e+00 5.9315462e+00 0.0000000e+00 
0.0000000e+00 8.3041649e+00 0.0000000e+00 
0.0000000e+00 1.0676784e+01 0.0000000e+00 
0.0000000e+00 1.3049402e+01 0.0000000e+00 
0.0000000e+00 1.5422020e+01 0.0000000e+00 
0.0000000e+00 1.7794640e+01 0.0000000e+00 
0.0000000e+00 -1.9678778e+01 0.0000000e+00 
0.0000000e+00 -1.2700487e+01 0.0000000e+00 
0.0000000e+00 -5.7221975e+00 0.0000000e+00 
0.0000000e+00 1.2560922e+00 0.0000000e+00 
0.0000000e+00 8.2343817e+00 0.0000000e+00 
0.0000000e+00 1.5212671e+01 0.0000000e+00 
0.0000000e+00 2.2190962e+01 0.0000000e+00 
0.0000000e+00 2.9169250e+01 0.0000000e+00 
0.0000000e+00 -1.1863092e+00 0.0000000e+00 
0.0000000e+00 -3.5589278e+00 0.0000000e+00 
0.0000000e+00 -5.9315462e+00 0.0000000e+00 
0.0000000e+00 -8.3041649e+00 0.0000000e+00 
0.0000000e+00 -1.0676784e+01 0.0000000e+00 
0.0000000e+00 -1.3049402e+01 0.0000000e+00 
0.0000000e+00 -1.5422020e+01 0.0000000e+00 
0.0000000e+00 -1.7794640e+01 0.0000000e+00 
0.0000000e+00 1.9678778e+01 0.0000000e+00 
0.0000000e+00 1.2700487e+01 0.0000000e+00 
0.0000000e+00 5.7221975e+00 0.0000000e+00 
0.0000000e+00 -1.2560922e+00 0.0000000e+00 
0.0000000e+00 -8.2343817e+00 0.0000000e+00 
0.0000000e+00 -1.5212671e+01 0.0000000e+00 
0.0000000e+00 -2.2190962e+01 0.0000000e+00 
0.0000000e+00 -2.9169250e+01 0.0000000e+00 
0.0000000e+00 2.4648870e+01 0.0000000e+00 
0.0000000e+00 -5.3511300e+00 0.0000000e+00 
0.0000000e+00 -2.5351130e+01 0.0000000e+00 
0.0000000e+00 -3.5351131e+01 0.0000000e+00 
0.0000000e+00 -3.5351131e+01 0.0000000e+00 
0.0000000e+00 -2.5351130e+01 0.0000000e+00 
0.0000000e+00 -5.3511300e+00 0.0000000e+00 
0.0000000e+00 2.4648870e+01 0.0000000e+00 
0.0000000e+00 1.5158396e+01 0.0000000e+00 
0.0000000e+00 -1.4841604e+01 0.0000000e+00 
0.0000000e+00 -3.4841602e+01 0.0000000e+00 
0.0000000e+00 -4.4841602e+01 0.0000000e+00 
0.0000000e+00 -4.4841602e+01 0.0000000e+00 
0.0000000e+00 -3.4841602e+01 0.0000000e+00 
0.0000000e+00 -1.4841604e+01 0.0000000e+00 
0.0000000e+00 1.5158396e+01 0.0000000e+00 
FORCE 3 48  float
-1.6000000e+02 0.0000000e+00 4.7452369e+00 
-1.6000000e+02 0.0000000e+00 4.7452369e+00 
-1.6000000e+02 0.0000000e+00 4.7452369e+00 
-1.6000000e+02 0.0000000e+00 4.7452369e+00 
-1.6000000e+02 0.0000000e+00 4.7452369e+00 
-1.6000000e+02 0.0000000e+00 4.7452369e+00 
-1.6000000e+02 0.0000000e+00 4.7452369e+00 
-1.6000000e+02 0.0000000e+00 4.7452369e+00 
-8.0000000e+01 0.0000000e+00 1.3956579e+01 
-8.0000000e+01 0.0000000e+00 1.3956579e+01 
-8.0000000e+01 0.0000000e+00 1.3956579e+01 
-8.0000000e+01 0.0000000e+00 1.3956579e+01 
-8.0000000e+01 0.0000000e+00 1.3956579e+01 
-8.0000000e+01 0.0000000e+00 1.3956579e+01 
-8.0000000e+01 0.0000000e+00 1.3956579e+01 
-8.0000000e+01 0.0000000e+00 1.3956579e+01 
-1.6000000e+02 0.0000000e+00 -4.7452369e+00 
-1.6000000e+02 0.0000000e+00 -4.7452369e+00 
-1.6000000e+02 0.0000000e+00 -4.7452369e+00 
-1.6000000e+02 0.0000000e+00 -4.7452369e+00 
-1.6000000e+02 0.0000000e+00 -4.7452369e+00 
-1.6000000e+02 0.0000000e+00 -4.7452369e+00 
-1.6000000e+02 0.0000000e+00 -4.7452369e+00 
-1.6000000e+02 0.0000000e+00 -4.7452369e+00 
-8.0000000e+01 0.0000000e+00 -1.3956579e+01 
-8.0000000e+01 0.0000000e+00 -1.3956579e+01 
-8.0000000e+01 0.0000000e+00 -1.3956579e+01 
-8.0000000e+01 0.0000000e+00 -1.3956579e+01 
-8.0000000e+01 0.0000000e+00 -1.3956579e+01 
-8.0000000e+01 0.0000000e+00 -1.3956579e+01 
-8.0000000e+01 0.0000000e+00 -1.3956579e+01 
-8.0000000e+01 0.0000000e+00 -1.3956579e+01 
9.2113428e+00 0.0000000e+00 -7.0000000e+01 
9.2113428e+00 0.0000000e+00 -5.0000000e+01 
9.2113428e+00 0.0000000e+00 -3.0000000e+01 
9.2113428e+00 0.0000000e+00 -1.0000000e+01 
9.2113428e+00 0.0000000e+00 1.0000000e+01 
9.2113428e+00 0.0000000e+00 3.0000000e+01 
9.2113428e+00 0.0000000e+00 5.0000000e+01 
9.2113428e+00 0.0000000e+00 7.0000000e+01 
-1.3956579e+01 0.0000000e+00 -7.0000000e+01 
-1.3956579e+01 0.0000000e+00 -5.0000000e+01 
-1.3956579e+01 0.0000000e+00 -3.0000000e+01 
-1.3956579e+01 0.0000000e+00 -1.0000000e+01 
-1.3956579e+01 0.0000000e+00 1.0000000e+01 
-1.3956579e+01 0.0000000e+00 3.0000000e+01 
-1.3956579e+01 0.0000000e+00 5.0000000e+01 
-1.3956579e+01 0.0000000e+00 7.0000000e+01 
