# vtk DataFile Version 4.0
vtk output
ASCII
DATASET UNSTRUCTURED_GRID
POINTS 11 float
0.0000000e+00 0.0000000e+00 0.0000000e+00 
1.0000000e-01 0.0000000e+00 0.0000000e+00 
2.0000000e-01 0.0000000e+00 0.0000000e+00 
3.0000001e-01 0.0000000e+00 0.0000000e+00 
4.0000001e-01 0.0000000e+00 0.0000000e+00 
5.0000000e-01 0.0000000e+00 0.0000000e+00 
6.0000002e-01 0.0000000e+00 0.0000000e+00 
6.9999999e-01 0.0000000e+00 0.0000000e+00 
8.0000001e-01 0.0000000e+00 0.0000000e+00 
8.9999998e-01 0.0000000e+00 0.0000000e+00 
1.0000000e+00 0.0000000e+00 0.0000000e+00 

CELLS 10 30
2 0 1
2 1 2
2 2 3
2 3 4
2 4 5
2 5 6
2 6 7
2 7 8
2 8 9
2 9 10

CELL_TYPES 10
3
3
3
3
3
3
3
3
3
3
POINT_DATA 11
FIELD FieldData 5
DISPLACEMENT 3 11  float
0.0000000e+00 0.0000000e+00 0.0000000e+00 
0.0000000e+00 2.9904819e-09 0.0000000e+00 
0.0000000e+00 9.8706145e-09 0.0000000e+00 
0.0000000e+00 1.7932173e-08 0.0000000e+00 
0.0000000e+00 2.5038586e-08 0.0000000e+00 
0.0000000e+00 2.9624946e-08 0.0000000e+00 
0.0000000e+00 3.0697993e-08 0.0000000e+00 
0.0000000e+00 2.7836135e-08 0.0000000e+00 
0.0000000e+00 2.1189429e-08 0.0000000e+00 
0.0000000e+00 1.1479591e-08 0.0000000e+00 
0.0000000e+00 0.0000000e+00 0.0000000e+00 
ROTATION 3 11  float
0.0000000e+00 0.0000000e+00 0.0000000e+00 
0.0000000e+00 0.0000000e+00 5.4343165e-08 
0.0000000e+00 0.0000000e+00 7.8745785e-08 
0.0000000e+00 0.0000000e+00 7.8924430e-08 
0.0000000e+00 0.0000000e+00 6.0595667e-08 
0.0000000e+00 0.0000000e+00 2.9476077e-08 
0.0000000e+00 0.0000000e+00 -8.7177732e-09 
0.0000000e+00 0.0000000e+00 -4.8269307e-08 
0.0000000e+00 0.0000000e+00 -8.3461956e-08 
0.0000000e+00 0.0000000e+00 -1.0857914e-07 
0.0000000e+00 0.0000000e+00 -1.1790431e-07 
REACTION 3 11  float
-0.0000000e+00 -6.2375002e+00 -0.0000000e+00 
-0.0000000e+00 2.6645353e-14 -0.0000000e+00 
-0.0000000e+00 -1.6875390e-14 -0.0000000e+00 
-0.0000000e+00 -2.6645353e-15 -0.0000000e+00 
-0.0000000e+00 6.5725203e-14 -0.0000000e+00 
-0.0000000e+00 4.2410520e-14 -0.0000000e+00 
-0.0000000e+00 3.5527137e-15 -0.0000000e+00 
-0.0000000e+00 5.5067062e-14 -0.0000000e+00 
-0.0000000e+00 -3.5527137e-15 -0.0000000e+00 
-0.0000000e+00 -5.3290705e-15 -0.0000000e+00 
-0.0000000e+00 -3.7625000e+00 -0.0000000e+00 
REACTION_MOMENT 3 11  float
-0.0000000e+00 -0.0000000e+00 -1.2375000e+00 
-0.0000000e+00 -0.0000000e+00 4.4408921e-16 
-0.0000000e+00 -0.0000000e+00 2.2204460e-15 
-0.0000000e+00 -0.0000000e+00 -2.2204460e-15 
-0.0000000e+00 -0.0000000e+00 -1.1768364e-14 
-0.0000000e+00 -0.0000000e+00 -1.0214052e-14 
-0.0000000e+00 -0.0000000e+00 1.5543122e-15 
-0.0000000e+00 -0.0000000e+00 2.6645353e-15 
-0.0000000e+00 -0.0000000e+00 2.2204460e-15 
-0.0000000e+00 -0.0000000e+00 -0.0000000e+00 
-0.0000000e+00 -0.0000000e+00 -0.0000000e+00 
LINE_LOAD 3 11  float
0.0000000e+00 1.0000000e+01 0.0000000e+00 
0.0000000e+00 1.0000000e+01 0.0000000e+00 
0.0000000e+00 1.0000000e+01 0.0000000e+00 
0.0000000e+00 1.0000000e+01 0.0000000e+00 
0.0000000e+00 1.0000000e+01 0.0000000e+00 
0.0000000e+00 1.0000000e+01 0.0000000e+00 
0.0000000e+00 1.0000000e+01 0.0000000e+00 
0.0000000e+00 1.0000000e+01 0.0000000e+00 
0.0000000e+00 1.0000000e+01 0.0000000e+00 
0.0000000e+00 1.0000000e+01 0.0000000e+00 
0.0000000e+00 1.0000000e+01 0.0000000e+00 
CELL_DATA 10
FIELD FieldData 3
CROSS_AREA 1 10  float
0.0000000e+00
0.0000000e+00
0.0000000e+00
0.0000000e+00
0.0000000e+00
0.0000000e+00
0.0000000e+00
0.0000000e+00
0.0000000e+00
0.0000000e+00
I22 1 10  float
0.0000000e+00
0.0000000e+00
0.0000000e+00
0.0000000e+00
0.0000000e+00
0.0000000e+00
0.0000000e+00
0.0000000e+00
0.0000000e+00
0.0000000e+00
I33 1 10  float
0.0000000e+00
0.0000000e+00
0.0000000e+00
0.0000000e+00
0.0000000e+00
0.0000000e+00
0.0000000e+00
0.0000000e+00
0.0000000e+00
0.0000000e+00
