# vtk DataFile Version 3.0
Primal Analysis Results
ASCII
DATASET UNSTRUCTURED_GRID

POINTS 11 float
0.0 0.0 0.0
0.1 2.9904819070486227e-09 0.0
0.2 9.87061491263203e-09 0.0
0.3 1.793217286914825e-08 0.0
0.4 2.5038586863317596e-08 0.0
0.5 2.9624945216182698e-08 0.0
0.6 3.069799348310854e-08 0.0
0.7 2.7836134453782418e-08 0.0
0.8 2.118942815221394e-08 0.0
0.9 1.1479591836735053e-08 0.0
1.0 0.0 0.0

CELLS 10 30
2 0 1
2 1 2
2 2 3
2 3 4
2 4 5
2 5 6
2 6 7
2 7 8
2 8 9
2 9 10

CELL_TYPES 10
3
3
3
3
3
3
3
3
3
3

POINT_DATA 11

VECTORS DISPLACEMENT float
0.0 0.0 0.0
0.0 2.9904819070486227e-09 0.0
0.0 9.87061491263203e-09 0.0
0.0 1.793217286914825e-08 0.0
0.0 2.5038586863317596e-08 0.0
0.0 2.9624945216182698e-08 0.0
0.0 3.069799348310854e-08 0.0
0.0 2.7836134453782418e-08 0.0
0.0 2.118942815221394e-08 0.0
0.0 1.1479591836735053e-08 0.0
0.0 0.0 0.0

VECTORS ROTATION float
0.0 0.0 0.0
0.0 0.0 5.434316583776532e-08
0.0 0.0 7.874578402789954e-08
0.0 0.0 7.892442691362539e-08
0.0 0.0 6.059566683816584e-08
0.0 0.0 2.947607614474446e-08
0.0 0.0 -8.717772823415451e-09
0.0 0.0 -4.8269307723090926e-08
0.0 0.0 -8.346195621105862e-08
0.0 0.0 -1.0857914594409541e-07
0.0 0.0 -1.1790430457897813e-07

VECTORS REACTION float
-0.0 -6.2375000000001535 -0.0
-0.0 2.6645352591003757e-14 -0.0
-0.0 -1.687538997430238e-14 -0.0
-0.0 -2.6645352591003757e-15 -0.0
-0.0 6.572520305780927e-14 -0.0
-0.0 4.241051954068098e-14 -0.0
-0.0 3.552713678800501e-15 -0.0
-0.0 5.5067062021407764e-14 -0.0
-0.0 -3.552713678800501e-15 -0.0
-0.0 -5.329070518200751e-15 -0.0
-0.0 -3.7625000000000344 -0.0

SCALARS DISPLACEMENT_Y float 1
LOOKUP_TABLE default
0.0
2.9904819070486227e-09
9.87061491263203e-09
1.793217286914825e-08
2.5038586863317596e-08
2.9624945216182698e-08
3.069799348310854e-08
2.7836134453782418e-08
2.118942815221394e-08
1.1479591836735053e-08
0.0
