# vtk DataFile Version 4.0
vtk output
ASCII
DATASET UNSTRUCTURED_GRID
POINTS 22 float
0.0000000e+00 0.0000000e+00 0.0000000e+00 
1.0000000e-01 0.0000000e+00 0.0000000e+00 
2.0000000e-01 0.0000000e+00 0.0000000e+00 
3.0000001e-01 0.0000000e+00 0.0000000e+00 
4.0000001e-01 0.0000000e+00 0.0000000e+00 
5.0000000e-01 0.0000000e+00 0.0000000e+00 
6.0000002e-01 0.0000000e+00 0.0000000e+00 
6.9999999e-01 0.0000000e+00 0.0000000e+00 
8.0000001e-01 0.0000000e+00 0.0000000e+00 
8.9999998e-01 0.0000000e+00 0.0000000e+00 
1.0000000e+00 0.0000000e+00 0.0000000e+00 
1.0000000e+00 0.0000000e+00 0.0000000e+00 
1.1000000e+00 0.0000000e+00 0.0000000e+00 
1.2000000e+00 0.0000000e+00 0.0000000e+00 
1.3000000e+00 0.0000000e+00 0.0000000e+00 
1.4000000e+00 0.0000000e+00 0.0000000e+00 
1.5000000e+00 0.0000000e+00 0.0000000e+00 
1.6000000e+00 0.0000000e+00 0.0000000e+00 
1.7000000e+00 0.0000000e+00 0.0000000e+00 
1.8000000e+00 0.0000000e+00 0.0000000e+00 
1.9000000e+00 0.0000000e+00 0.0000000e+00 
2.0000000e+00 0.0000000e+00 0.0000000e+00 

CELLS 20 60
2 0 1
2 1 2
2 2 3
2 3 4
2 4 5
2 5 6
2 6 7
2 7 8
2 8 9
2 9 10
2 11 12
2 12 13
2 13 14
2 14 15
2 15 16
2 16 17
2 17 18
2 18 19
2 19 20
2 20 21

CELL_TYPES 20
3
3
3
3
3
3
3
3
3
3
3
3
3
3
3
3
3
3
3
3
POINT_DATA 22
FIELD FieldData 4
DISPLACEMENT 3 22  float
0.0000000e+00 0.0000000e+00 0.0000000e+00 
2.4934273e-04 -2.5168306e-03 0.0000000e+00 
4.9868546e-04 -1.0067322e-02 0.0000000e+00 
7.4802822e-04 -2.2651475e-02 0.0000000e+00 
9.9737092e-04 -4.0269289e-02 0.0000000e+00 
1.2467137e-03 -6.2920764e-02 0.0000000e+00 
1.4960564e-03 -9.0605900e-02 0.0000000e+00 
1.7453992e-03 -1.2332470e-01 0.0000000e+00 
1.9947418e-03 -1.6107716e-01 0.0000000e+00 
2.2440846e-03 -2.0386328e-01 0.0000000e+00 
5.4774589e-18 -2.5157085e-01 0.0000000e+00 
5.4774589e-18 -2.5157085e-01 0.0000000e+00 
-2.2440846e-03 -2.0386328e-01 0.0000000e+00 
-1.9947418e-03 -1.6107716e-01 0.0000000e+00 
-1.7453992e-03 -1.2332470e-01 0.0000000e+00 
-1.4960564e-03 -9.0605900e-02 0.0000000e+00 
-1.2467137e-03 -6.2920764e-02 0.0000000e+00 
-9.9737092e-04 -4.0269289e-02 0.0000000e+00 
-7.4802822e-04 -2.2651475e-02 0.0000000e+00 
-4.9868546e-04 -1.0067322e-02 0.0000000e+00 
-2.4934273e-04 -2.5168306e-03 0.0000000e+00 
0.0000000e+00 0.0000000e+00 0.0000000e+00 
ROTATION 3 22  float
0.0000000e+00 0.0000000e+00 0.0000000e+00 
0.0000000e+00 0.0000000e+00 -5.0336614e-02 
0.0000000e+00 0.0000000e+00 -1.0067323e-01 
0.0000000e+00 0.0000000e+00 -1.5100984e-01 
0.0000000e+00 0.0000000e+00 -2.0134646e-01 
0.0000000e+00 0.0000000e+00 -2.5168306e-01 
0.0000000e+00 0.0000000e+00 -3.0201969e-01 
0.0000000e+00 0.0000000e+00 -3.5235628e-01 
0.0000000e+00 0.0000000e+00 -4.0269291e-01 
0.0000000e+00 0.0000000e+00 -4.5302951e-01 
0.0000000e+00 0.0000000e+00 -5.0000000e-01 
0.0000000e+00 0.0000000e+00 5.0000000e-01 
0.0000000e+00 0.0000000e+00 4.5302951e-01 
0.0000000e+00 0.0000000e+00 4.0269291e-01 
0.0000000e+00 0.0000000e+00 3.5235628e-01 
0.0000000e+00 0.0000000e+00 3.0201969e-01 
0.0000000e+00 0.0000000e+00 2.5168306e-01 
0.0000000e+00 0.0000000e+00 2.0134646e-01 
0.0000000e+00 0.0000000e+00 1.5100984e-01 
0.0000000e+00 0.0000000e+00 1.0067323e-01 
0.0000000e+00 0.0000000e+00 5.0336614e-02 
0.0000000e+00 0.0000000e+00 0.0000000e+00 
REACTION 3 22  float
-1.6900319e+06 -4.2660445e+04 0.0000000e+00 
-1.5288645e+06 -1.2734280e+05 0.0000000e+00 
-3.0621408e+06 -2.4464084e+05 0.0000000e+00 
-4.5996690e+06 -4.1256869e+05 0.0000000e+00 
-6.1333490e+06 -5.9515394e+05 0.0000000e+00 
-7.6457960e+06 -7.5143525e+05 0.0000000e+00 
-9.1112480e+06 -8.4213856e+05 0.0000000e+00 
-1.0498343e+07 -8.3534369e+05 0.0000000e+00 
-1.1773978e+07 -7.1022588e+05 0.0000000e+00 
1.7436536e+06 4.1676528e+06 0.0000000e+00 
5.4299768e+07 3.9385722e+05 0.0000000e+00 
-5.4299768e+07 3.9385722e+05 0.0000000e+00 
-1.7436536e+06 4.1676528e+06 0.0000000e+00 
1.1773978e+07 -7.1022588e+05 0.0000000e+00 
1.0498343e+07 -8.3534369e+05 0.0000000e+00 
9.1112480e+06 -8.4213856e+05 0.0000000e+00 
7.6457960e+06 -7.5143525e+05 0.0000000e+00 
6.1333490e+06 -5.9515394e+05 0.0000000e+00 
4.5996690e+06 -4.1256869e+05 0.0000000e+00 
3.0621408e+06 -2.4464084e+05 0.0000000e+00 
1.5288645e+06 -1.2734280e+05 0.0000000e+00 
1.6900319e+06 -4.2660445e+04 0.0000000e+00 
REACTION_MOMENT 3 22  float
0.0000000e+00 0.0000000e+00 5.2349891e+05 
0.0000000e+00 0.0000000e+00 -2.5623570e+04 
0.0000000e+00 0.0000000e+00 -8.2323281e+04 
0.0000000e+00 0.0000000e+00 -1.9957283e+05 
0.0000000e+00 0.0000000e+00 -4.0380453e+05 
0.0000000e+00 0.0000000e+00 -7.1727031e+05 
0.0000000e+00 0.0000000e+00 -1.1572904e+06 
0.0000000e+00 0.0000000e+00 -1.7359212e+06 
0.0000000e+00 0.0000000e+00 -2.4600178e+06 
0.0000000e+00 0.0000000e+00 -2.7756385e+06 
-0.0000000e+00 -0.0000000e+00 -1.7886091e+06 
0.0000000e+00 0.0000000e+00 1.7886091e+06 
0.0000000e+00 0.0000000e+00 2.7756385e+06 
0.0000000e+00 0.0000000e+00 2.4600178e+06 
0.0000000e+00 0.0000000e+00 1.7359212e+06 
0.0000000e+00 0.0000000e+00 1.1572904e+06 
0.0000000e+00 0.0000000e+00 7.1727031e+05 
0.0000000e+00 0.0000000e+00 4.0380453e+05 
0.0000000e+00 0.0000000e+00 1.9957283e+05 
0.0000000e+00 0.0000000e+00 8.2323281e+04 
0.0000000e+00 0.0000000e+00 2.5623570e+04 
0.0000000e+00 0.0000000e+00 -5.2349891e+05 
CELL_DATA 20
FIELD FieldData 2
MOMENT 3 20  float
0.0000000e+00 0.0000000e+00 5.2776400e+05 
0.0000000e+00 0.0000000e+00 5.2707900e+05 
0.0000000e+00 0.0000000e+00 5.2573388e+05 
0.0000000e+00 0.0000000e+00 5.2377662e+05 
0.0000000e+00 0.0000000e+00 5.2127541e+05 
0.0000000e+00 0.0000000e+00 5.1831431e+05 
0.0000000e+00 0.0000000e+00 5.1498862e+05 
0.0000000e+00 0.0000000e+00 5.1139984e+05 
0.0000000e+00 0.0000000e+00 5.0765106e+05 
0.0000000e+00 0.0000000e+00 4.7410303e+05 
0.0000000e+00 0.0000000e+00 4.7410303e+05 
0.0000000e+00 0.0000000e+00 5.0765106e+05 
0.0000000e+00 0.0000000e+00 5.1139984e+05 
0.0000000e+00 0.0000000e+00 5.1498862e+05 
0.0000000e+00 0.0000000e+00 5.1831431e+05 
0.0000000e+00 0.0000000e+00 5.2127541e+05 
0.0000000e+00 0.0000000e+00 5.2377662e+05 
0.0000000e+00 0.0000000e+00 5.2573388e+05 
0.0000000e+00 0.0000000e+00 5.2707900e+05 
0.0000000e+00 0.0000000e+00 5.2776400e+05 
FORCE 3 20  float
1.6884289e+06 8.5063086e+04 0.0000000e+00 
3.1970372e+06 4.1127638e+05 0.0000000e+00 
6.1804835e+06 1.1937252e+06 0.0000000e+00 
1.0573298e+07 2.6980405e+06 0.0000000e+00 
1.6282207e+07 5.1372105e+06 0.0000000e+00 
2.3191418e+07 8.6597790e+06 0.0000000e+00 
3.1168724e+07 1.3345173e+07 0.0000000e+00 
4.0071848e+07 1.9205802e+07 0.0000000e+00 
4.9754512e+07 2.6194670e+07 0.0000000e+00 
4.8625896e+07 2.4169032e+07 0.0000000e+00 
4.8625896e+07 -2.4169032e+07 0.0000000e+00 
4.9754512e+07 -2.6194670e+07 0.0000000e+00 
4.0071848e+07 -1.9205802e+07 0.0000000e+00 
3.1168724e+07 -1.3345173e+07 0.0000000e+00 
2.3191418e+07 -8.6597790e+06 0.0000000e+00 
1.6282207e+07 -5.1372105e+06 0.0000000e+00 
1.0573298e+07 -2.6980405e+06 0.0000000e+00 
6.1804835e+06 -1.1937252e+06 0.0000000e+00 
3.1970372e+06 -4.1127638e+05 0.0000000e+00 
1.6884289e+06 -8.5063086e+04 0.0000000e+00 
