# vtk DataFile Version 4.0
vtk output
ASCII
DATASET UNSTRUCTURED_GRID
POINTS 4 float
0.0000000e+00 0.0000000e+00 0.0000000e+00 
0.0000000e+00 2.0000000e+00 0.0000000e+00 
2.0000000e+00 2.0000000e+00 0.0000000e+00 
2.0000000e+00 0.0000000e+00 0.0000000e+00 

CELLS 3 9
2 0 1
2 1 2
2 2 3

CELL_TYPES 3
3
3
3
POINT_DATA 4
FIELD FieldData 4
DISPLACEMENT 3 4  float
0.0000000e+00 0.0000000e+00 0.0000000e+00 
-1.3553501e-20 -3.3184006e-05 0.0000000e+00 
-1.3563620e-20 -3.3184006e-05 0.0000000e+00 
0.0000000e+00 0.0000000e+00 0.0000000e+00 
REACTION 3 4  float
1.5269462e-15 1.0000000e+04 -0.0000000e+00 
1.5221275e-15 3.1089364e-15 -0.0000000e+00 
-3.2825667e-15 1.8189894e-12 -0.0000000e+00 
2.3349316e-16 1.0000000e+04 -0.0000000e+00 
ROTATION 3 4  float
0.0000000e+00 0.0000000e+00 7.7462403e-21 
0.0000000e+00 0.0000000e+00 4.8377715e-21 
0.0000000e+00 0.0000000e+00 6.4853105e-21 
0.0000000e+00 0.0000000e+00 6.9300594e-21 
REACTION_MOMENT 3 4  float
-0.0000000e+00 -0.0000000e+00 -0.0000000e+00 
-0.0000000e+00 -0.0000000e+00 -3.3497438e-15 
-0.0000000e+00 -0.0000000e+00 6.0467378e-15 
-0.0000000e+00 -0.0000000e+00 -0.0000000e+00 
CELL_DATA 3
FIELD FieldData 0
