# vtk DataFile Version 4.0
vtk output
ASCII
DATASET UNSTRUCTURED_GRID
POINTS 86 float
0.0000000e+00 0.0000000e+00 0.0000000e+00 
0.0000000e+00 0.0000000e+00 6.0000002e-01 
0.0000000e+00 0.0000000e+00 1.2000000e+00 
0.0000000e+00 0.0000000e+00 1.8000000e+00 
0.0000000e+00 0.0000000e+00 2.4000001e+00 
0.0000000e+00 0.0000000e+00 3.0000000e+00 
0.0000000e+00 0.0000000e+00 3.5999999e+00 
0.0000000e+00 0.0000000e+00 4.1999998e+00 
0.0000000e+00 0.0000000e+00 4.8000002e+00 
0.0000000e+00 0.0000000e+00 5.4000001e+00 
0.0000000e+00 0.0000000e+00 6.0000000e+00 
0.0000000e+00 0.0000000e+00 6.5999999e+00 
0.0000000e+00 0.0000000e+00 7.1999998e+00 
0.0000000e+00 0.0000000e+00 7.8000002e+00 
0.0000000e+00 0.0000000e+00 8.3999996e+00 
0.0000000e+00 0.0000000e+00 9.0000000e+00 
0.0000000e+00 0.0000000e+00 9.6000004e+00 
0.0000000e+00 0.0000000e+00 1.0200000e+01 
0.0000000e+00 0.0000000e+00 1.0800000e+01 
0.0000000e+00 0.0000000e+00 1.1400000e+01 
0.0000000e+00 0.0000000e+00 1.2000000e+01 
0.0000000e+00 0.0000000e+00 1.2600000e+01 
0.0000000e+00 0.0000000e+00 1.3200000e+01 
0.0000000e+00 0.0000000e+00 1.3800000e+01 
0.0000000e+00 0.0000000e+00 1.4400000e+01 
0.0000000e+00 0.0000000e+00 1.5000000e+01 
0.0000000e+00 0.0000000e+00 1.5600000e+01 
0.0000000e+00 0.0000000e+00 1.6200001e+01 
0.0000000e+00 0.0000000e+00 1.6799999e+01 
0.0000000e+00 0.0000000e+00 1.7400000e+01 
0.0000000e+00 0.0000000e+00 1.8000000e+01 
6.0000000e+00 0.0000000e+00 0.0000000e+00 
6.0000000e+00 0.0000000e+00 6.0000002e-01 
6.0000000e+00 0.0000000e+00 1.2000000e+00 
6.0000000e+00 0.0000000e+00 1.8000000e+00 
6.0000000e+00 0.0000000e+00 2.4000001e+00 
6.0000000e+00 0.0000000e+00 3.0000000e+00 
6.0000000e+00 0.0000000e+00 3.5999999e+00 
6.0000000e+00 0.0000000e+00 4.1999998e+00 
6.0000000e+00 0.0000000e+00 4.8000002e+00 
6.0000000e+00 0.0000000e+00 5.4000001e+00 
6.0000000e+00 0.0000000e+00 6.0000000e+00 
6.0000000e+00 0.0000000e+00 6.5999999e+00 
6.0000000e+00 0.0000000e+00 7.1999998e+00 
6.0000000e+00 0.0000000e+00 7.8000002e+00 
6.0000000e+00 0.0000000e+00 8.3999996e+00 
6.0000000e+00 0.0000000e+00 9.0000000e+00 
6.0000000e+00 0.0000000e+00 9.6000004e+00 
6.0000000e+00 0.0000000e+00 1.0200000e+01 
6.0000000e+00 0.0000000e+00 1.0800000e+01 
6.0000000e+00 0.0000000e+00 1.1400000e+01 
6.0000000e+00 0.0000000e+00 1.2000000e+01 
6.0000000e+00 0.0000000e+00 1.2600000e+01 
6.0000000e+00 0.0000000e+00 1.3200000e+01 
6.0000000e+00 0.0000000e+00 1.3800000e+01 
6.0000000e+00 0.0000000e+00 1.4400000e+01 
6.0000000e+00 0.0000000e+00 1.5000000e+01 
6.0000000e+00 0.0000000e+00 1.5600000e+01 
6.0000000e+00 0.0000000e+00 1.6200001e+01 
6.0000000e+00 0.0000000e+00 1.6799999e+01 
6.0000000e+00 0.0000000e+00 1.7400000e+01 
6.0000000e+00 0.0000000e+00 1.8000000e+01 
1.2000000e+00 0.0000000e+00 3.0000000e+00 
2.4000001e+00 0.0000000e+00 3.0000000e+00 
3.5999999e+00 0.0000000e+00 3.0000000e+00 
4.8000002e+00 0.0000000e+00 3.0000000e+00 
1.2000000e+00 0.0000000e+00 6.0000000e+00 
2.4000001e+00 0.0000000e+00 6.0000000e+00 
3.5999999e+00 0.0000000e+00 6.0000000e+00 
4.8000002e+00 0.0000000e+00 6.0000000e+00 
1.2000000e+00 0.0000000e+00 9.0000000e+00 
2.4000001e+00 0.0000000e+00 9.0000000e+00 
3.5999999e+00 0.0000000e+00 9.0000000e+00 
4.8000002e+00 0.0000000e+00 9.0000000e+00 
1.2000000e+00 0.0000000e+00 1.2000000e+01 
2.4000001e+00 0.0000000e+00 1.2000000e+01 
3.5999999e+00 0.0000000e+00 1.2000000e+01 
4.8000002e+00 0.0000000e+00 1.2000000e+01 
1.2000000e+00 0.0000000e+00 1.5000000e+01 
2.4000001e+00 0.0000000e+00 1.5000000e+01 
3.5999999e+00 0.0000000e+00 1.5000000e+01 
4.8000002e+00 0.0000000e+00 1.5000000e+01 
1.2000000e+00 0.0000000e+00 1.8000000e+01 
2.4000001e+00 0.0000000e+00 1.8000000e+01 
3.5999999e+00 0.0000000e+00 1.8000000e+01 
4.8000002e+00 0.0000000e+00 1.8000000e+01 

CELLS 90 270
2 0 1
2 1 2
2 2 3
2 3 4
2 4 5
2 5 6
2 6 7
2 7 8
2 8 9
2 9 10
2 10 11
2 11 12
2 12 13
2 13 14
2 14 15
2 15 16
2 16 17
2 17 18
2 18 19
2 19 20
2 20 21
2 21 22
2 22 23
2 23 24
2 24 25
2 25 26
2 26 27
2 27 28
2 28 29
2 29 30
2 31 32
2 32 33
2 33 34
2 34 35
2 35 36
2 36 37
2 37 38
2 38 39
2 39 40
2 40 41
2 41 42
2 42 43
2 43 44
2 44 45
2 45 46
2 46 47
2 47 48
2 48 49
2 49 50
2 50 51
2 51 52
2 52 53
2 53 54
2 54 55
2 55 56
2 56 57
2 57 58
2 58 59
2 59 60
2 60 61
2 5 62
2 62 63
2 63 64
2 64 65
2 65 36
2 10 66
2 66 67
2 67 68
2 68 69
2 69 41
2 15 70
2 70 71
2 71 72
2 72 73
2 73 46
2 20 74
2 74 75
2 75 76
2 76 77
2 77 51
2 25 78
2 78 79
2 79 80
2 80 81
2 81 56
2 30 82
2 82 83
2 83 84
2 84 85
2 85 61

CELL_TYPES 90
3
3
3
3
3
3
3
3
3
3
3
3
3
3
3
3
3
3
3
3
3
3
3
3
3
3
3
3
3
3
3
3
3
3
3
3
3
3
3
3
3
3
3
3
3
3
3
3
3
3
3
3
3
3
3
3
3
3
3
3
3
3
3
3
3
3
3
3
3
3
3
3
3
3
3
3
3
3
3
3
3
3
3
3
3
3
3
3
3
3
POINT_DATA 86
FIELD FieldData 3
ADJOINT_DISPLACEMENT 3 86  float
0.0000000e+00 0.0000000e+00 0.0000000e+00 
-8.9322589e-02 0.0000000e+00 9.8018950e-17 
-1.7099643e-01 0.0000000e+00 1.9603790e-16 
-2.3737273e-01 0.0000000e+00 2.9405686e-16 
-2.8080273e-01 0.0000000e+00 3.9207580e-16 
-2.9363769e-01 0.0000000e+00 4.9009475e-16 
-2.8222039e-01 0.0000000e+00 2.0720542e-03 
-2.6113546e-01 0.0000000e+00 4.1441084e-03 
-2.3509683e-01 0.0000000e+00 6.2161628e-03 
-2.0881844e-01 0.0000000e+00 8.2882168e-03 
-1.8701424e-01 0.0000000e+00 1.0360271e-02 
-1.6304722e-01 0.0000000e+00 1.0789610e-02 
-1.3067123e-01 0.0000000e+00 1.1218950e-02 
-9.5186457e-02 0.0000000e+00 1.1648290e-02 
-6.1893068e-02 0.0000000e+00 1.2077630e-02 
-3.6091276e-02 0.0000000e+00 1.2506968e-02 
-1.8248701e-02 0.0000000e+00 1.2595924e-02 
-4.7871056e-03 0.0000000e+00 1.2684878e-02 
5.0621219e-03 0.0000000e+00 1.2773833e-02 
1.2067594e-02 0.0000000e+00 1.2862788e-02 
1.6997920e-02 0.0000000e+00 1.2951743e-02 
2.1067657e-02 0.0000000e+00 1.2970142e-02 
2.4958342e-02 0.0000000e+00 1.2988541e-02 
2.8639076e-02 0.0000000e+00 1.3006940e-02 
3.2078955e-02 0.0000000e+00 1.3025340e-02 
3.5247080e-02 0.0000000e+00 1.3043740e-02 
3.8246598e-02 0.0000000e+00 1.3047395e-02 
4.1197743e-02 0.0000000e+00 1.3051051e-02 
4.4095241e-02 0.0000000e+00 1.3054706e-02 
4.6933807e-02 0.0000000e+00 1.3058362e-02 
4.9708169e-02 0.0000000e+00 1.3062017e-02 
0.0000000e+00 0.0000000e+00 0.0000000e+00 
-3.5000660e-02 0.0000000e+00 -1.1457337e-16 
-7.7650085e-02 0.0000000e+00 -2.2884681e-16 
-1.3559704e-01 0.0000000e+00 -3.4435468e-16 
-2.1649027e-01 0.0000000e+00 -4.6055474e-16 
-3.2797855e-01 0.0000000e+00 -5.7361431e-16 
-5.0101608e-01 0.0000000e+00 -2.0720542e-03 
-7.5831521e-01 0.0000000e+00 -4.1441084e-03 
-4.9516198e-01 0.0000000e+00 -6.2161628e-03 
-3.0684245e-01 0.0000000e+00 -8.2882168e-03 
-1.8864270e-01 0.0000000e+00 -1.0360271e-02 
-1.1763082e-01 0.0000000e+00 -1.0789610e-02 
-7.0484154e-02 0.0000000e+00 -1.1218950e-02 
-4.1902505e-02 0.0000000e+00 -1.1648290e-02 
-2.6585680e-02 0.0000000e+00 -1.2077630e-02 
-1.9233488e-02 0.0000000e+00 -1.2506968e-02 
-1.3251374e-02 0.0000000e+00 -1.2595924e-02 
-6.0906513e-03 0.0000000e+00 -1.2684878e-02 
1.4800675e-03 0.0000000e+00 -1.2773833e-02 
8.6921714e-03 0.0000000e+00 -1.2862788e-02 
1.4777048e-02 0.0000000e+00 -1.2951743e-02 
1.9790143e-02 0.0000000e+00 -1.2970142e-02 
2.4319910e-02 0.0000000e+00 -1.2988541e-02 
2.8397249e-02 0.0000000e+00 -1.3006940e-02 
3.2053065e-02 0.0000000e+00 -1.3025340e-02 
3.5318259e-02 0.0000000e+00 -1.3043740e-02 
3.8355071e-02 0.0000000e+00 -1.3047395e-02 
4.1308653e-02 0.0000000e+00 -1.3051051e-02 
4.4184290e-02 0.0000000e+00 -1.3054706e-02 
4.6987258e-02 0.0000000e+00 -1.3058362e-02 
4.9722832e-02 0.0000000e+00 -1.3062017e-02 
-3.0050588e-01 0.0000000e+00 -4.7802888e-02 
-3.0737403e-01 0.0000000e+00 -1.3137949e-01 
-3.1424221e-01 0.0000000e+00 -1.9105466e-01 
-3.2111040e-01 0.0000000e+00 -1.6715321e-01 
-1.8733993e-01 0.0000000e+00 1.2278320e-02 
-1.8766561e-01 0.0000000e+00 5.8475472e-02 
-1.8799131e-01 0.0000000e+00 1.0164155e-01 
-1.8831700e-01 0.0000000e+00 9.4466358e-02 
-3.2719716e-02 0.0000000e+00 -1.4421030e-02 
-2.9348161e-02 0.0000000e+00 -2.0583341e-02 
-2.5976602e-02 0.0000000e+00 -1.5783047e-02 
-2.2605045e-02 0.0000000e+00 -9.8232292e-03 
1.6553747e-02 0.0000000e+00 6.6319322e-03 
1.6109571e-02 0.0000000e+00 2.9136729e-03 
1.5665397e-02 0.0000000e+00 -2.3502966e-04 
1.5221223e-02 0.0000000e+00 -4.8461701e-03 
3.5261314e-02 0.0000000e+00 7.4482118e-03 
3.5275552e-02 0.0000000e+00 2.4663238e-03 
3.5289787e-02 0.0000000e+00 -2.3265483e-03 
3.5304021e-02 0.0000000e+00 -7.3550278e-03 
4.9711101e-02 0.0000000e+00 7.7024437e-03 
4.9714036e-02 0.0000000e+00 2.5155323e-03 
4.9716968e-02 0.0000000e+00 -2.6039958e-03 
4.9719900e-02 0.0000000e+00 -7.7614193e-03 
ADJOINT_ROTATION 3 86  float
0.0000000e+00 -1.5099564e-01 0.0000000e+00 
0.0000000e+00 -1.4462167e-01 0.0000000e+00 
0.0000000e+00 -1.2549977e-01 0.0000000e+00 
0.0000000e+00 -9.3629919e-02 0.0000000e+00 
0.0000000e+00 -4.9012136e-02 0.0000000e+00 
0.0000000e+00 8.3535891e-03 0.0000000e+00 
0.0000000e+00 2.8394626e-02 0.0000000e+00 
0.0000000e+00 4.0579084e-02 0.0000000e+00 
0.0000000e+00 4.4906959e-02 0.0000000e+00 
0.0000000e+00 4.1378256e-02 0.0000000e+00 
0.0000000e+00 2.9992970e-02 0.0000000e+00 
0.0000000e+00 4.8424773e-02 0.0000000e+00 
0.0000000e+00 5.8022920e-02 0.0000000e+00 
0.0000000e+00 5.8787417e-02 0.0000000e+00 
0.0000000e+00 5.0718259e-02 0.0000000e+00 
0.0000000e+00 3.3815447e-02 0.0000000e+00 
0.0000000e+00 2.5873305e-02 0.0000000e+00 
0.0000000e+00 1.9212183e-02 0.0000000e+00 
0.0000000e+00 1.3832079e-02 0.0000000e+00 
0.0000000e+00 9.7329961e-03 0.0000000e+00 
0.0000000e+00 6.9149313e-03 0.0000000e+00 
0.0000000e+00 6.6422680e-03 0.0000000e+00 
0.0000000e+00 6.3181007e-03 0.0000000e+00 
0.0000000e+00 5.9424294e-03 0.0000000e+00 
0.0000000e+00 5.5152536e-03 0.0000000e+00 
0.0000000e+00 5.0365739e-03 0.0000000e+00 
0.0000000e+00 4.9603535e-03 0.0000000e+00 
0.0000000e+00 4.8753354e-03 0.0000000e+00 
0.0000000e+00 4.7815200e-03 0.0000000e+00 
0.0000000e+00 4.6789073e-03 0.0000000e+00 
0.0000000e+00 4.5674974e-03 0.0000000e+00 
0.0000000e+00 -5.6209777e-02 0.0000000e+00 
0.0000000e+00 -6.2583745e-02 0.0000000e+00 
0.0000000e+00 -8.1705652e-02 0.0000000e+00 
0.0000000e+00 -1.1357550e-01 0.0000000e+00 
0.0000000e+00 -1.5819329e-01 0.0000000e+00 
0.0000000e+00 -2.1555901e-01 0.0000000e+00 
0.0000000e+00 -3.5992330e-01 0.0000000e+00 
0.0000000e+00 -4.9643102e-01 0.0000000e+00 
0.0000000e+00 3.7491786e-01 0.0000000e+00 
0.0000000e+00 2.5412330e-01 0.0000000e+00 
0.0000000e+00 1.4118534e-01 0.0000000e+00 
0.0000000e+00 9.6993171e-02 0.0000000e+00 
0.0000000e+00 6.1634652e-02 0.0000000e+00 
0.0000000e+00 3.5109784e-02 0.0000000e+00 
0.0000000e+00 1.7418571e-02 0.0000000e+00 
0.0000000e+00 8.5610105e-03 0.0000000e+00 
0.0000000e+00 1.1165867e-02 0.0000000e+00 
0.0000000e+00 1.2489704e-02 0.0000000e+00 
0.0000000e+00 1.2532522e-02 0.0000000e+00 
0.0000000e+00 1.1294320e-02 0.0000000e+00 
0.0000000e+00 8.7751001e-03 0.0000000e+00 
0.0000000e+00 7.9437997e-03 0.0000000e+00 
0.0000000e+00 7.1640038e-03 0.0000000e+00 
0.0000000e+00 6.4357119e-03 0.0000000e+00 
0.0000000e+00 5.7589239e-03 0.0000000e+00 
0.0000000e+00 5.1336405e-03 0.0000000e+00 
0.0000000e+00 4.9905307e-03 0.0000000e+00 
0.0000000e+00 4.8562181e-03 0.0000000e+00 
0.0000000e+00 4.7307028e-03 0.0000000e+00 
0.0000000e+00 4.6139853e-03 0.0000000e+00 
0.0000000e+00 4.5060646e-03 0.0000000e+00 
0.0000000e+00 6.3029669e-02 0.0000000e+00 
0.0000000e+00 6.7976452e-02 0.0000000e+00 
0.0000000e+00 2.3193933e-02 0.0000000e+00 
0.0000000e+00 -7.1317889e-02 0.0000000e+00 
0.0000000e+00 -2.6618859e-02 0.0000000e+00 
0.0000000e+00 -4.3805536e-02 0.0000000e+00 
0.0000000e+00 -2.1567062e-02 0.0000000e+00 
0.0000000e+00 4.0096566e-02 0.0000000e+00 
0.0000000e+00 1.2426089e-02 0.0000000e+00 
0.0000000e+00 -7.9403195e-04 0.0000000e+00 
0.0000000e+00 -5.8449190e-03 0.0000000e+00 
0.0000000e+00 -2.7265716e-03 0.0000000e+00 
0.0000000e+00 3.9003075e-03 0.0000000e+00 
0.0000000e+00 2.5790127e-03 0.0000000e+00 
0.0000000e+00 2.9510465e-03 0.0000000e+00 
0.0000000e+00 5.0164089e-03 0.0000000e+00 
0.0000000e+00 4.3482808e-03 0.0000000e+00 
0.0000000e+00 4.0138410e-03 0.0000000e+00 
0.0000000e+00 4.0332545e-03 0.0000000e+00 
0.0000000e+00 4.4065206e-03 0.0000000e+00 
0.0000000e+00 4.3797465e-03 0.0000000e+00 
0.0000000e+00 4.2797276e-03 0.0000000e+00 
0.0000000e+00 4.2674411e-03 0.0000000e+00 
0.0000000e+00 4.3428866e-03 0.0000000e+00 
SHAPE_SENSITIVITY 3 86  float
0.0000000e+00 0.0000000e+00 0.0000000e+00 
0.0000000e+00 0.0000000e+00 0.0000000e+00 
0.0000000e+00 0.0000000e+00 0.0000000e+00 
0.0000000e+00 0.0000000e+00 0.0000000e+00 
0.0000000e+00 0.0000000e+00 0.0000000e+00 
0.0000000e+00 0.0000000e+00 0.0000000e+00 
0.0000000e+00 0.0000000e+00 0.0000000e+00 
0.0000000e+00 0.0000000e+00 0.0000000e+00 
0.0000000e+00 0.0000000e+00 0.0000000e+00 
0.0000000e+00 0.0000000e+00 0.0000000e+00 
0.0000000e+00 0.0000000e+00 0.0000000e+00 
0.0000000e+00 0.0000000e+00 0.0000000e+00 
0.0000000e+00 0.0000000e+00 0.0000000e+00 
0.0000000e+00 0.0000000e+00 0.0000000e+00 
0.0000000e+00 0.0000000e+00 0.0000000e+00 
0.0000000e+00 0.0000000e+00 0.0000000e+00 
0.0000000e+00 0.0000000e+00 0.0000000e+00 
0.0000000e+00 0.0000000e+00 0.0000000e+00 
0.0000000e+00 0.0000000e+00 0.0000000e+00 
0.0000000e+00 0.0000000e+00 0.0000000e+00 
0.0000000e+00 0.0000000e+00 0.0000000e+00 
0.0000000e+00 0.0000000e+00 0.0000000e+00 
0.0000000e+00 0.0000000e+00 0.0000000e+00 
0.0000000e+00 0.0000000e+00 0.0000000e+00 
0.0000000e+00 0.0000000e+00 0.0000000e+00 
0.0000000e+00 0.0000000e+00 0.0000000e+00 
0.0000000e+00 0.0000000e+00 0.0000000e+00 
0.0000000e+00 0.0000000e+00 0.0000000e+00 
0.0000000e+00 0.0000000e+00 0.0000000e+00 
0.0000000e+00 0.0000000e+00 0.0000000e+00 
0.0000000e+00 0.0000000e+00 0.0000000e+00 
0.0000000e+00 0.0000000e+00 0.0000000e+00 
0.0000000e+00 0.0000000e+00 0.0000000e+00 
0.0000000e+00 0.0000000e+00 0.0000000e+00 
0.0000000e+00 0.0000000e+00 0.0000000e+00 
0.0000000e+00 0.0000000e+00 0.0000000e+00 
0.0000000e+00 0.0000000e+00 0.0000000e+00 
0.0000000e+00 0.0000000e+00 0.0000000e+00 
0.0000000e+00 0.0000000e+00 0.0000000e+00 
0.0000000e+00 0.0000000e+00 0.0000000e+00 
0.0000000e+00 0.0000000e+00 0.0000000e+00 
0.0000000e+00 0.0000000e+00 0.0000000e+00 
0.0000000e+00 0.0000000e+00 0.0000000e+00 
0.0000000e+00 0.0000000e+00 0.0000000e+00 
0.0000000e+00 0.0000000e+00 0.0000000e+00 
0.0000000e+00 0.0000000e+00 0.0000000e+00 
0.0000000e+00 0.0000000e+00 0.0000000e+00 
0.0000000e+00 0.0000000e+00 0.0000000e+00 
0.0000000e+00 0.0000000e+00 0.0000000e+00 
0.0000000e+00 0.0000000e+00 0.0000000e+00 
0.0000000e+00 0.0000000e+00 0.0000000e+00 
0.0000000e+00 0.0000000e+00 0.0000000e+00 
0.0000000e+00 0.0000000e+00 0.0000000e+00 
0.0000000e+00 0.0000000e+00 0.0000000e+00 
0.0000000e+00 0.0000000e+00 0.0000000e+00 
0.0000000e+00 0.0000000e+00 0.0000000e+00 
0.0000000e+00 0.0000000e+00 0.0000000e+00 
0.0000000e+00 0.0000000e+00 0.0000000e+00 
0.0000000e+00 0.0000000e+00 0.0000000e+00 
0.0000000e+00 0.0000000e+00 0.0000000e+00 
0.0000000e+00 0.0000000e+00 0.0000000e+00 
0.0000000e+00 0.0000000e+00 0.0000000e+00 
0.0000000e+00 0.0000000e+00 0.0000000e+00 
0.0000000e+00 0.0000000e+00 0.0000000e+00 
0.0000000e+00 0.0000000e+00 0.0000000e+00 
0.0000000e+00 0.0000000e+00 0.0000000e+00 
0.0000000e+00 0.0000000e+00 0.0000000e+00 
0.0000000e+00 0.0000000e+00 0.0000000e+00 
0.0000000e+00 0.0000000e+00 0.0000000e+00 
0.0000000e+00 0.0000000e+00 0.0000000e+00 
0.0000000e+00 0.0000000e+00 0.0000000e+00 
0.0000000e+00 0.0000000e+00 0.0000000e+00 
0.0000000e+00 0.0000000e+00 0.0000000e+00 
0.0000000e+00 0.0000000e+00 0.0000000e+00 
0.0000000e+00 0.0000000e+00 0.0000000e+00 
0.0000000e+00 0.0000000e+00 0.0000000e+00 
0.0000000e+00 0.0000000e+00 0.0000000e+00 
0.0000000e+00 0.0000000e+00 0.0000000e+00 
0.0000000e+00 0.0000000e+00 0.0000000e+00 
0.0000000e+00 0.0000000e+00 0.0000000e+00 
0.0000000e+00 0.0000000e+00 0.0000000e+00 
0.0000000e+00 0.0000000e+00 0.0000000e+00 
0.0000000e+00 0.0000000e+00 0.0000000e+00 
0.0000000e+00 0.0000000e+00 0.0000000e+00 
0.0000000e+00 0.0000000e+00 0.0000000e+00 
0.0000000e+00 0.0000000e+00 0.0000000e+00 
CELL_DATA 90
FIELD FieldData 1
I22_SENSITIVITY 1 90  float
1.0708280e+00
7.4320536e+00
1.9950525e+01
3.8396790e+01
6.2541386e+01
-4.9244556e+00
-5.2173597e-01
6.0238284e-01
-1.4106476e+00
-6.4194541e+00
-4.5611811e+00
-8.4634769e-01
-5.1201072e-02
-2.0167344e+00
-6.5839610e+00
1.3614765e+00
3.2408965e-01
-3.6588427e-01
-7.3150754e-01
-7.9583669e-01
2.3540821e-02
1.8243979e-03
-2.5983619e-02
-5.8952764e-02
-9.6155673e-02
1.1790963e-03
-1.9917297e-03
-5.2864947e-03
-8.5464241e-03
-1.1611800e-02
-1.0708261e+00
-7.4320507e+00
-1.9950529e+01
-3.8396797e+01
-6.2541382e+01
3.4620071e+01
4.4824486e+00
-2.1630672e+01
-4.3860653e+01
-6.2348953e+01
1.0763065e+01
2.7977667e+00
-2.0932822e+00
-4.0690813e+00
-3.2886319e+00
-4.5557475e-01
-7.4675247e-02
-9.1609713e-03
-2.3597912e-01
-7.3206341e-01
7.3232166e-02
5.5262488e-03
-4.9462993e-02
-9.2666835e-02
-1.2501378e-01
2.3056127e-03
-3.0779780e-03
-7.0218700e-03
-9.6819513e-03
-1.1222262e-02
7.0088860e+01
5.6140175e+00
2.5591662e+00
6.0924305e+01
1.8070943e+02
-4.5247219e+01
-7.9505033e+00
-1.2759222e+00
-2.5223476e+01
-7.9793159e+01
-1.1959667e+01
-3.8254032e+00
-1.8734179e-01
-1.0454836e+00
-6.3998284e+00
-1.1524456e+00
-2.7313533e-01
-2.6355427e-02
-4.1210577e-01
-1.4303863e+00
-1.5029633e-01
-3.8900513e-02
-3.1519674e-03
-4.3050706e-02
-1.5859671e-01
-1.7320622e-02
-4.8562107e-03
-3.3078581e-04
-3.7443773e-03
-1.5096957e-02
