# vtk DataFile Version 4.0
vtk output
ASCII
DATASET UNSTRUCTURED_GRID
POINTS 30 float
0.0000000e+00 0.0000000e+00 0.0000000e+00 
0.0000000e+00 0.0000000e+00 8.0000001e-01 
0.0000000e+00 0.0000000e+00 1.6000000e+00 
0.0000000e+00 0.0000000e+00 2.4000001e+00 
0.0000000e+00 0.0000000e+00 3.2000000e+00 
0.0000000e+00 0.0000000e+00 4.0000000e+00 
0.0000000e+00 0.0000000e+00 4.8000002e+00 
0.0000000e+00 0.0000000e+00 5.5999999e+00 
0.0000000e+00 0.0000000e+00 6.4000001e+00 
0.0000000e+00 0.0000000e+00 7.1999998e+00 
0.0000000e+00 0.0000000e+00 8.0000000e+00 
1.0000000e+01 0.0000000e+00 0.0000000e+00 
1.0000000e+01 0.0000000e+00 8.0000001e-01 
1.0000000e+01 0.0000000e+00 1.6000000e+00 
1.0000000e+01 0.0000000e+00 2.4000001e+00 
1.0000000e+01 0.0000000e+00 3.2000000e+00 
1.0000000e+01 0.0000000e+00 4.0000000e+00 
1.0000000e+01 0.0000000e+00 4.8000002e+00 
1.0000000e+01 0.0000000e+00 5.5999999e+00 
1.0000000e+01 0.0000000e+00 6.4000001e+00 
1.0000000e+01 0.0000000e+00 7.1999998e+00 
1.0000000e+01 0.0000000e+00 8.0000000e+00 
2.0000000e+00 0.0000000e+00 4.0000000e+00 
4.0000000e+00 0.0000000e+00 4.0000000e+00 
6.0000000e+00 0.0000000e+00 4.0000000e+00 
8.0000000e+00 0.0000000e+00 4.0000000e+00 
2.0000000e+00 0.0000000e+00 8.0000000e+00 
4.0000000e+00 0.0000000e+00 8.0000000e+00 
6.0000000e+00 0.0000000e+00 8.0000000e+00 
8.0000000e+00 0.0000000e+00 8.0000000e+00 

CELLS 30 90
2 0 1
2 1 2
2 2 3
2 3 4
2 4 5
2 5 6
2 6 7
2 7 8
2 8 9
2 9 10
2 11 12
2 12 13
2 13 14
2 14 15
2 15 16
2 16 17
2 17 18
2 18 19
2 19 20
2 20 21
2 5 22
2 22 23
2 23 24
2 24 25
2 25 16
2 10 26
2 26 27
2 27 28
2 28 29
2 29 21

CELL_TYPES 30
3
3
3
3
3
3
3
3
3
3
3
3
3
3
3
3
3
3
3
3
3
3
3
3
3
3
3
3
3
3
POINT_DATA 30
FIELD FieldData 7
DISPLACEMENT 3 30  float
0.0000000e+00 0.0000000e+00 0.0000000e+00 
-2.2484607e-03 0.0000000e+00 -9.1544243e-06 
-4.4166083e-03 0.0000000e+00 -1.8308849e-05 
-6.4046690e-03 0.0000000e+00 -2.6864616e-05 
-8.0350200e-03 0.0000000e+00 -3.5420384e-05 
-9.1077713e-03 0.0000000e+00 -4.1673302e-05 
-9.7015612e-03 0.0000000e+00 -4.3622018e-05 
-1.0042668e-02 0.0000000e+00 -4.5570734e-05 
-1.0159013e-02 0.0000000e+00 -4.3937045e-05 
-1.0143232e-02 0.0000000e+00 -4.2303360e-05 
-1.0104137e-02 0.0000000e+00 -4.0669671e-05 
0.0000000e+00 0.0000000e+00 0.0000000e+00 
-2.3538689e-03 0.0000000e+00 8.6279164e-07 
-4.6201721e-03 0.0000000e+00 5.0592103e-06 
-6.6220085e-03 0.0000000e+00 6.2285621e-06 
-8.1693539e-03 0.0000000e+00 5.1224793e-06 
-9.1484254e-03 0.0000000e+00 4.5908814e-06 
-9.6983733e-03 0.0000000e+00 2.9998737e-06 
-9.9835712e-03 0.0000000e+00 -2.0976738e-06 
-1.0083035e-02 0.0000000e+00 -7.1952213e-06 
-1.0091187e-02 0.0000000e+00 -1.0823131e-05 
-1.0083934e-02 0.0000000e+00 -1.0695104e-05 
-9.1251628e-03 0.0000000e+00 5.7523296e-04 
-9.1354586e-03 0.0000000e+00 6.2917155e-05 
-9.1457535e-03 0.0000000e+00 -6.5069151e-04 
-9.1470899e-03 0.0000000e+00 -9.0266805e-04 
-1.0097761e-02 0.0000000e+00 8.8001907e-06 
-1.0097340e-02 0.0000000e+00 -1.6094756e-04 
-1.0090285e-02 0.0000000e+00 -1.5804163e-04 
-1.0083229e-02 0.0000000e+00 -4.1643299e-05 
ROTATION 3 30  float
0.0000000e+00 -2.8273074e-03 0.0000000e+00 
0.0000000e+00 -2.7771119e-03 0.0000000e+00 
0.0000000e+00 -2.6265257e-03 0.0000000e+00 
0.0000000e+00 -2.3025665e-03 0.0000000e+00 
0.0000000e+00 -1.7322529e-03 0.0000000e+00 
0.0000000e+00 -9.0505672e-04 0.0000000e+00 
0.0000000e+00 -5.8186386e-04 0.0000000e+00 
0.0000000e+00 -2.7334937e-04 0.0000000e+00 
0.0000000e+00 -4.0182556e-05 0.0000000e+00 
0.0000000e+00 5.6967125e-05 0.0000000e+00 
0.0000000e+00 1.8099678e-05 0.0000000e+00 
0.0000000e+00 -2.9559853e-03 0.0000000e+00 
0.0000000e+00 -2.9150378e-03 0.0000000e+00 
0.0000000e+00 -2.7095084e-03 0.0000000e+00 
0.0000000e+00 -2.2524518e-03 0.0000000e+00 
0.0000000e+00 -1.5901156e-03 0.0000000e+00 
0.0000000e+00 -8.6115056e-04 0.0000000e+00 
0.0000000e+00 -5.1255495e-04 0.0000000e+00 
0.0000000e+00 -2.2042739e-04 0.0000000e+00 
0.0000000e+00 -4.8217087e-05 0.0000000e+00 
0.0000000e+00 9.7412194e-06 0.0000000e+00 
0.0000000e+00 5.8779174e-06 0.0000000e+00 
0.0000000e+00 9.6792159e-05 0.0000000e+00 
0.0000000e+00 3.6100240e-04 0.0000000e+00 
0.0000000e+00 2.9808498e-04 0.0000000e+00 
0.0000000e+00 -1.0496450e-04 0.0000000e+00 
0.0000000e+00 2.3190871e-05 0.0000000e+00 
0.0000000e+00 6.9553673e-05 0.0000000e+00 
0.0000000e+00 -5.1142837e-05 0.0000000e+00 
0.0000000e+00 -4.3938715e-05 0.0000000e+00 
REACTION 3 30  float
4.9411157e+03 -0.0000000e+00 2.4030363e+04 
-3.4924597e-10 -0.0000000e+00 -0.0000000e+00 
3.6379788e-12 -0.0000000e+00 -7.2759576e-12 
1.1641532e-10 -0.0000000e+00 7.2759576e-12 
2.5811460e-09 -0.0000000e+00 -0.0000000e+00 
1.2878445e-09 -0.0000000e+00 8.0399332e-10 
-3.2596290e-09 -0.0000000e+00 -0.0000000e+00 
2.1464075e-10 -0.0000000e+00 -6.1845640e-11 
-7.8034645e-10 -0.0000000e+00 5.8207661e-11 
2.5465852e-10 -0.0000000e+00 -2.9103830e-11 
4.9840310e-10 -0.0000000e+00 2.0008883e-11 
4.0307815e+03 -0.0000000e+00 -2.2648279e+03 
-1.3824319e-10 -0.0000000e+00 -2.5465852e-11 
-1.8153514e-09 -0.0000000e+00 1.8189894e-12 
1.4588295e-09 -0.0000000e+00 -4.1836756e-11 
1.6625563e-09 -0.0000000e+00 1.5484147e-10 
5.0058588e-09 -0.0000000e+00 1.2951205e-09 
-1.0495569e-09 -0.0000000e+00 -1.8189894e-12 
-1.2059900e-09 -0.0000000e+00 -0.0000000e+00 
3.3378456e-10 -0.0000000e+00 8.6947693e-10 
-1.7007551e-10 -0.0000000e+00 -0.0000000e+00 
-2.7939677e-09 -0.0000000e+00 -3.3799097e-10 
-2.7648639e-10 -0.0000000e+00 -9.0585672e-10 
-1.8626451e-09 -0.0000000e+00 3.8198777e-11 
7.4214768e-10 -0.0000000e+00 1.6552804e-10 
-3.7252903e-09 -0.0000000e+00 4.1836756e-11 
1.5006663e-10 -0.0000000e+00 -1.6825652e-11 
-1.7025741e-09 -0.0000000e+00 -9.0949470e-13 
3.7252903e-09 -0.0000000e+00 -2.5784175e-10 
1.3824319e-09 -0.0000000e+00 -5.7980287e-12 
REACTION_MOMENT 3 30  float
-0.0000000e+00 -1.4551915e-10 -0.0000000e+00 
-0.0000000e+00 1.7462298e-10 -0.0000000e+00 
-0.0000000e+00 8.7311491e-10 -0.0000000e+00 
-0.0000000e+00 1.0186341e-09 -0.0000000e+00 
-0.0000000e+00 -2.2409949e-09 -0.0000000e+00 
-0.0000000e+00 -1.0913936e-11 -0.0000000e+00 
-0.0000000e+00 -3.4342520e-09 -0.0000000e+00 
-0.0000000e+00 -1.7826096e-10 -0.0000000e+00 
-0.0000000e+00 -2.9240255e-09 -0.0000000e+00 
-0.0000000e+00 -3.9108272e-11 -0.0000000e+00 
-0.0000000e+00 3.3196557e-10 -0.0000000e+00 
-0.0000000e+00 -8.7311491e-11 -0.0000000e+00 
-0.0000000e+00 -2.3283064e-10 -0.0000000e+00 
-0.0000000e+00 2.9103830e-11 -0.0000000e+00 
-0.0000000e+00 4.6566129e-10 -0.0000000e+00 
-0.0000000e+00 -5.0931703e-10 -0.0000000e+00 
-0.0000000e+00 1.4551915e-11 -0.0000000e+00 
-0.0000000e+00 6.9121597e-11 -0.0000000e+00 
-0.0000000e+00 -1.6862032e-09 -0.0000000e+00 
-0.0000000e+00 3.2196112e-10 -0.0000000e+00 
-0.0000000e+00 -8.3520035e-10 -0.0000000e+00 
-0.0000000e+00 -2.8933300e-11 -0.0000000e+00 
-0.0000000e+00 -1.1368684e-10 -0.0000000e+00 
-0.0000000e+00 9.8225428e-11 -0.0000000e+00 
-0.0000000e+00 3.7289283e-11 -0.0000000e+00 
-0.0000000e+00 4.1836756e-11 -0.0000000e+00 
-0.0000000e+00 -4.5474735e-12 -0.0000000e+00 
-0.0000000e+00 8.6401997e-12 -0.0000000e+00 
-0.0000000e+00 -1.1368684e-12 -0.0000000e+00 
-0.0000000e+00 -4.7748472e-12 -0.0000000e+00 
VOLUME_ACCELERATION 3 30  float
0.0000000e+00 0.0000000e+00 0.0000000e+00 
0.0000000e+00 0.0000000e+00 0.0000000e+00 
0.0000000e+00 0.0000000e+00 0.0000000e+00 
0.0000000e+00 0.0000000e+00 0.0000000e+00 
0.0000000e+00 0.0000000e+00 0.0000000e+00 
0.0000000e+00 0.0000000e+00 0.0000000e+00 
0.0000000e+00 0.0000000e+00 0.0000000e+00 
0.0000000e+00 0.0000000e+00 0.0000000e+00 
0.0000000e+00 0.0000000e+00 0.0000000e+00 
0.0000000e+00 0.0000000e+00 0.0000000e+00 
0.0000000e+00 0.0000000e+00 0.0000000e+00 
0.0000000e+00 0.0000000e+00 0.0000000e+00 
0.0000000e+00 0.0000000e+00 0.0000000e+00 
0.0000000e+00 0.0000000e+00 0.0000000e+00 
0.0000000e+00 0.0000000e+00 0.0000000e+00 
0.0000000e+00 0.0000000e+00 0.0000000e+00 
0.0000000e+00 0.0000000e+00 0.0000000e+00 
0.0000000e+00 0.0000000e+00 0.0000000e+00 
0.0000000e+00 0.0000000e+00 0.0000000e+00 
0.0000000e+00 0.0000000e+00 0.0000000e+00 
0.0000000e+00 0.0000000e+00 0.0000000e+00 
0.0000000e+00 0.0000000e+00 0.0000000e+00 
0.0000000e+00 0.0000000e+00 0.0000000e+00 
0.0000000e+00 0.0000000e+00 0.0000000e+00 
0.0000000e+00 0.0000000e+00 0.0000000e+00 
0.0000000e+00 0.0000000e+00 0.0000000e+00 
0.0000000e+00 0.0000000e+00 0.0000000e+00 
0.0000000e+00 0.0000000e+00 0.0000000e+00 
0.0000000e+00 0.0000000e+00 0.0000000e+00 
0.0000000e+00 0.0000000e+00 0.0000000e+00 
POINT_LOAD 3 30  float
0.0000000e+00 0.0000000e+00 0.0000000e+00 
0.0000000e+00 0.0000000e+00 0.0000000e+00 
7.1841470e+03 0.0000000e+00 -1.5714736e+03 
0.0000000e+00 0.0000000e+00 0.0000000e+00 
1.0363464e+03 0.0000000e+00 -6.0449858e+03 
4.3773057e+03 0.0000000e+00 -2.2568452e+03 
0.0000000e+00 0.0000000e+00 0.0000000e+00 
-5.9721465e+03 0.0000000e+00 -9.4038105e+03 
0.0000000e+00 0.0000000e+00 0.0000000e+00 
0.0000000e+00 0.0000000e+00 0.0000000e+00 
0.0000000e+00 0.0000000e+00 0.0000000e+00 
0.0000000e+00 0.0000000e+00 0.0000000e+00 
8.1394570e+03 0.0000000e+00 -8.7507705e+03 
4.1921710e+02 0.0000000e+00 7.9460503e+03 
-4.9716772e+03 0.0000000e+00 5.9730161e+03 
-8.6767939e+03 0.0000000e+00 -1.5080225e+03 
0.0000000e+00 0.0000000e+00 0.0000000e+00 
-6.2457778e+03 0.0000000e+00 9.2046670e+03 
0.0000000e+00 0.0000000e+00 0.0000000e+00 
5.5767169e+02 0.0000000e+00 -3.8578003e+03 
4.6034448e+03 0.0000000e+00 -9.8593330e+03 
0.0000000e+00 0.0000000e+00 0.0000000e+00 
-7.4512583e+03 0.0000000e+00 -6.4655483e+03 
0.0000000e+00 0.0000000e+00 0.0000000e+00 
-9.4074863e+03 0.0000000e+00 2.0482022e+02 
0.0000000e+00 0.0000000e+00 0.0000000e+00 
6.2528325e+03 0.0000000e+00 7.9268311e+03 
-6.9666250e+03 0.0000000e+00 -4.6456191e+03 
0.0000000e+00 0.0000000e+00 0.0000000e+00 
8.1494458e+03 0.0000000e+00 1.3432878e+03 
POINT_MOMENT 3 30  float
0.0000000e+00 0.0000000e+00 0.0000000e+00 
0.0000000e+00 0.0000000e+00 0.0000000e+00 
0.0000000e+00 0.0000000e+00 0.0000000e+00 
0.0000000e+00 0.0000000e+00 0.0000000e+00 
0.0000000e+00 0.0000000e+00 0.0000000e+00 
0.0000000e+00 0.0000000e+00 0.0000000e+00 
0.0000000e+00 0.0000000e+00 0.0000000e+00 
0.0000000e+00 0.0000000e+00 0.0000000e+00 
0.0000000e+00 0.0000000e+00 0.0000000e+00 
0.0000000e+00 0.0000000e+00 0.0000000e+00 
0.0000000e+00 0.0000000e+00 0.0000000e+00 
0.0000000e+00 0.0000000e+00 0.0000000e+00 
0.0000000e+00 0.0000000e+00 0.0000000e+00 
0.0000000e+00 0.0000000e+00 0.0000000e+00 
0.0000000e+00 0.0000000e+00 0.0000000e+00 
0.0000000e+00 0.0000000e+00 0.0000000e+00 
0.0000000e+00 0.0000000e+00 0.0000000e+00 
0.0000000e+00 0.0000000e+00 0.0000000e+00 
0.0000000e+00 0.0000000e+00 0.0000000e+00 
0.0000000e+00 0.0000000e+00 0.0000000e+00 
0.0000000e+00 0.0000000e+00 0.0000000e+00 
0.0000000e+00 0.0000000e+00 0.0000000e+00 
0.0000000e+00 0.0000000e+00 0.0000000e+00 
0.0000000e+00 0.0000000e+00 0.0000000e+00 
0.0000000e+00 0.0000000e+00 0.0000000e+00 
0.0000000e+00 0.0000000e+00 0.0000000e+00 
0.0000000e+00 0.0000000e+00 0.0000000e+00 
0.0000000e+00 0.0000000e+00 0.0000000e+00 
0.0000000e+00 0.0000000e+00 0.0000000e+00 
0.0000000e+00 0.0000000e+00 0.0000000e+00 
CELL_DATA 30
FIELD FieldData 9
YOUNG_MODULUS 1 30  float
2.1000000e+11
2.1000000e+11
2.1000000e+11
2.1000000e+11
2.1000000e+11
2.1000000e+11
2.1000000e+11
2.1000000e+11
2.1000000e+11
2.1000000e+11
2.1000000e+11
2.1000000e+11
2.1000000e+11
2.1000000e+11
2.1000000e+11
2.1000000e+11
2.1000000e+11
2.1000000e+11
2.1000000e+11
2.1000000e+11
2.1000000e+11
2.1000000e+11
2.1000000e+11
2.1000000e+11
2.1000000e+11
2.1000000e+11
2.1000000e+11
2.1000000e+11
2.1000000e+11
2.1000000e+11
DENSITY 1 30  float
7.8500000e+03
7.8500000e+03
7.8500000e+03
7.8500000e+03
7.8500000e+03
7.8500000e+03
7.8500000e+03
7.8500000e+03
7.8500000e+03
7.8500000e+03
7.8500000e+03
7.8500000e+03
7.8500000e+03
7.8500000e+03
7.8500000e+03
7.8500000e+03
7.8500000e+03
7.8500000e+03
7.8500000e+03
7.8500000e+03
7.8500000e+03
7.8500000e+03
7.8500000e+03
7.8500000e+03
7.8500000e+03
7.8500000e+03
7.8500000e+03
7.8500000e+03
7.8500000e+03
7.8500000e+03
CROSS_AREA 1 30  float
9.9999998e-03
9.9999998e-03
9.9999998e-03
9.9999998e-03
9.9999998e-03
9.9999998e-03
9.9999998e-03
9.9999998e-03
9.9999998e-03
9.9999998e-03
9.9999998e-03
9.9999998e-03
9.9999998e-03
9.9999998e-03
9.9999998e-03
9.9999998e-03
9.9999998e-03
9.9999998e-03
9.9999998e-03
9.9999998e-03
9.9999998e-03
9.9999998e-03
9.9999998e-03
9.9999998e-03
9.9999998e-03
9.9999998e-03
9.9999998e-03
9.9999998e-03
9.9999998e-03
9.9999998e-03
I22 1 30  float
1.5000001e-04
1.5000001e-04
1.5000001e-04
1.5000001e-04
1.5000001e-04
1.5000001e-04
1.5000001e-04
1.5000001e-04
1.5000001e-04
1.5000001e-04
1.5000001e-04
1.5000001e-04
1.5000001e-04
1.5000001e-04
1.5000001e-04
1.5000001e-04
1.5000001e-04
1.5000001e-04
1.5000001e-04
1.5000001e-04
1.5000001e-04
1.5000001e-04
1.5000001e-04
1.5000001e-04
1.5000001e-04
1.5000001e-04
1.5000001e-04
1.5000001e-04
1.5000001e-04
1.5000001e-04
I33 1 30  float
1.5000001e-04
1.5000001e-04
1.5000001e-04
1.5000001e-04
1.5000001e-04
1.5000001e-04
1.5000001e-04
1.5000001e-04
1.5000001e-04
1.5000001e-04
1.5000001e-04
1.5000001e-04
1.5000001e-04
1.5000001e-04
1.5000001e-04
1.5000001e-04
1.5000001e-04
1.5000001e-04
1.5000001e-04
1.5000001e-04
1.5000001e-04
1.5000001e-04
1.5000001e-04
1.5000001e-04
1.5000001e-04
1.5000001e-04
1.5000001e-04
1.5000001e-04
1.5000001e-04
1.5000001e-04
TORSIONAL_INERTIA 1 30  float
3.0000001e-04
3.0000001e-04
3.0000001e-04
3.0000001e-04
3.0000001e-04
3.0000001e-04
3.0000001e-04
3.0000001e-04
3.0000001e-04
3.0000001e-04
3.0000001e-04
3.0000001e-04
3.0000001e-04
3.0000001e-04
3.0000001e-04
3.0000001e-04
3.0000001e-04
3.0000001e-04
3.0000001e-04
3.0000001e-04
3.0000001e-04
3.0000001e-04
3.0000001e-04
3.0000001e-04
3.0000001e-04
3.0000001e-04
3.0000001e-04
3.0000001e-04
3.0000001e-04
3.0000001e-04
POISSON_RATIO 1 30  float
3.0000001e-01
3.0000001e-01
3.0000001e-01
3.0000001e-01
3.0000001e-01
3.0000001e-01
3.0000001e-01
3.0000001e-01
3.0000001e-01
3.0000001e-01
3.0000001e-01
3.0000001e-01
3.0000001e-01
3.0000001e-01
3.0000001e-01
3.0000001e-01
3.0000001e-01
3.0000001e-01
3.0000001e-01
3.0000001e-01
3.0000001e-01
3.0000001e-01
3.0000001e-01
3.0000001e-01
3.0000001e-01
3.0000001e-01
3.0000001e-01
3.0000001e-01
3.0000001e-01
3.0000001e-01
MOMENT 3 30  float
0.0000000e+00 1.9764464e+03 0.0000000e+00 
0.0000000e+00 5.9293389e+03 0.0000000e+00 
0.0000000e+00 1.2755891e+04 0.0000000e+00 
0.0000000e+00 2.2456102e+04 0.0000000e+00 
0.0000000e+00 3.2570850e+04 0.0000000e+00 
0.0000000e+00 1.2725717e+04 0.0000000e+00 
0.0000000e+00 1.2147759e+04 0.0000000e+00 
0.0000000e+00 9.1809434e+03 0.0000000e+00 
0.0000000e+00 3.8252688e+03 0.0000000e+00 
0.0000000e+00 -1.5304058e+03 0.0000000e+00 
0.0000000e+00 1.6123125e+03 0.0000000e+00 
0.0000000e+00 8.0927207e+03 0.0000000e+00 
0.0000000e+00 1.7996598e+04 0.0000000e+00 
0.0000000e+00 2.6079492e+04 0.0000000e+00 
0.0000000e+00 2.8702998e+04 0.0000000e+00 
0.0000000e+00 1.3725952e+04 0.0000000e+00 
0.0000000e+00 1.1502521e+04 0.0000000e+00 
0.0000000e+00 6.7807808e+03 0.0000000e+00 
0.0000000e+00 2.2821084e+03 0.0000000e+00 
0.0000000e+00 -1.5211752e+02 0.0000000e+00 
0.0000000e+00 1.5779119e+04 0.0000000e+00 
0.0000000e+00 4.1613110e+03 0.0000000e+00 
0.0000000e+00 -9.9094904e+02 0.0000000e+00 
0.0000000e+00 -6.3480293e+03 0.0000000e+00 
0.0000000e+00 -1.1909930e+04 0.0000000e+00 
0.0000000e+00 8.0186317e+01 0.0000000e+00 
0.0000000e+00 7.3021411e+02 0.0000000e+00 
0.0000000e+00 -1.9009700e+03 0.0000000e+00 
0.0000000e+00 1.1346492e+02 0.0000000e+00 
0.0000000e+00 7.8461194e+02 0.0000000e+00 
FORCE 3 30  float
-2.4030363e+04 0.0000000e+00 4.9411157e+03 
-2.4030363e+04 0.0000000e+00 4.9411157e+03 
-2.2458891e+04 0.0000000e+00 1.2125263e+04 
-2.2458891e+04 0.0000000e+00 1.2125263e+04 
-1.6413904e+04 0.0000000e+00 1.3161609e+04 
-5.1153809e+03 0.0000000e+00 -7.2244690e+02 
-5.1153809e+03 0.0000000e+00 -7.2244690e+02 
4.2884292e+03 0.0000000e+00 -6.6945933e+03 
4.2884292e+03 0.0000000e+00 -6.6945933e+03 
4.2884292e+03 0.0000000e+00 -6.6945933e+03 
2.2648279e+03 0.0000000e+00 4.0307815e+03 
1.1015599e+04 0.0000000e+00 1.2170238e+04 
3.0695486e+03 0.0000000e+00 1.2589456e+04 
-2.9034673e+03 0.0000000e+00 7.6177788e+03 
-1.3954448e+03 0.0000000e+00 -1.0590150e+03 
-4.1763950e+03 0.0000000e+00 3.4360153e+02 
-1.3381062e+04 0.0000000e+00 -5.9021763e+03 
-1.3381062e+04 0.0000000e+00 -5.9021763e+03 
-9.5232617e+03 0.0000000e+00 -5.3445049e+03 
3.3607043e+02 0.0000000e+00 -7.4106006e+02 
-1.8261361e+04 0.0000000e+00 -9.0416777e+03 
-1.0810104e+04 0.0000000e+00 -2.5761301e+03 
-1.0810104e+04 0.0000000e+00 -2.5761301e+03 
-1.4026166e+03 0.0000000e+00 -2.7809502e+03 
-1.4026166e+03 0.0000000e+00 -2.7809502e+03 
6.6945933e+03 0.0000000e+00 4.2884292e+03 
4.4176056e+02 0.0000000e+00 -3.6384016e+03 
7.4083857e+03 0.0000000e+00 1.0072175e+03 
7.4083857e+03 0.0000000e+00 1.0072175e+03 
-7.4106006e+02 0.0000000e+00 -3.3607043e+02 
