# vtk DataFile Version 4.0
vtk output
ASCII
DATASET UNSTRUCTURED_GRID
POINTS 30 float
0.0000000e+00 0.0000000e+00 0.0000000e+00 
0.0000000e+00 0.0000000e+00 8.0000001e-01 
0.0000000e+00 0.0000000e+00 1.6000000e+00 
0.0000000e+00 0.0000000e+00 2.4000001e+00 
0.0000000e+00 0.0000000e+00 3.2000000e+00 
0.0000000e+00 0.0000000e+00 4.0000000e+00 
0.0000000e+00 0.0000000e+00 4.8000002e+00 
0.0000000e+00 0.0000000e+00 5.5999999e+00 
0.0000000e+00 0.0000000e+00 6.4000001e+00 
0.0000000e+00 0.0000000e+00 7.1999998e+00 
0.0000000e+00 0.0000000e+00 8.0000000e+00 
1.0000000e+01 0.0000000e+00 0.0000000e+00 
1.0000000e+01 0.0000000e+00 8.0000001e-01 
1.0000000e+01 0.0000000e+00 1.6000000e+00 
1.0000000e+01 0.0000000e+00 2.4000001e+00 
1.0000000e+01 0.0000000e+00 3.2000000e+00 
1.0000000e+01 0.0000000e+00 4.0000000e+00 
1.0000000e+01 0.0000000e+00 4.8000002e+00 
1.0000000e+01 0.0000000e+00 5.5999999e+00 
1.0000000e+01 0.0000000e+00 6.4000001e+00 
1.0000000e+01 0.0000000e+00 7.1999998e+00 
1.0000000e+01 0.0000000e+00 8.0000000e+00 
2.0000000e+00 0.0000000e+00 4.0000000e+00 
4.0000000e+00 0.0000000e+00 4.0000000e+00 
6.0000000e+00 0.0000000e+00 4.0000000e+00 
8.0000000e+00 0.0000000e+00 4.0000000e+00 
2.0000000e+00 0.0000000e+00 8.0000000e+00 
4.0000000e+00 0.0000000e+00 8.0000000e+00 
6.0000000e+00 0.0000000e+00 8.0000000e+00 
8.0000000e+00 0.0000000e+00 8.0000000e+00 

CELLS 30 90
2 0 1
2 1 2
2 2 3
2 3 4
2 4 5
2 5 6
2 6 7
2 7 8
2 8 9
2 9 10
2 11 12
2 12 13
2 13 14
2 14 15
2 15 16
2 16 17
2 17 18
2 18 19
2 19 20
2 20 21
2 5 22
2 22 23
2 23 24
2 24 25
2 25 16
2 10 26
2 26 27
2 27 28
2 28 29
2 29 21

CELL_TYPES 30
3
3
3
3
3
3
3
3
3
3
3
3
3
3
3
3
3
3
3
3
3
3
3
3
3
3
3
3
3
3
POINT_DATA 30
FIELD FieldData 3
ADJOINT_DISPLACEMENT 3 30  float
0.0000000e+00 0.0000000e+00 0.0000000e+00 
-6.1164619e-03 0.0000000e+00 1.0970661e-17 
-3.3802751e-02 0.0000000e+00 2.1941321e-17 
-1.0462870e-01 0.0000000e+00 3.2911985e-17 
-2.4016412e-01 0.0000000e+00 4.3882643e-17 
-4.6197885e-01 0.0000000e+00 5.4853304e-17 
-1.9328211e-02 0.0000000e+00 1.6358282e-04 
2.7303955e-01 0.0000000e+00 3.2716565e-04 
4.4531515e-01 0.0000000e+00 4.9074850e-04 
5.2768934e-01 0.0000000e+00 6.5433129e-04 
5.5035287e-01 0.0000000e+00 8.1791414e-04 
0.0000000e+00 0.0000000e+00 0.0000000e+00 
-1.7564224e-01 0.0000000e+00 3.3660659e-17 
-3.2971466e-01 0.0000000e+00 6.7711635e-17 
-4.4064739e-01 0.0000000e+00 1.0317527e-16 
-4.8687068e-01 0.0000000e+00 1.3862998e-16 
-4.4681463e-01 0.0000000e+00 1.6981000e-16 
-3.1484607e-01 0.0000000e+00 -1.6358282e-04 
-1.1983878e-01 0.0000000e+00 -3.2716565e-04 
1.0801648e-01 0.0000000e+00 -4.9074850e-04 
3.3852896e-01 0.0000000e+00 -6.5433129e-04 
5.4150796e-01 0.0000000e+00 -8.1791414e-04 
-4.5894602e-01 0.0000000e+00 4.7158518e-01 
-4.5591316e-01 0.0000000e+00 5.9832257e-01 
-4.5288032e-01 0.0000000e+00 4.8926735e-01 
-4.4984746e-01 0.0000000e+00 2.5347474e-01 
5.4858392e-01 0.0000000e+00 6.7712419e-02 
5.4681492e-01 0.0000000e+00 2.1005130e-01 
5.4504591e-01 0.0000000e+00 3.1877935e-01 
5.4327697e-01 0.0000000e+00 2.8484136e-01 
ADJOINT_ROTATION 3 30  float
0.0000000e+00 -3.1518631e-03 0.0000000e+00 
0.0000000e+00 -1.6633006e-02 0.0000000e+00 
0.0000000e+00 -5.7076432e-02 0.0000000e+00 
0.0000000e+00 -1.2448214e-01 0.0000000e+00 
0.0000000e+00 -2.1885014e-01 0.0000000e+00 
0.0000000e+00 -3.4018043e-01 0.0000000e+00 
0.0000000e+00 4.5309678e-01 0.0000000e+00 
0.0000000e+00 2.8411236e-01 0.0000000e+00 
0.0000000e+00 1.5286639e-01 0.0000000e+00 
0.0000000e+00 5.9358846e-02 0.0000000e+00 
0.0000000e+00 3.5897142e-03 0.0000000e+00 
0.0000000e+00 -2.2404651e-01 0.0000000e+00 
0.0000000e+00 -2.1056537e-01 0.0000000e+00 
0.0000000e+00 -1.7012194e-01 0.0000000e+00 
0.0000000e+00 -1.0271623e-01 0.0000000e+00 
0.0000000e+00 -8.3482340e-03 0.0000000e+00 
0.0000000e+00 1.1298204e-01 0.0000000e+00 
0.0000000e+00 2.1064964e-01 0.0000000e+00 
0.0000000e+00 2.7057883e-01 0.0000000e+00 
0.0000000e+00 2.9276958e-01 0.0000000e+00 
0.0000000e+00 2.7722192e-01 0.0000000e+00 
0.0000000e+00 2.2393583e-01 0.0000000e+00 
0.0000000e+00 -1.4049271e-01 0.0000000e+00 
0.0000000e+00 4.6673957e-03 0.0000000e+00 
0.0000000e+00 9.5299885e-02 0.0000000e+00 
0.0000000e+00 1.3140477e-01 0.0000000e+00 
0.0000000e+00 -6.1396282e-02 0.0000000e+00 
0.0000000e+00 -7.1854673e-02 0.0000000e+00 
0.0000000e+00 -2.7785448e-02 0.0000000e+00 
0.0000000e+00 7.0811383e-02 0.0000000e+00 
SHAPE_SENSITIVITY 3 30  float
0.0000000e+00 0.0000000e+00 0.0000000e+00 
0.0000000e+00 0.0000000e+00 0.0000000e+00 
0.0000000e+00 0.0000000e+00 0.0000000e+00 
0.0000000e+00 0.0000000e+00 0.0000000e+00 
0.0000000e+00 0.0000000e+00 0.0000000e+00 
0.0000000e+00 0.0000000e+00 0.0000000e+00 
0.0000000e+00 0.0000000e+00 0.0000000e+00 
0.0000000e+00 0.0000000e+00 0.0000000e+00 
0.0000000e+00 0.0000000e+00 0.0000000e+00 
0.0000000e+00 0.0000000e+00 0.0000000e+00 
0.0000000e+00 0.0000000e+00 0.0000000e+00 
0.0000000e+00 0.0000000e+00 0.0000000e+00 
0.0000000e+00 0.0000000e+00 0.0000000e+00 
0.0000000e+00 0.0000000e+00 0.0000000e+00 
0.0000000e+00 0.0000000e+00 0.0000000e+00 
0.0000000e+00 0.0000000e+00 0.0000000e+00 
0.0000000e+00 0.0000000e+00 0.0000000e+00 
0.0000000e+00 0.0000000e+00 0.0000000e+00 
0.0000000e+00 0.0000000e+00 0.0000000e+00 
0.0000000e+00 0.0000000e+00 0.0000000e+00 
0.0000000e+00 0.0000000e+00 0.0000000e+00 
0.0000000e+00 0.0000000e+00 0.0000000e+00 
0.0000000e+00 0.0000000e+00 0.0000000e+00 
0.0000000e+00 0.0000000e+00 0.0000000e+00 
0.0000000e+00 0.0000000e+00 0.0000000e+00 
0.0000000e+00 0.0000000e+00 0.0000000e+00 
0.0000000e+00 0.0000000e+00 0.0000000e+00 
0.0000000e+00 0.0000000e+00 0.0000000e+00 
0.0000000e+00 0.0000000e+00 0.0000000e+00 
0.0000000e+00 0.0000000e+00 0.0000000e+00 
CELL_DATA 30
FIELD FieldData 1
I22_SENSITIVITY 1 30  float
-2.3247052e+05
-1.6272936e+06
-3.5345970e+06
-5.5478800e+06
-8.4543810e+06
1.8306498e+07
7.6902650e+06
3.3416084e+05
-3.7618108e+06
-4.5722395e+06
-1.5368822e+05
-1.0758175e+06
-1.7828590e+06
-1.1375954e+06
1.3829495e+06
4.9711100e+06
1.9139942e+06
5.1062222e+05
4.4704428e+05
2.0181545e+06
1.8321502e+07
-6.3647805e+06
-7.0904580e+06
-1.8454881e+06
-5.4196319e+05
-4.4163760e+06
-1.3147377e+05
-2.4005992e+06
-3.1496695e+06
1.4020779e+06
