# vtk DataFile Version 4.0
vtk output
ASCII
DATASET UNSTRUCTURED_GRID
POINTS 176 float
0.0000000e+00 0.0000000e+00 0.0000000e+00 
0.0000000e+00 0.0000000e+00 3.0000001e-01 
0.0000000e+00 0.0000000e+00 6.0000002e-01 
0.0000000e+00 0.0000000e+00 8.9999998e-01 
0.0000000e+00 0.0000000e+00 1.2000000e+00 
0.0000000e+00 0.0000000e+00 1.5000000e+00 
0.0000000e+00 0.0000000e+00 1.8000000e+00 
0.0000000e+00 0.0000000e+00 2.0999999e+00 
0.0000000e+00 0.0000000e+00 2.4000001e+00 
0.0000000e+00 0.0000000e+00 2.7000000e+00 
0.0000000e+00 0.0000000e+00 3.0000000e+00 
0.0000000e+00 0.0000000e+00 3.3000000e+00 
0.0000000e+00 0.0000000e+00 3.5999999e+00 
0.0000000e+00 0.0000000e+00 3.9000001e+00 
0.0000000e+00 0.0000000e+00 4.1999998e+00 
0.0000000e+00 0.0000000e+00 4.5000000e+00 
0.0000000e+00 0.0000000e+00 4.8000002e+00 
0.0000000e+00 0.0000000e+00 5.0999999e+00 
0.0000000e+00 0.0000000e+00 5.4000001e+00 
0.0000000e+00 0.0000000e+00 5.6999998e+00 
0.0000000e+00 0.0000000e+00 6.0000000e+00 
0.0000000e+00 0.0000000e+00 6.3000002e+00 
0.0000000e+00 0.0000000e+00 6.5999999e+00 
0.0000000e+00 0.0000000e+00 6.9000001e+00 
0.0000000e+00 0.0000000e+00 7.1999998e+00 
0.0000000e+00 0.0000000e+00 7.5000000e+00 
0.0000000e+00 0.0000000e+00 7.8000002e+00 
0.0000000e+00 0.0000000e+00 8.1000004e+00 
0.0000000e+00 0.0000000e+00 8.3999996e+00 
0.0000000e+00 0.0000000e+00 8.6999998e+00 
0.0000000e+00 0.0000000e+00 9.0000000e+00 
0.0000000e+00 0.0000000e+00 9.3000002e+00 
0.0000000e+00 0.0000000e+00 9.6000004e+00 
0.0000000e+00 0.0000000e+00 9.8999996e+00 
0.0000000e+00 0.0000000e+00 1.0200000e+01 
0.0000000e+00 0.0000000e+00 1.0500000e+01 
0.0000000e+00 0.0000000e+00 1.0800000e+01 
0.0000000e+00 0.0000000e+00 1.1100000e+01 
0.0000000e+00 0.0000000e+00 1.1400000e+01 
0.0000000e+00 0.0000000e+00 1.1700000e+01 
0.0000000e+00 0.0000000e+00 1.2000000e+01 
0.0000000e+00 0.0000000e+00 1.2300000e+01 
0.0000000e+00 0.0000000e+00 1.2600000e+01 
0.0000000e+00 0.0000000e+00 1.2900000e+01 
0.0000000e+00 0.0000000e+00 1.3200000e+01 
0.0000000e+00 0.0000000e+00 1.3500000e+01 
0.0000000e+00 0.0000000e+00 1.3800000e+01 
0.0000000e+00 0.0000000e+00 1.4100000e+01 
0.0000000e+00 0.0000000e+00 1.4400000e+01 
0.0000000e+00 0.0000000e+00 1.4700000e+01 
0.0000000e+00 0.0000000e+00 1.5000000e+01 
0.0000000e+00 0.0000000e+00 1.5300000e+01 
0.0000000e+00 0.0000000e+00 1.5600000e+01 
0.0000000e+00 0.0000000e+00 1.5900000e+01 
0.0000000e+00 0.0000000e+00 1.6200001e+01 
0.0000000e+00 0.0000000e+00 1.6500000e+01 
0.0000000e+00 0.0000000e+00 1.6799999e+01 
0.0000000e+00 0.0000000e+00 1.7100000e+01 
0.0000000e+00 0.0000000e+00 1.7400000e+01 
0.0000000e+00 0.0000000e+00 1.7700001e+01 
0.0000000e+00 0.0000000e+00 1.8000000e+01 
6.0000000e+00 0.0000000e+00 0.0000000e+00 
6.0000000e+00 0.0000000e+00 3.0000001e-01 
6.0000000e+00 0.0000000e+00 6.0000002e-01 
6.0000000e+00 0.0000000e+00 8.9999998e-01 
6.0000000e+00 0.0000000e+00 1.2000000e+00 
6.0000000e+00 0.0000000e+00 1.5000000e+00 
6.0000000e+00 0.0000000e+00 1.8000000e+00 
6.0000000e+00 0.0000000e+00 2.0999999e+00 
6.0000000e+00 0.0000000e+00 2.4000001e+00 
6.0000000e+00 0.0000000e+00 2.7000000e+00 
6.0000000e+00 0.0000000e+00 3.0000000e+00 
6.0000000e+00 0.0000000e+00 3.3000000e+00 
6.0000000e+00 0.0000000e+00 3.5999999e+00 
6.0000000e+00 0.0000000e+00 3.9000001e+00 
6.0000000e+00 0.0000000e+00 4.1999998e+00 
6.0000000e+00 0.0000000e+00 4.5000000e+00 
6.0000000e+00 0.0000000e+00 4.8000002e+00 
6.0000000e+00 0.0000000e+00 5.0999999e+00 
6.0000000e+00 0.0000000e+00 5.4000001e+00 
6.0000000e+00 0.0000000e+00 5.6999998e+00 
6.0000000e+00 0.0000000e+00 6.0000000e+00 
6.0000000e+00 0.0000000e+00 6.3000002e+00 
6.0000000e+00 0.0000000e+00 6.5999999e+00 
6.0000000e+00 0.0000000e+00 6.9000001e+00 
6.0000000e+00 0.0000000e+00 7.1999998e+00 
6.0000000e+00 0.0000000e+00 7.5000000e+00 
6.0000000e+00 0.0000000e+00 7.8000002e+00 
6.0000000e+00 0.0000000e+00 8.1000004e+00 
6.0000000e+00 0.0000000e+00 8.3999996e+00 
6.0000000e+00 0.0000000e+00 8.6999998e+00 
6.0000000e+00 0.0000000e+00 9.0000000e+00 
6.0000000e+00 0.0000000e+00 9.3000002e+00 
6.0000000e+00 0.0000000e+00 9.6000004e+00 
6.0000000e+00 0.0000000e+00 9.8999996e+00 
6.0000000e+00 0.0000000e+00 1.0200000e+01 
6.0000000e+00 0.0000000e+00 1.0500000e+01 
6.0000000e+00 0.0000000e+00 1.0800000e+01 
6.0000000e+00 0.0000000e+00 1.1100000e+01 
6.0000000e+00 0.0000000e+00 1.1400000e+01 
6.0000000e+00 0.0000000e+00 1.1700000e+01 
6.0000000e+00 0.0000000e+00 1.2000000e+01 
6.0000000e+00 0.0000000e+00 1.2300000e+01 
6.0000000e+00 0.0000000e+00 1.2600000e+01 
6.0000000e+00 0.0000000e+00 1.2900000e+01 
6.0000000e+00 0.0000000e+00 1.3200000e+01 
6.0000000e+00 0.0000000e+00 1.3500000e+01 
6.0000000e+00 0.0000000e+00 1.3800000e+01 
6.0000000e+00 0.0000000e+00 1.4100000e+01 
6.0000000e+00 0.0000000e+00 1.4400000e+01 
6.0000000e+00 0.0000000e+00 1.4700000e+01 
6.0000000e+00 0.0000000e+00 1.5000000e+01 
6.0000000e+00 0.0000000e+00 1.5300000e+01 
6.0000000e+00 0.0000000e+00 1.5600000e+01 
6.0000000e+00 0.0000000e+00 1.5900000e+01 
6.0000000e+00 0.0000000e+00 1.6200001e+01 
6.0000000e+00 0.0000000e+00 1.6500000e+01 
6.0000000e+00 0.0000000e+00 1.6799999e+01 
6.0000000e+00 0.0000000e+00 1.7100000e+01 
6.0000000e+00 0.0000000e+00 1.7400000e+01 
6.0000000e+00 0.0000000e+00 1.7700001e+01 
6.0000000e+00 0.0000000e+00 1.8000000e+01 
6.0000002e-01 0.0000000e+00 3.0000000e+00 
1.2000000e+00 0.0000000e+00 3.0000000e+00 
1.8000000e+00 0.0000000e+00 3.0000000e+00 
2.4000001e+00 0.0000000e+00 3.0000000e+00 
3.0000000e+00 0.0000000e+00 3.0000000e+00 
3.5999999e+00 0.0000000e+00 3.0000000e+00 
4.1999998e+00 0.0000000e+00 3.0000000e+00 
4.8000002e+00 0.0000000e+00 3.0000000e+00 
5.4000001e+00 0.0000000e+00 3.0000000e+00 
6.0000002e-01 0.0000000e+00 6.0000000e+00 
1.2000000e+00 0.0000000e+00 6.0000000e+00 
1.8000000e+00 0.0000000e+00 6.0000000e+00 
2.4000001e+00 0.0000000e+00 6.0000000e+00 
3.0000000e+00 0.0000000e+00 6.0000000e+00 
3.5999999e+00 0.0000000e+00 6.0000000e+00 
4.1999998e+00 0.0000000e+00 6.0000000e+00 
4.8000002e+00 0.0000000e+00 6.0000000e+00 
5.4000001e+00 0.0000000e+00 6.0000000e+00 
6.0000002e-01 0.0000000e+00 9.0000000e+00 
1.2000000e+00 0.0000000e+00 9.0000000e+00 
1.8000000e+00 0.0000000e+00 9.0000000e+00 
2.4000001e+00 0.0000000e+00 9.0000000e+00 
3.0000000e+00 0.0000000e+00 9.0000000e+00 
3.5999999e+00 0.0000000e+00 9.0000000e+00 
4.1999998e+00 0.0000000e+00 9.0000000e+00 
4.8000002e+00 0.0000000e+00 9.0000000e+00 
5.4000001e+00 0.0000000e+00 9.0000000e+00 
6.0000002e-01 0.0000000e+00 1.2000000e+01 
1.2000000e+00 0.0000000e+00 1.2000000e+01 
1.8000000e+00 0.0000000e+00 1.2000000e+01 
2.4000001e+00 0.0000000e+00 1.2000000e+01 
3.0000000e+00 0.0000000e+00 1.2000000e+01 
3.5999999e+00 0.0000000e+00 1.2000000e+01 
4.1999998e+00 0.0000000e+00 1.2000000e+01 
4.8000002e+00 0.0000000e+00 1.2000000e+01 
5.4000001e+00 0.0000000e+00 1.2000000e+01 
6.0000002e-01 0.0000000e+00 1.5000000e+01 
1.2000000e+00 0.0000000e+00 1.5000000e+01 
1.8000000e+00 0.0000000e+00 1.5000000e+01 
2.4000001e+00 0.0000000e+00 1.5000000e+01 
3.0000000e+00 0.0000000e+00 1.5000000e+01 
3.5999999e+00 0.0000000e+00 1.5000000e+01 
4.1999998e+00 0.0000000e+00 1.5000000e+01 
4.8000002e+00 0.0000000e+00 1.5000000e+01 
5.4000001e+00 0.0000000e+00 1.5000000e+01 
6.0000002e-01 0.0000000e+00 1.8000000e+01 
1.2000000e+00 0.0000000e+00 1.8000000e+01 
1.8000000e+00 0.0000000e+00 1.8000000e+01 
2.4000001e+00 0.0000000e+00 1.8000000e+01 
3.0000000e+00 0.0000000e+00 1.8000000e+01 
3.5999999e+00 0.0000000e+00 1.8000000e+01 
4.1999998e+00 0.0000000e+00 1.8000000e+01 
4.8000002e+00 0.0000000e+00 1.8000000e+01 
5.4000001e+00 0.0000000e+00 1.8000000e+01 

CELLS 180 540
2 0 1
2 1 2
2 2 3
2 3 4
2 4 5
2 5 6
2 6 7
2 7 8
2 8 9
2 9 10
2 10 11
2 11 12
2 12 13
2 13 14
2 14 15
2 15 16
2 16 17
2 17 18
2 18 19
2 19 20
2 20 21
2 21 22
2 22 23
2 23 24
2 24 25
2 25 26
2 26 27
2 27 28
2 28 29
2 29 30
2 30 31
2 31 32
2 32 33
2 33 34
2 34 35
2 35 36
2 36 37
2 37 38
2 38 39
2 39 40
2 40 41
2 41 42
2 42 43
2 43 44
2 44 45
2 45 46
2 46 47
2 47 48
2 48 49
2 49 50
2 50 51
2 51 52
2 52 53
2 53 54
2 54 55
2 55 56
2 56 57
2 57 58
2 58 59
2 59 60
2 61 62
2 62 63
2 63 64
2 64 65
2 65 66
2 66 67
2 67 68
2 68 69
2 69 70
2 70 71
2 71 72
2 72 73
2 73 74
2 74 75
2 75 76
2 76 77
2 77 78
2 78 79
2 79 80
2 80 81
2 81 82
2 82 83
2 83 84
2 84 85
2 85 86
2 86 87
2 87 88
2 88 89
2 89 90
2 90 91
2 91 92
2 92 93
2 93 94
2 94 95
2 95 96
2 96 97
2 97 98
2 98 99
2 99 100
2 100 101
2 101 102
2 102 103
2 103 104
2 104 105
2 105 106
2 106 107
2 107 108
2 108 109
2 109 110
2 110 111
2 111 112
2 112 113
2 113 114
2 114 115
2 115 116
2 116 117
2 117 118
2 118 119
2 119 120
2 120 121
2 10 122
2 122 123
2 123 124
2 124 125
2 125 126
2 126 127
2 127 128
2 128 129
2 129 130
2 130 71
2 20 131
2 131 132
2 132 133
2 133 134
2 134 135
2 135 136
2 136 137
2 137 138
2 138 139
2 139 81
2 30 140
2 140 141
2 141 142
2 142 143
2 143 144
2 144 145
2 145 146
2 146 147
2 147 148
2 148 91
2 40 149
2 149 150
2 150 151
2 151 152
2 152 153
2 153 154
2 154 155
2 155 156
2 156 157
2 157 101
2 50 158
2 158 159
2 159 160
2 160 161
2 161 162
2 162 163
2 163 164
2 164 165
2 165 166
2 166 111
2 60 167
2 167 168
2 168 169
2 169 170
2 170 171
2 171 172
2 172 173
2 173 174
2 174 175
2 175 121

CELL_TYPES 180
3
3
3
3
3
3
3
3
3
3
3
3
3
3
3
3
3
3
3
3
3
3
3
3
3
3
3
3
3
3
3
3
3
3
3
3
3
3
3
3
3
3
3
3
3
3
3
3
3
3
3
3
3
3
3
3
3
3
3
3
3
3
3
3
3
3
3
3
3
3
3
3
3
3
3
3
3
3
3
3
3
3
3
3
3
3
3
3
3
3
3
3
3
3
3
3
3
3
3
3
3
3
3
3
3
3
3
3
3
3
3
3
3
3
3
3
3
3
3
3
3
3
3
3
3
3
3
3
3
3
3
3
3
3
3
3
3
3
3
3
3
3
3
3
3
3
3
3
3
3
3
3
3
3
3
3
3
3
3
3
3
3
3
3
3
3
3
3
3
3
3
3
3
3
3
3
3
3
3
3
POINT_DATA 176
FIELD FieldData 3
ADJOINT_DISPLACEMENT 3 176  float
0.0000000e+00 0.0000000e+00 0.0000000e+00 
-2.9734336e-05 0.0000000e+00 1.3205002e-14 
-6.0515475e-05 0.0000000e+00 2.6410004e-14 
-9.3390212e-05 0.0000000e+00 3.9615006e-14 
-1.2940535e-04 0.0000000e+00 5.2820009e-14 
-1.6960769e-04 0.0000000e+00 6.6025012e-14 
-2.1504406e-04 0.0000000e+00 7.9230012e-14 
-2.6676120e-04 0.0000000e+00 9.2435011e-14 
-3.2580597e-04 0.0000000e+00 1.0564002e-13 
-3.9322514e-04 0.0000000e+00 1.1884502e-13 
-4.7006554e-04 0.0000000e+00 1.3205002e-13 
-5.6076382e-04 0.0000000e+00 1.4073069e-13 
-6.6693634e-04 0.0000000e+00 1.4941234e-13 
-7.8539929e-04 0.0000000e+00 1.5809416e-13 
-9.1296883e-04 0.0000000e+00 1.6677610e-13 
-1.0464613e-03 0.0000000e+00 1.7545812e-13 
-1.1826927e-03 0.0000000e+00 1.8414022e-13 
-1.3184794e-03 0.0000000e+00 1.9282231e-13 
-1.4506377e-03 0.0000000e+00 2.0150437e-13 
-1.5759836e-03 0.0000000e+00 2.1018641e-13 
-1.6913335e-03 0.0000000e+00 2.1886848e-13 
-1.7964309e-03 0.0000000e+00 2.2466675e-13 
-1.8808717e-03 0.0000000e+00 2.3046392e-13 
-1.9262502e-03 0.0000000e+00 2.3626061e-13 
-1.9141604e-03 0.0000000e+00 2.4205727e-13 
-1.8261967e-03 0.0000000e+00 2.4785412e-13 
-1.6439531e-03 0.0000000e+00 2.5365091e-13 
-1.3490240e-03 0.0000000e+00 2.5944771e-13 
-9.2300348e-04 0.0000000e+00 2.6524456e-13 
-3.4748588e-04 0.0000000e+00 2.7104141e-13 
3.9593471e-04 0.0000000e+00 2.7683807e-13 
1.3667454e-03 0.0000000e+00 2.7993894e-13 
2.6220581e-03 0.0000000e+00 2.8304092e-13 
4.1767149e-03 0.0000000e+00 2.8614809e-13 
6.0455585e-03 0.0000000e+00 2.8925335e-13 
8.2434304e-03 0.0000000e+00 2.9235856e-13 
1.0785175e-02 0.0000000e+00 2.9546282e-13 
1.3685632e-02 0.0000000e+00 2.9856719e-13 
1.6959645e-02 0.0000000e+00 3.0167148e-13 
2.0622058e-02 0.0000000e+00 3.0477557e-13 
2.4687711e-02 0.0000000e+00 3.0787973e-13 
2.9348027e-02 0.0000000e+00 3.0783123e-13 
3.4646299e-02 0.0000000e+00 3.0782657e-13 
4.0375184e-02 0.0000000e+00 3.0785688e-13 
4.6327334e-02 0.0000000e+00 3.0788227e-13 
5.2295402e-02 0.0000000e+00 3.0791222e-13 
5.8072038e-02 0.0000000e+00 3.0795012e-13 
6.3449897e-02 0.0000000e+00 3.0798912e-13 
6.8221636e-02 0.0000000e+00 3.0802918e-13 
7.2179899e-02 0.0000000e+00 3.0807046e-13 
7.5117350e-02 0.0000000e+00 3.0810952e-13 
7.6831847e-02 0.0000000e+00 3.0636054e-13 
7.6670580e-02 0.0000000e+00 3.0462219e-13 
7.3750123e-02 0.0000000e+00 3.0282677e-13 
6.7187093e-02 0.0000000e+00 3.0103922e-13 
5.6098074e-02 0.0000000e+00 2.9924530e-13 
3.9599668e-02 0.0000000e+00 2.9744981e-13 
1.6808469e-02 0.0000000e+00 2.9567576e-13 
-1.3158923e-02 0.0000000e+00 2.9389067e-13 
-5.1185913e-02 0.0000000e+00 2.9211396e-13 
-9.8155908e-02 0.0000000e+00 2.9033866e-13 
0.0000000e+00 0.0000000e+00 0.0000000e+00 
2.9734336e-05 0.0000000e+00 -1.5228167e-14 
6.0515475e-05 0.0000000e+00 -3.0456347e-14 
9.3390212e-05 0.0000000e+00 -4.5684505e-14 
1.2940535e-04 0.0000000e+00 -6.0912640e-14 
1.6960769e-04 0.0000000e+00 -7.6140828e-14 
2.1504406e-04 0.0000000e+00 -9.1369037e-14 
2.6676120e-04 0.0000000e+00 -1.0659723e-13 
3.2580597e-04 0.0000000e+00 -1.2182541e-13 
3.9322514e-04 0.0000000e+00 -1.3705360e-13 
4.7006554e-04 0.0000000e+00 -1.5228178e-13 
5.6076382e-04 0.0000000e+00 -1.6298790e-13 
6.6693634e-04 0.0000000e+00 -1.7369404e-13 
7.8539929e-04 0.0000000e+00 -1.8440018e-13 
9.1296883e-04 0.0000000e+00 -1.9510633e-13 
1.0464613e-03 0.0000000e+00 -2.0581251e-13 
1.1826927e-03 0.0000000e+00 -2.1651867e-13 
1.3184794e-03 0.0000000e+00 -2.2722487e-13 
1.4506377e-03 0.0000000e+00 -2.3793107e-13 
1.5759836e-03 0.0000000e+00 -2.4863732e-13 
1.6913335e-03 0.0000000e+00 -2.5934354e-13 
1.7964309e-03 0.0000000e+00 -2.6716823e-13 
1.8808717e-03 0.0000000e+00 -2.7499303e-13 
1.9262502e-03 0.0000000e+00 -2.8281774e-13 
1.9141604e-03 0.0000000e+00 -2.9064243e-13 
1.8261967e-03 0.0000000e+00 -2.9846709e-13 
1.6439531e-03 0.0000000e+00 -3.0629175e-13 
1.3490240e-03 0.0000000e+00 -3.1411638e-13 
9.2300348e-04 0.0000000e+00 -3.2194101e-13 
3.4748588e-04 0.0000000e+00 -3.2976565e-13 
-3.9593471e-04 0.0000000e+00 -3.3759031e-13 
-1.3667454e-03 0.0000000e+00 -3.4271780e-13 
-2.6220581e-03 0.0000000e+00 -3.4784518e-13 
-4.1767149e-03 0.0000000e+00 -3.5297251e-13 
-6.0455585e-03 0.0000000e+00 -3.5809954e-13 
-8.2434304e-03 0.0000000e+00 -3.6322651e-13 
-1.0785175e-02 0.0000000e+00 -3.6835319e-13 
-1.3685632e-02 0.0000000e+00 -3.7347997e-13 
-1.6959645e-02 0.0000000e+00 -3.7860665e-13 
-2.0622058e-02 0.0000000e+00 -3.8373344e-13 
-2.4687711e-02 0.0000000e+00 -3.8886022e-13 
-2.9348027e-02 0.0000000e+00 -3.9102242e-13 
-3.4646299e-02 0.0000000e+00 -3.9318551e-13 
-4.0375184e-02 0.0000000e+00 -3.9534768e-13 
-4.6327334e-02 0.0000000e+00 -3.9751053e-13 
-5.2295402e-02 0.0000000e+00 -3.9967457e-13 
-5.8072038e-02 0.0000000e+00 -4.0184110e-13 
-6.3449897e-02 0.0000000e+00 -4.0400436e-13 
-6.8221636e-02 0.0000000e+00 -4.0616889e-13 
-7.2179899e-02 0.0000000e+00 -4.0833263e-13 
-7.5117350e-02 0.0000000e+00 -4.1049583e-13 
-7.6831847e-02 0.0000000e+00 -4.1051556e-13 
-7.6670580e-02 0.0000000e+00 -4.1051640e-13 
-7.3750123e-02 0.0000000e+00 -4.1052995e-13 
-6.7187093e-02 0.0000000e+00 -4.1055172e-13 
-5.6098074e-02 0.0000000e+00 -4.1057357e-13 
-3.9599668e-02 0.0000000e+00 -4.1059259e-13 
-1.6808469e-02 0.0000000e+00 -4.1061428e-13 
1.3158923e-02 0.0000000e+00 -4.1063184e-13 
5.1185913e-02 0.0000000e+00 -4.1063772e-13 
9.8155908e-02 0.0000000e+00 -4.1064361e-13 
-3.7605243e-04 0.0000000e+00 1.4741987e-04 
-2.8203931e-04 0.0000000e+00 2.6207976e-04 
-1.8802621e-04 0.0000000e+00 3.4397969e-04 
-9.4013107e-05 0.0000000e+00 3.9311964e-04 
3.5745826e-13 0.0000000e+00 4.0949963e-04 
9.4013107e-05 0.0000000e+00 3.9311964e-04 
1.8802621e-04 0.0000000e+00 3.4397969e-04 
2.8203931e-04 0.0000000e+00 2.6207976e-04 
3.7605243e-04 0.0000000e+00 1.4741987e-04 
-1.3530668e-03 0.0000000e+00 1.9672292e-04 
-1.0148000e-03 0.0000000e+00 3.4972964e-04 
-6.7653338e-04 0.0000000e+00 4.5902017e-04 
-3.3826669e-04 0.0000000e+00 5.2459445e-04 
6.7914327e-13 0.0000000e+00 5.4645259e-04 
3.3826669e-04 0.0000000e+00 5.2459445e-04 
6.7653338e-04 0.0000000e+00 4.5902017e-04 
1.0148000e-03 0.0000000e+00 3.4972964e-04 
1.3530668e-03 0.0000000e+00 1.9672292e-04 
3.1674776e-04 0.0000000e+00 -1.5003132e-03 
2.3756082e-04 0.0000000e+00 -2.6672233e-03 
1.5837388e-04 0.0000000e+00 -3.5007307e-03 
7.9186939e-05 0.0000000e+00 -4.0008351e-03 
1.0563628e-12 0.0000000e+00 -4.1675367e-03 
-7.9186939e-05 0.0000000e+00 -4.0008351e-03 
-1.5837388e-04 0.0000000e+00 -3.5007307e-03 
-2.3756082e-04 0.0000000e+00 -2.6672233e-03 
-3.1674776e-04 0.0000000e+00 -1.5003132e-03 
1.9750169e-02 0.0000000e+00 -7.6899976e-03 
1.4812626e-02 0.0000000e+00 -1.3671107e-02 
9.8750843e-03 0.0000000e+00 -1.7943328e-02 
4.9375421e-03 0.0000000e+00 -2.0506660e-02 
1.4928754e-12 0.0000000e+00 -2.1361103e-02 
-4.9375421e-03 0.0000000e+00 -2.0506660e-02 
-9.8750843e-03 0.0000000e+00 -1.7943328e-02 
-1.4812626e-02 0.0000000e+00 -1.3671107e-02 
-1.9750169e-02 0.0000000e+00 -7.6899976e-03 
6.0093880e-02 0.0000000e+00 -4.2442614e-03 
4.5070410e-02 0.0000000e+00 -7.5453538e-03 
3.0046940e-02 0.0000000e+00 -9.9032773e-03 
1.5023470e-02 0.0000000e+00 -1.1318031e-02 
1.9618209e-12 0.0000000e+00 -1.1789615e-02 
-1.5023470e-02 0.0000000e+00 -1.1318031e-02 
-3.0046940e-02 0.0000000e+00 -9.9032773e-03 
-4.5070410e-02 0.0000000e+00 -7.5453538e-03 
-6.0093880e-02 0.0000000e+00 -4.2442614e-03 
-7.8524724e-02 0.0000000e+00 1.2312473e-01 
-5.8893543e-02 0.0000000e+00 2.8555506e-01 
-3.9262362e-02 0.0000000e+00 4.8729104e-01 
-1.9631181e-02 0.0000000e+00 7.2833258e-01 
2.3556812e-12 0.0000000e+00 1.0086797e+00 
1.9631181e-02 0.0000000e+00 7.2833258e-01 
3.9262362e-02 0.0000000e+00 4.8729104e-01 
5.8893543e-02 0.0000000e+00 2.8555506e-01 
7.8524724e-02 0.0000000e+00 1.2312473e-01 
ADJOINT_ROTATION 3 176  float
0.0000000e+00 -9.8532895e-05 0.0000000e+00 
0.0000000e+00 -1.0027757e-04 0.0000000e+00 
0.0000000e+00 -1.0551157e-04 0.0000000e+00 
0.0000000e+00 -1.1423491e-04 0.0000000e+00 
0.0000000e+00 -1.2644759e-04 0.0000000e+00 
0.0000000e+00 -1.4214961e-04 0.0000000e+00 
0.0000000e+00 -1.6134095e-04 0.0000000e+00 
0.0000000e+00 -1.8402166e-04 0.0000000e+00 
0.0000000e+00 -2.1019168e-04 0.0000000e+00 
0.0000000e+00 -2.3985104e-04 0.0000000e+00 
0.0000000e+00 -2.7299975e-04 0.0000000e+00 
0.0000000e+00 -3.2988677e-04 0.0000000e+00 
0.0000000e+00 -3.7616116e-04 0.0000000e+00 
0.0000000e+00 -4.1182293e-04 0.0000000e+00 
0.0000000e+00 -4.3687207e-04 0.0000000e+00 
0.0000000e+00 -4.5130859e-04 0.0000000e+00 
0.0000000e+00 -4.5513248e-04 0.0000000e+00 
0.0000000e+00 -4.4834372e-04 0.0000000e+00 
0.0000000e+00 -4.3094234e-04 0.0000000e+00 
0.0000000e+00 -4.0292836e-04 0.0000000e+00 
0.0000000e+00 -3.6430173e-04 0.0000000e+00 
0.0000000e+00 -3.2612262e-04 0.0000000e+00 
0.0000000e+00 -2.2659090e-04 0.0000000e+00 
0.0000000e+00 -6.5706532e-05 0.0000000e+00 
0.0000000e+00 1.5653046e-04 0.0000000e+00 
0.0000000e+00 4.4012009e-04 0.0000000e+00 
0.0000000e+00 7.8506232e-04 0.0000000e+00 
0.0000000e+00 1.1913573e-03 0.0000000e+00 
0.0000000e+00 1.6590047e-03 0.0000000e+00 
0.0000000e+00 2.1880050e-03 0.0000000e+00 
0.0000000e+00 2.7783576e-03 0.0000000e+00 
0.0000000e+00 3.7019600e-03 0.0000000e+00 
0.0000000e+00 4.6750368e-03 0.0000000e+00 
0.0000000e+00 5.6975880e-03 0.0000000e+00 
0.0000000e+00 6.7696138e-03 0.0000000e+00 
0.0000000e+00 7.8911148e-03 0.0000000e+00 
0.0000000e+00 9.0620900e-03 0.0000000e+00 
0.0000000e+00 1.0282539e-02 0.0000000e+00 
0.0000000e+00 1.1552463e-02 0.0000000e+00 
0.0000000e+00 1.2871862e-02 0.0000000e+00 
0.0000000e+00 1.4240736e-02 0.0000000e+00 
0.0000000e+00 1.6712843e-02 0.0000000e+00 
0.0000000e+00 1.8493792e-02 0.0000000e+00 
0.0000000e+00 1.9583585e-02 0.0000000e+00 
0.0000000e+00 1.9982221e-02 0.0000000e+00 
0.0000000e+00 1.9689700e-02 0.0000000e+00 
0.0000000e+00 1.8706022e-02 0.0000000e+00 
0.0000000e+00 1.7031187e-02 0.0000000e+00 
0.0000000e+00 1.4665196e-02 0.0000000e+00 
0.0000000e+00 1.1608048e-02 0.0000000e+00 
0.0000000e+00 7.8597441e-03 0.0000000e+00 
0.0000000e+00 3.0794968e-03 0.0000000e+00 
0.0000000e+00 -4.6454272e-03 0.0000000e+00 
0.0000000e+00 -1.5315029e-02 0.0000000e+00 
0.0000000e+00 -2.8929308e-02 0.0000000e+00 
0.0000000e+00 -4.5488264e-02 0.0000000e+00 
0.0000000e+00 -6.4991899e-02 0.0000000e+00 
0.0000000e+00 -8.7440208e-02 0.0000000e+00 
0.0000000e+00 -1.1283319e-01 0.0000000e+00 
0.0000000e+00 -1.4117086e-01 0.0000000e+00 
0.0000000e+00 -1.7245319e-01 0.0000000e+00 
0.0000000e+00 9.8532895e-05 0.0000000e+00 
0.0000000e+00 1.0027757e-04 0.0000000e+00 
0.0000000e+00 1.0551157e-04 0.0000000e+00 
0.0000000e+00 1.1423491e-04 0.0000000e+00 
0.0000000e+00 1.2644759e-04 0.0000000e+00 
0.0000000e+00 1.4214961e-04 0.0000000e+00 
0.0000000e+00 1.6134095e-04 0.0000000e+00 
0.0000000e+00 1.8402166e-04 0.0000000e+00 
0.0000000e+00 2.1019168e-04 0.0000000e+00 
0.0000000e+00 2.3985104e-04 0.0000000e+00 
0.0000000e+00 2.7299975e-04 0.0000000e+00 
0.0000000e+00 3.2988677e-04 0.0000000e+00 
0.0000000e+00 3.7616116e-04 0.0000000e+00 
0.0000000e+00 4.1182293e-04 0.0000000e+00 
0.0000000e+00 4.3687207e-04 0.0000000e+00 
0.0000000e+00 4.5130859e-04 0.0000000e+00 
0.0000000e+00 4.5513248e-04 0.0000000e+00 
0.0000000e+00 4.4834372e-04 0.0000000e+00 
0.0000000e+00 4.3094234e-04 0.0000000e+00 
0.0000000e+00 4.0292836e-04 0.0000000e+00 
0.0000000e+00 3.6430173e-04 0.0000000e+00 
0.0000000e+00 3.2612262e-04 0.0000000e+00 
0.0000000e+00 2.2659090e-04 0.0000000e+00 
0.0000000e+00 6.5706532e-05 0.0000000e+00 
0.0000000e+00 -1.5653046e-04 0.0000000e+00 
0.0000000e+00 -4.4012009e-04 0.0000000e+00 
0.0000000e+00 -7.8506232e-04 0.0000000e+00 
0.0000000e+00 -1.1913573e-03 0.0000000e+00 
0.0000000e+00 -1.6590047e-03 0.0000000e+00 
0.0000000e+00 -2.1880048e-03 0.0000000e+00 
0.0000000e+00 -2.7783576e-03 0.0000000e+00 
0.0000000e+00 -3.7019600e-03 0.0000000e+00 
0.0000000e+00 -4.6750368e-03 0.0000000e+00 
0.0000000e+00 -5.6975880e-03 0.0000000e+00 
0.0000000e+00 -6.7696138e-03 0.0000000e+00 
0.0000000e+00 -7.8911148e-03 0.0000000e+00 
0.0000000e+00 -9.0620900e-03 0.0000000e+00 
0.0000000e+00 -1.0282539e-02 0.0000000e+00 
0.0000000e+00 -1.1552463e-02 0.0000000e+00 
0.0000000e+00 -1.2871862e-02 0.0000000e+00 
0.0000000e+00 -1.4240736e-02 0.0000000e+00 
0.0000000e+00 -1.6712843e-02 0.0000000e+00 
0.0000000e+00 -1.8493792e-02 0.0000000e+00 
0.0000000e+00 -1.9583585e-02 0.0000000e+00 
0.0000000e+00 -1.9982221e-02 0.0000000e+00 
0.0000000e+00 -1.9689700e-02 0.0000000e+00 
0.0000000e+00 -1.8706022e-02 0.0000000e+00 
0.0000000e+00 -1.7031187e-02 0.0000000e+00 
0.0000000e+00 -1.4665196e-02 0.0000000e+00 
0.0000000e+00 -1.1608048e-02 0.0000000e+00 
0.0000000e+00 -7.8597441e-03 0.0000000e+00 
0.0000000e+00 -3.0794968e-03 0.0000000e+00 
0.0000000e+00 4.6454272e-03 0.0000000e+00 
0.0000000e+00 1.5315029e-02 0.0000000e+00 
0.0000000e+00 2.8929308e-02 0.0000000e+00 
0.0000000e+00 4.5488264e-02 0.0000000e+00 
0.0000000e+00 6.4991899e-02 0.0000000e+00 
0.0000000e+00 8.7440208e-02 0.0000000e+00 
0.0000000e+00 1.1283319e-01 0.0000000e+00 
0.0000000e+00 1.4117086e-01 0.0000000e+00 
0.0000000e+00 1.7245319e-01 0.0000000e+00 
0.0000000e+00 -2.1839980e-04 0.0000000e+00 
0.0000000e+00 -1.6379985e-04 0.0000000e+00 
0.0000000e+00 -1.0919990e-04 0.0000000e+00 
0.0000000e+00 -5.4599950e-05 0.0000000e+00 
0.0000000e+00 2.4779137e-14 0.0000000e+00 
0.0000000e+00 5.4599950e-05 0.0000000e+00 
0.0000000e+00 1.0919990e-04 0.0000000e+00 
0.0000000e+00 1.6379985e-04 0.0000000e+00 
0.0000000e+00 2.1839980e-04 0.0000000e+00 
0.0000000e+00 -2.9144136e-04 0.0000000e+00 
0.0000000e+00 -2.1858103e-04 0.0000000e+00 
0.0000000e+00 -1.4572068e-04 0.0000000e+00 
0.0000000e+00 -7.2860341e-05 0.0000000e+00 
0.0000000e+00 6.5303706e-14 0.0000000e+00 
0.0000000e+00 7.2860341e-05 0.0000000e+00 
0.0000000e+00 1.4572068e-04 0.0000000e+00 
0.0000000e+00 2.1858103e-04 0.0000000e+00 
0.0000000e+00 2.9144136e-04 0.0000000e+00 
0.0000000e+00 2.2226861e-03 0.0000000e+00 
0.0000000e+00 1.6670146e-03 0.0000000e+00 
0.0000000e+00 1.1113430e-03 0.0000000e+00 
0.0000000e+00 5.5567152e-04 0.0000000e+00 
0.0000000e+00 8.8962278e-14 0.0000000e+00 
0.0000000e+00 -5.5567152e-04 0.0000000e+00 
0.0000000e+00 -1.1113430e-03 0.0000000e+00 
0.0000000e+00 -1.6670146e-03 0.0000000e+00 
0.0000000e+00 -2.2226861e-03 0.0000000e+00 
0.0000000e+00 1.1392589e-02 0.0000000e+00 
0.0000000e+00 8.5444413e-03 0.0000000e+00 
0.0000000e+00 5.6962944e-03 0.0000000e+00 
0.0000000e+00 2.8481472e-03 0.0000000e+00 
0.0000000e+00 1.0099404e-13 0.0000000e+00 
0.0000000e+00 -2.8481472e-03 0.0000000e+00 
0.0000000e+00 -5.6962944e-03 0.0000000e+00 
0.0000000e+00 -8.5444413e-03 0.0000000e+00 
0.0000000e+00 -1.1392589e-02 0.0000000e+00 
0.0000000e+00 6.2877950e-03 0.0000000e+00 
0.0000000e+00 4.7158464e-03 0.0000000e+00 
0.0000000e+00 3.1438975e-03 0.0000000e+00 
0.0000000e+00 1.5719488e-03 0.0000000e+00 
0.0000000e+00 1.0895951e-13 0.0000000e+00 
0.0000000e+00 -1.5719488e-03 0.0000000e+00 
0.0000000e+00 -3.1438975e-03 0.0000000e+00 
0.0000000e+00 -4.7158464e-03 0.0000000e+00 
0.0000000e+00 -6.2877950e-03 0.0000000e+00 
0.0000000e+00 -2.3796256e-01 0.0000000e+00 
0.0000000e+00 -3.0347192e-01 0.0000000e+00 
0.0000000e+00 -3.6898127e-01 0.0000000e+00 
0.0000000e+00 -4.3449065e-01 0.0000000e+00 
0.0000000e+00 -5.0000000e-01 0.0000000e+00 
0.0000000e+00 4.3449065e-01 0.0000000e+00 
0.0000000e+00 3.6898127e-01 0.0000000e+00 
0.0000000e+00 3.0347192e-01 0.0000000e+00 
0.0000000e+00 2.3796256e-01 0.0000000e+00 
SHAPE_SENSITIVITY 3 176  float
0.0000000e+00 0.0000000e+00 0.0000000e+00 
0.0000000e+00 0.0000000e+00 0.0000000e+00 
0.0000000e+00 0.0000000e+00 0.0000000e+00 
0.0000000e+00 0.0000000e+00 0.0000000e+00 
0.0000000e+00 0.0000000e+00 0.0000000e+00 
0.0000000e+00 0.0000000e+00 0.0000000e+00 
0.0000000e+00 0.0000000e+00 0.0000000e+00 
0.0000000e+00 0.0000000e+00 0.0000000e+00 
0.0000000e+00 0.0000000e+00 0.0000000e+00 
0.0000000e+00 0.0000000e+00 0.0000000e+00 
0.0000000e+00 0.0000000e+00 0.0000000e+00 
0.0000000e+00 0.0000000e+00 0.0000000e+00 
0.0000000e+00 0.0000000e+00 0.0000000e+00 
0.0000000e+00 0.0000000e+00 0.0000000e+00 
0.0000000e+00 0.0000000e+00 0.0000000e+00 
0.0000000e+00 0.0000000e+00 0.0000000e+00 
0.0000000e+00 0.0000000e+00 0.0000000e+00 
0.0000000e+00 0.0000000e+00 0.0000000e+00 
0.0000000e+00 0.0000000e+00 0.0000000e+00 
0.0000000e+00 0.0000000e+00 0.0000000e+00 
0.0000000e+00 0.0000000e+00 0.0000000e+00 
0.0000000e+00 0.0000000e+00 0.0000000e+00 
0.0000000e+00 0.0000000e+00 0.0000000e+00 
0.0000000e+00 0.0000000e+00 0.0000000e+00 
0.0000000e+00 0.0000000e+00 0.0000000e+00 
0.0000000e+00 0.0000000e+00 0.0000000e+00 
0.0000000e+00 0.0000000e+00 0.0000000e+00 
0.0000000e+00 0.0000000e+00 0.0000000e+00 
0.0000000e+00 0.0000000e+00 0.0000000e+00 
0.0000000e+00 0.0000000e+00 0.0000000e+00 
0.0000000e+00 0.0000000e+00 0.0000000e+00 
0.0000000e+00 0.0000000e+00 0.0000000e+00 
0.0000000e+00 0.0000000e+00 0.0000000e+00 
0.0000000e+00 0.0000000e+00 0.0000000e+00 
0.0000000e+00 0.0000000e+00 0.0000000e+00 
0.0000000e+00 0.0000000e+00 0.0000000e+00 
0.0000000e+00 0.0000000e+00 0.0000000e+00 
0.0000000e+00 0.0000000e+00 0.0000000e+00 
0.0000000e+00 0.0000000e+00 0.0000000e+00 
0.0000000e+00 0.0000000e+00 0.0000000e+00 
0.0000000e+00 0.0000000e+00 0.0000000e+00 
0.0000000e+00 0.0000000e+00 0.0000000e+00 
0.0000000e+00 0.0000000e+00 0.0000000e+00 
0.0000000e+00 0.0000000e+00 0.0000000e+00 
0.0000000e+00 0.0000000e+00 0.0000000e+00 
0.0000000e+00 0.0000000e+00 0.0000000e+00 
0.0000000e+00 0.0000000e+00 0.0000000e+00 
0.0000000e+00 0.0000000e+00 0.0000000e+00 
0.0000000e+00 0.0000000e+00 0.0000000e+00 
0.0000000e+00 0.0000000e+00 0.0000000e+00 
0.0000000e+00 0.0000000e+00 0.0000000e+00 
0.0000000e+00 0.0000000e+00 0.0000000e+00 
0.0000000e+00 0.0000000e+00 0.0000000e+00 
0.0000000e+00 0.0000000e+00 0.0000000e+00 
0.0000000e+00 0.0000000e+00 0.0000000e+00 
0.0000000e+00 0.0000000e+00 0.0000000e+00 
0.0000000e+00 0.0000000e+00 0.0000000e+00 
0.0000000e+00 0.0000000e+00 0.0000000e+00 
0.0000000e+00 0.0000000e+00 0.0000000e+00 
0.0000000e+00 0.0000000e+00 0.0000000e+00 
0.0000000e+00 0.0000000e+00 0.0000000e+00 
0.0000000e+00 0.0000000e+00 0.0000000e+00 
0.0000000e+00 0.0000000e+00 0.0000000e+00 
0.0000000e+00 0.0000000e+00 0.0000000e+00 
0.0000000e+00 0.0000000e+00 0.0000000e+00 
0.0000000e+00 0.0000000e+00 0.0000000e+00 
0.0000000e+00 0.0000000e+00 0.0000000e+00 
0.0000000e+00 0.0000000e+00 0.0000000e+00 
0.0000000e+00 0.0000000e+00 0.0000000e+00 
0.0000000e+00 0.0000000e+00 0.0000000e+00 
0.0000000e+00 0.0000000e+00 0.0000000e+00 
0.0000000e+00 0.0000000e+00 0.0000000e+00 
0.0000000e+00 0.0000000e+00 0.0000000e+00 
0.0000000e+00 0.0000000e+00 0.0000000e+00 
0.0000000e+00 0.0000000e+00 0.0000000e+00 
0.0000000e+00 0.0000000e+00 0.0000000e+00 
0.0000000e+00 0.0000000e+00 0.0000000e+00 
0.0000000e+00 0.0000000e+00 0.0000000e+00 
0.0000000e+00 0.0000000e+00 0.0000000e+00 
0.0000000e+00 0.0000000e+00 0.0000000e+00 
0.0000000e+00 0.0000000e+00 0.0000000e+00 
0.0000000e+00 0.0000000e+00 0.0000000e+00 
0.0000000e+00 0.0000000e+00 0.0000000e+00 
0.0000000e+00 0.0000000e+00 0.0000000e+00 
0.0000000e+00 0.0000000e+00 0.0000000e+00 
0.0000000e+00 0.0000000e+00 0.0000000e+00 
0.0000000e+00 0.0000000e+00 0.0000000e+00 
0.0000000e+00 0.0000000e+00 0.0000000e+00 
0.0000000e+00 0.0000000e+00 0.0000000e+00 
0.0000000e+00 0.0000000e+00 0.0000000e+00 
0.0000000e+00 0.0000000e+00 0.0000000e+00 
0.0000000e+00 0.0000000e+00 0.0000000e+00 
0.0000000e+00 0.0000000e+00 0.0000000e+00 
0.0000000e+00 0.0000000e+00 0.0000000e+00 
0.0000000e+00 0.0000000e+00 0.0000000e+00 
0.0000000e+00 0.0000000e+00 0.0000000e+00 
0.0000000e+00 0.0000000e+00 0.0000000e+00 
0.0000000e+00 0.0000000e+00 0.0000000e+00 
0.0000000e+00 0.0000000e+00 0.0000000e+00 
0.0000000e+00 0.0000000e+00 0.0000000e+00 
0.0000000e+00 0.0000000e+00 0.0000000e+00 
0.0000000e+00 0.0000000e+00 0.0000000e+00 
0.0000000e+00 0.0000000e+00 0.0000000e+00 
0.0000000e+00 0.0000000e+00 0.0000000e+00 
0.0000000e+00 0.0000000e+00 0.0000000e+00 
0.0000000e+00 0.0000000e+00 0.0000000e+00 
0.0000000e+00 0.0000000e+00 0.0000000e+00 
0.0000000e+00 0.0000000e+00 0.0000000e+00 
0.0000000e+00 0.0000000e+00 0.0000000e+00 
0.0000000e+00 0.0000000e+00 0.0000000e+00 
0.0000000e+00 0.0000000e+00 0.0000000e+00 
0.0000000e+00 0.0000000e+00 0.0000000e+00 