# vtk DataFile Version 4.0
vtk output
ASCII
DATASET UNSTRUCTURED_GRID
POINTS 212 float
0.0000000e+00 0.0000000e+00 0.0000000e+00 
0.0000000e+00 0.0000000e+00 2.5000000e-01 
0.0000000e+00 0.0000000e+00 5.0000000e-01 
0.0000000e+00 0.0000000e+00 7.5000000e-01 
0.0000000e+00 0.0000000e+00 1.0000000e+00 
0.0000000e+00 0.0000000e+00 1.2500000e+00 
0.0000000e+00 0.0000000e+00 1.5000000e+00 
0.0000000e+00 0.0000000e+00 1.7500000e+00 
0.0000000e+00 0.0000000e+00 2.0000000e+00 
0.0000000e+00 0.0000000e+00 2.2500000e+00 
0.0000000e+00 0.0000000e+00 2.5000000e+00 
0.0000000e+00 0.0000000e+00 2.7500000e+00 
0.0000000e+00 0.0000000e+00 3.0000000e+00 
0.0000000e+00 0.0000000e+00 3.2500000e+00 
0.0000000e+00 0.0000000e+00 3.5000000e+00 
0.0000000e+00 0.0000000e+00 3.7500000e+00 
0.0000000e+00 0.0000000e+00 4.0000000e+00 
0.0000000e+00 0.0000000e+00 4.2500000e+00 
0.0000000e+00 0.0000000e+00 4.5000000e+00 
0.0000000e+00 0.0000000e+00 4.7500000e+00 
0.0000000e+00 0.0000000e+00 5.0000000e+00 
0.0000000e+00 0.0000000e+00 5.2500000e+00 
0.0000000e+00 0.0000000e+00 5.5000000e+00 
0.0000000e+00 0.0000000e+00 5.7500000e+00 
0.0000000e+00 0.0000000e+00 6.0000000e+00 
0.0000000e+00 0.0000000e+00 6.2500000e+00 
0.0000000e+00 0.0000000e+00 6.5000000e+00 
0.0000000e+00 0.0000000e+00 6.7500000e+00 
0.0000000e+00 0.0000000e+00 7.0000000e+00 
0.0000000e+00 0.0000000e+00 7.2500000e+00 
0.0000000e+00 0.0000000e+00 7.5000000e+00 
0.0000000e+00 0.0000000e+00 7.7500000e+00 
0.0000000e+00 0.0000000e+00 8.0000000e+00 
0.0000000e+00 0.0000000e+00 8.2500000e+00 
0.0000000e+00 0.0000000e+00 8.5000000e+00 
0.0000000e+00 0.0000000e+00 8.7500000e+00 
0.0000000e+00 0.0000000e+00 9.0000000e+00 
0.0000000e+00 0.0000000e+00 9.2500000e+00 
0.0000000e+00 0.0000000e+00 9.5000000e+00 
0.0000000e+00 0.0000000e+00 9.7500000e+00 
0.0000000e+00 0.0000000e+00 1.0000000e+01 
0.0000000e+00 0.0000000e+00 1.0250000e+01 
0.0000000e+00 0.0000000e+00 1.0500000e+01 
0.0000000e+00 0.0000000e+00 1.0750000e+01 
0.0000000e+00 0.0000000e+00 1.1000000e+01 
0.0000000e+00 0.0000000e+00 1.1250000e+01 
0.0000000e+00 0.0000000e+00 1.1500000e+01 
0.0000000e+00 0.0000000e+00 1.1750000e+01 
0.0000000e+00 0.0000000e+00 1.2000000e+01 
0.0000000e+00 0.0000000e+00 1.2250000e+01 
0.0000000e+00 0.0000000e+00 1.2500000e+01 
0.0000000e+00 0.0000000e+00 1.2750000e+01 
0.0000000e+00 0.0000000e+00 1.3000000e+01 
0.0000000e+00 0.0000000e+00 1.3250000e+01 
0.0000000e+00 0.0000000e+00 1.3500000e+01 
0.0000000e+00 0.0000000e+00 1.3750000e+01 
0.0000000e+00 0.0000000e+00 1.4000000e+01 
0.0000000e+00 0.0000000e+00 1.4250000e+01 
0.0000000e+00 0.0000000e+00 1.4500000e+01 
0.0000000e+00 0.0000000e+00 1.4750000e+01 
0.0000000e+00 0.0000000e+00 1.5000000e+01 
0.0000000e+00 0.0000000e+00 1.5250000e+01 
0.0000000e+00 0.0000000e+00 1.5500000e+01 
0.0000000e+00 0.0000000e+00 1.5750000e+01 
0.0000000e+00 0.0000000e+00 1.6000000e+01 
0.0000000e+00 0.0000000e+00 1.6250000e+01 
0.0000000e+00 0.0000000e+00 1.6500000e+01 
0.0000000e+00 0.0000000e+00 1.6750000e+01 
0.0000000e+00 0.0000000e+00 1.7000000e+01 
0.0000000e+00 0.0000000e+00 1.7250000e+01 
0.0000000e+00 0.0000000e+00 1.7500000e+01 
0.0000000e+00 0.0000000e+00 1.7750000e+01 
0.0000000e+00 0.0000000e+00 1.8000000e+01 
5.0000000e-01 0.0000000e+00 3.0000000e+00 
5.0000000e-01 0.0000000e+00 6.0000000e+00 
5.0000000e-01 0.0000000e+00 9.0000000e+00 
5.0000000e-01 0.0000000e+00 1.2000000e+01 
5.0000000e-01 0.0000000e+00 1.5000000e+01 
5.0000000e-01 0.0000000e+00 1.8000000e+01 
1.0000000e+00 0.0000000e+00 3.0000000e+00 
1.0000000e+00 0.0000000e+00 6.0000000e+00 
1.0000000e+00 0.0000000e+00 9.0000000e+00 
1.0000000e+00 0.0000000e+00 1.2000000e+01 
1.0000000e+00 0.0000000e+00 1.5000000e+01 
1.0000000e+00 0.0000000e+00 1.8000000e+01 
1.5000000e+00 0.0000000e+00 3.0000000e+00 
1.5000000e+00 0.0000000e+00 6.0000000e+00 
1.5000000e+00 0.0000000e+00 9.0000000e+00 
1.5000000e+00 0.0000000e+00 1.2000000e+01 
1.5000000e+00 0.0000000e+00 1.5000000e+01 
1.5000000e+00 0.0000000e+00 1.8000000e+01 
2.0000000e+00 0.0000000e+00 3.0000000e+00 
2.0000000e+00 0.0000000e+00 6.0000000e+00 
2.0000000e+00 0.0000000e+00 9.0000000e+00 
2.0000000e+00 0.0000000e+00 1.2000000e+01 
2.0000000e+00 0.0000000e+00 1.5000000e+01 
2.0000000e+00 0.0000000e+00 1.8000000e+01 
2.5000000e+00 0.0000000e+00 3.0000000e+00 
2.5000000e+00 0.0000000e+00 6.0000000e+00 
2.5000000e+00 0.0000000e+00 9.0000000e+00 
2.5000000e+00 0.0000000e+00 1.2000000e+01 
2.5000000e+00 0.0000000e+00 1.5000000e+01 
2.5000000e+00 0.0000000e+00 1.8000000e+01 
3.0000000e+00 0.0000000e+00 3.0000000e+00 
3.0000000e+00 0.0000000e+00 6.0000000e+00 
3.0000000e+00 0.0000000e+00 9.0000000e+00 
3.0000000e+00 0.0000000e+00 1.2000000e+01 
3.0000000e+00 0.0000000e+00 1.5000000e+01 
3.0000000e+00 0.0000000e+00 1.8000000e+01 
3.5000000e+00 0.0000000e+00 3.0000000e+00 
3.5000000e+00 0.0000000e+00 6.0000000e+00 
3.5000000e+00 0.0000000e+00 9.0000000e+00 
3.5000000e+00 0.0000000e+00 1.2000000e+01 
3.5000000e+00 0.0000000e+00 1.5000000e+01 
3.5000000e+00 0.0000000e+00 1.8000000e+01 
4.0000000e+00 0.0000000e+00 3.0000000e+00 
4.0000000e+00 0.0000000e+00 6.0000000e+00 
4.0000000e+00 0.0000000e+00 9.0000000e+00 
4.0000000e+00 0.0000000e+00 1.2000000e+01 
4.0000000e+00 0.0000000e+00 1.5000000e+01 
4.0000000e+00 0.0000000e+00 1.8000000e+01 
4.5000000e+00 0.0000000e+00 3.0000000e+00 
4.5000000e+00 0.0000000e+00 6.0000000e+00 
4.5000000e+00 0.0000000e+00 9.0000000e+00 
4.5000000e+00 0.0000000e+00 1.2000000e+01 
4.5000000e+00 0.0000000e+00 1.5000000e+01 
4.5000000e+00 0.0000000e+00 1.8000000e+01 
5.0000000e+00 0.0000000e+00 3.0000000e+00 
5.0000000e+00 0.0000000e+00 6.0000000e+00 
5.0000000e+00 0.0000000e+00 9.0000000e+00 
5.0000000e+00 0.0000000e+00 1.2000000e+01 
5.0000000e+00 0.0000000e+00 1.5000000e+01 
5.0000000e+00 0.0000000e+00 1.8000000e+01 
5.5000000e+00 0.0000000e+00 3.0000000e+00 
5.5000000e+00 0.0000000e+00 6.0000000e+00 
5.5000000e+00 0.0000000e+00 9.0000000e+00 
5.5000000e+00 0.0000000e+00 1.2000000e+01 
5.5000000e+00 0.0000000e+00 1.5000000e+01 
5.5000000e+00 0.0000000e+00 1.8000000e+01 
6.0000000e+00 0.0000000e+00 0.0000000e+00 
6.0000000e+00 0.0000000e+00 2.5000000e-01 
6.0000000e+00 0.0000000e+00 5.0000000e-01 
6.0000000e+00 0.0000000e+00 7.5000000e-01 
6.0000000e+00 0.0000000e+00 1.0000000e+00 
6.0000000e+00 0.0000000e+00 1.2500000e+00 
6.0000000e+00 0.0000000e+00 1.5000000e+00 
6.0000000e+00 0.0000000e+00 1.7500000e+00 
6.0000000e+00 0.0000000e+00 2.0000000e+00 
6.0000000e+00 0.0000000e+00 2.2500000e+00 
6.0000000e+00 0.0000000e+00 2.5000000e+00 
6.0000000e+00 0.0000000e+00 2.7500000e+00 
6.0000000e+00 0.0000000e+00 3.0000000e+00 
6.0000000e+00 0.0000000e+00 3.2500000e+00 
6.0000000e+00 0.0000000e+00 3.5000000e+00 
6.0000000e+00 0.0000000e+00 3.7500000e+00 
6.0000000e+00 0.0000000e+00 4.0000000e+00 
6.0000000e+00 0.0000000e+00 4.2500000e+00 
6.0000000e+00 0.0000000e+00 4.5000000e+00 
6.0000000e+00 0.0000000e+00 4.7500000e+00 
6.0000000e+00 0.0000000e+00 5.0000000e+00 
6.0000000e+00 0.0000000e+00 5.2500000e+00 
6.0000000e+00 0.0000000e+00 5.5000000e+00 
6.0000000e+00 0.0000000e+00 5.7500000e+00 
6.0000000e+00 0.0000000e+00 6.0000000e+00 
6.0000000e+00 0.0000000e+00 6.2500000e+00 
6.0000000e+00 0.0000000e+00 6.5000000e+00 
6.0000000e+00 0.0000000e+00 6.7500000e+00 
6.0000000e+00 0.0000000e+00 7.0000000e+00 
6.0000000e+00 0.0000000e+00 7.2500000e+00 
6.0000000e+00 0.0000000e+00 7.5000000e+00 
6.0000000e+00 0.0000000e+00 7.7500000e+00 
6.0000000e+00 0.0000000e+00 8.0000000e+00 
6.0000000e+00 0.0000000e+00 8.2500000e+00 
6.0000000e+00 0.0000000e+00 8.5000000e+00 
6.0000000e+00 0.0000000e+00 8.7500000e+00 
6.0000000e+00 0.0000000e+00 9.0000000e+00 
6.0000000e+00 0.0000000e+00 9.2500000e+00 
6.0000000e+00 0.0000000e+00 9.5000000e+00 
6.0000000e+00 0.0000000e+00 9.7500000e+00 
6.0000000e+00 0.0000000e+00 1.0000000e+01 
6.0000000e+00 0.0000000e+00 1.0250000e+01 
6.0000000e+00 0.0000000e+00 1.0500000e+01 
6.0000000e+00 0.0000000e+00 1.0750000e+01 
6.0000000e+00 0.0000000e+00 1.1000000e+01 
6.0000000e+00 0.0000000e+00 1.1250000e+01 
6.0000000e+00 0.0000000e+00 1.1500000e+01 
6.0000000e+00 0.0000000e+00 1.1750000e+01 
6.0000000e+00 0.0000000e+00 1.2000000e+01 
6.0000000e+00 0.0000000e+00 1.2250000e+01 
6.0000000e+00 0.0000000e+00 1.2500000e+01 
6.0000000e+00 0.0000000e+00 1.2750000e+01 
6.0000000e+00 0.0000000e+00 1.3000000e+01 
6.0000000e+00 0.0000000e+00 1.3250000e+01 
6.0000000e+00 0.0000000e+00 1.3500000e+01 
6.0000000e+00 0.0000000e+00 1.3750000e+01 
6.0000000e+00 0.0000000e+00 1.4000000e+01 
6.0000000e+00 0.0000000e+00 1.4250000e+01 
6.0000000e+00 0.0000000e+00 1.4500000e+01 
6.0000000e+00 0.0000000e+00 1.4750000e+01 
6.0000000e+00 0.0000000e+00 1.5000000e+01 
6.0000000e+00 0.0000000e+00 1.5250000e+01 
6.0000000e+00 0.0000000e+00 1.5500000e+01 
6.0000000e+00 0.0000000e+00 1.5750000e+01 
6.0000000e+00 0.0000000e+00 1.6000000e+01 
6.0000000e+00 0.0000000e+00 1.6250000e+01 
6.0000000e+00 0.0000000e+00 1.6500000e+01 
6.0000000e+00 0.0000000e+00 1.6750000e+01 
6.0000000e+00 0.0000000e+00 1.7000000e+01 
6.0000000e+00 0.0000000e+00 1.7250000e+01 
6.0000000e+00 0.0000000e+00 1.7500000e+01 
6.0000000e+00 0.0000000e+00 1.7750000e+01 
6.0000000e+00 0.0000000e+00 1.8000000e+01 

CELLS 216 648
2 0 1
2 1 2
2 2 3
2 3 4
2 4 5
2 5 6
2 6 7
2 7 8
2 8 9
2 9 10
2 10 11
2 11 12
2 12 13
2 13 14
2 14 15
2 15 16
2 16 17
2 17 18
2 18 19
2 19 20
2 20 21
2 21 22
2 22 23
2 23 24
2 24 25
2 25 26
2 26 27
2 27 28
2 28 29
2 29 30
2 30 31
2 31 32
2 32 33
2 33 34
2 34 35
2 35 36
2 36 37
2 37 38
2 38 39
2 39 40
2 40 41
2 41 42
2 42 43
2 43 44
2 44 45
2 45 46
2 46 47
2 47 48
2 48 49
2 49 50
2 50 51
2 51 52
2 52 53
2 53 54
2 54 55
2 55 56
2 56 57
2 57 58
2 58 59
2 59 60
2 60 61
2 61 62
2 62 63
2 63 64
2 64 65
2 65 66
2 66 67
2 67 68
2 68 69
2 69 70
2 70 71
2 71 72
2 139 140
2 140 141
2 141 142
2 142 143
2 143 144
2 144 145
2 145 146
2 146 147
2 147 148
2 148 149
2 149 150
2 150 151
2 151 152
2 152 153
2 153 154
2 154 155
2 155 156
2 156 157
2 157 158
2 158 159
2 159 160
2 160 161
2 161 162
2 162 163
2 163 164
2 164 165
2 165 166
2 166 167
2 167 168
2 168 169
2 169 170
2 170 171
2 171 172
2 172 173
2 173 174
2 174 175
2 175 176
2 176 177
2 177 178
2 178 179
2 179 180
2 180 181
2 181 182
2 182 183
2 183 184
2 184 185
2 185 186
2 186 187
2 187 188
2 188 189
2 189 190
2 190 191
2 191 192
2 192 193
2 193 194
2 194 195
2 195 196
2 196 197
2 197 198
2 198 199
2 199 200
2 200 201
2 201 202
2 202 203
2 203 204
2 204 205
2 205 206
2 206 207
2 207 208
2 208 209
2 209 210
2 210 211
2 12 73
2 73 79
2 79 85
2 85 91
2 91 97
2 97 103
2 103 109
2 109 115
2 115 121
2 121 127
2 127 133
2 133 151
2 24 74
2 74 80
2 80 86
2 86 92
2 92 98
2 98 104
2 104 110
2 110 116
2 116 122
2 122 128
2 128 134
2 134 163
2 36 75
2 75 81
2 81 87
2 87 93
2 93 99
2 99 105
2 105 111
2 111 117
2 117 123
2 123 129
2 129 135
2 135 175
2 48 76
2 76 82
2 82 88
2 88 94
2 94 100
2 100 106
2 106 112
2 112 118
2 118 124
2 124 130
2 130 136
2 136 187
2 60 77
2 77 83
2 83 89
2 89 95
2 95 101
2 101 107
2 107 113
2 113 119
2 119 125
2 125 131
2 131 137
2 137 199
2 72 78
2 78 84
2 84 90
2 90 96
2 96 102
2 102 108
2 108 114
2 114 120
2 120 126
2 126 132
2 132 138
2 138 211

CELL_TYPES 216
3
3
3
3
3
3
3
3
3
3
3
3
3
3
3
3
3
3
3
3
3
3
3
3
3
3
3
3
3
3
3
3
3
3
3
3
3
3
3
3
3
3
3
3
3
3
3
3
3
3
3
3
3
3
3
3
3
3
3
3
3
3
3
3
3
3
3
3
3
3
3
3
3
3
3
3
3
3
3
3
3
3
3
3
3
3
3
3
3
3
3
3
3
3
3
3
3
3
3
3
3
3
3
3
3
3
3
3
3
3
3
3
3
3
3
3
3
3
3
3
3
3
3
3
3
3
3
3
3
3
3
3
3
3
3
3
3
3
3
3
3
3
3
3
3
3
3
3
3
3
3
3
3
3
3
3
3
3
3
3
3
3
3
3
3
3
3
3
3
3
3
3
3
3
3
3
3
3
3
3
3
3
3
3
3
3
3
3
3
3
3
3
3
3
3
3
3
3
3
3
3
3
3
3
3
3
3
3
3
3
3
3
3
3
3
3
POINT_DATA 212
FIELD FieldData 3
ADJOINT_DISPLACEMENT 3 212  float
0.0000000e+00 0.0000000e+00 0.0000000e+00 
2.5652900e-05 0.0000000e+00 -7.0539200e-18 
5.0227558e-05 0.0000000e+00 -1.4107840e-17 
7.2645737e-05 0.0000000e+00 -2.1161758e-17 
9.1829192e-05 0.0000000e+00 -2.8215680e-17 
1.0669968e-04 0.0000000e+00 -3.5269598e-17 
1.1617896e-04 0.0000000e+00 -4.2323517e-17 
1.1918879e-04 0.0000000e+00 -4.9377438e-17 
1.1465094e-04 0.0000000e+00 -5.6431360e-17 
1.0148715e-04 0.0000000e+00 -6.3485278e-17 
7.8619196e-05 0.0000000e+00 -7.0539197e-17 
4.4968830e-05 0.0000000e+00 -7.7593115e-17 
-5.4219106e-07 0.0000000e+00 -8.4647033e-17 
-5.9890303e-05 0.0000000e+00 -8.9691048e-17 
-1.3001125e-04 0.0000000e+00 -9.4734474e-17 
-2.0442226e-04 0.0000000e+00 -9.9777490e-17 
-2.7664055e-04 0.0000000e+00 -1.0482060e-16 
-3.4018332e-04 0.0000000e+00 -1.0986371e-16 
-3.8856783e-04 0.0000000e+00 -1.1490689e-16 
-4.1531125e-04 0.0000000e+00 -1.1995012e-16 
-4.1393080e-04 0.0000000e+00 -1.2499334e-16 
-3.7794374e-04 0.0000000e+00 -1.3003659e-16 
-3.0086725e-04 0.0000000e+00 -1.3507984e-16 
-1.7621854e-04 0.0000000e+00 -1.4012309e-16 
2.4851458e-06 0.0000000e+00 -1.4516632e-16 
2.4461275e-04 0.0000000e+00 -1.4866368e-16 
5.3642906e-04 0.0000000e+00 -1.5216489e-16 
8.4976078e-04 0.0000000e+00 -1.5566544e-16 
1.1564344e-03 0.0000000e+00 -1.5916830e-16 
1.4282766e-03 0.0000000e+00 -1.6267112e-16 
1.6371141e-03 0.0000000e+00 -1.6617483e-16 
1.7547733e-03 0.0000000e+00 -1.6968013e-16 
1.7530811e-03 0.0000000e+00 -1.7318543e-16 
1.6038639e-03 0.0000000e+00 -1.7669065e-16 
1.2789483e-03 0.0000000e+00 -1.8019588e-16 
7.5016107e-04 0.0000000e+00 -1.8370110e-16 
-1.0671238e-05 0.0000000e+00 -1.8720634e-16 
-1.0438466e-03 0.0000000e+00 -1.8932826e-16 
-2.2904538e-03 0.0000000e+00 -1.9147320e-16 
-3.6298526e-03 0.0000000e+00 -1.9360869e-16 
-4.9414020e-03 0.0000000e+00 -1.9575212e-16 
-6.1044623e-03 0.0000000e+00 -1.9789649e-16 
-6.9983928e-03 0.0000000e+00 -2.0004017e-16 
-7.5025526e-03 0.0000000e+00 -2.0218057e-16 
-7.4963016e-03 0.0000000e+00 -2.0432130e-16 
-6.8589994e-03 0.0000000e+00 -2.0646162e-16 
-5.4700058e-03 0.0000000e+00 -2.0860193e-16 
-3.2086798e-03 0.0000000e+00 -2.1074222e-16 
4.5618683e-05 0.0000000e+00 -2.1288270e-16 
4.4654603e-03 0.0000000e+00 -2.1377142e-16 
9.7993053e-03 0.0000000e+00 -2.1464070e-16 
1.5531626e-02 0.0000000e+00 -2.1556235e-16 
2.1146895e-02 0.0000000e+00 -2.1647421e-16 
2.6129588e-02 0.0000000e+00 -2.1737886e-16 
2.9964177e-02 0.0000000e+00 -2.1829328e-16 
3.2135133e-02 0.0000000e+00 -2.1918072e-16 
3.2126933e-02 0.0000000e+00 -2.2007018e-16 
2.9424049e-02 0.0000000e+00 -2.2096081e-16 
2.3510953e-02 0.0000000e+00 -2.2185134e-16 
1.3872120e-02 0.0000000e+00 -2.2274126e-16 
-7.9790771e-06 0.0000000e+00 -2.2363250e-16 
-1.4091847e-02 0.0000000e+00 -2.2328620e-16 
-2.4267811e-02 0.0000000e+00 -2.2288383e-16 
-3.0940127e-02 0.0000000e+00 -2.2354126e-16 
-3.4513049e-02 0.0000000e+00 -2.2413355e-16 
-3.5390832e-02 0.0000000e+00 -2.2481678e-16 
-3.3977736e-02 0.0000000e+00 -2.2539925e-16 
-3.0678013e-02 0.0000000e+00 -2.2586224e-16 
-2.5895923e-02 0.0000000e+00 -2.2633676e-16 
-2.0035719e-02 0.0000000e+00 -2.2679927e-16 
-1.3501658e-02 0.0000000e+00 -2.2725931e-16 
-6.6979961e-03 0.0000000e+00 -2.2772086e-16 
-2.8988647e-05 0.0000000e+00 -2.2818176e-16 
-4.5182597e-07 0.0000000e+00 9.4968062e-05 
2.0709547e-06 0.0000000e+00 -3.8113553e-04 
-8.8926981e-06 0.0000000e+00 1.6247843e-03 
3.8015569e-05 0.0000000e+00 -6.9501633e-03 
-6.6492312e-06 0.0000000e+00 5.0483052e-02 
-2.4157205e-05 0.0000000e+00 -1.1856035e-02 
-3.6146085e-07 0.0000000e+00 1.7266921e-04 
1.6567637e-06 0.0000000e+00 -6.9297367e-04 
-7.1141585e-06 0.0000000e+00 2.9541533e-03 
3.0412455e-05 0.0000000e+00 -1.2636661e-02 
-5.3193849e-06 0.0000000e+00 1.3724191e-01 
-1.9325764e-05 0.0000000e+00 -2.1556428e-02 
-2.7109570e-07 0.0000000e+00 2.3310343e-04 
1.2425727e-06 0.0000000e+00 -9.3551452e-04 
-5.3356189e-06 0.0000000e+00 3.9881067e-03 
2.2809341e-05 0.0000000e+00 -1.7059492e-02 
-3.9895390e-06 0.0000000e+00 2.6027659e-01 
-1.4494323e-05 0.0000000e+00 -2.9101176e-02 
-1.8073058e-07 0.0000000e+00 2.7627073e-04 
8.2838159e-07 0.0000000e+00 -1.1087579e-03 
-3.5570797e-06 0.0000000e+00 4.7266451e-03 
1.5206227e-05 0.0000000e+00 -2.0218657e-02 
-2.6596931e-06 0.0000000e+00 4.1958705e-01 
-9.6628828e-06 0.0000000e+00 -3.4490284e-02 
-9.0365461e-08 0.0000000e+00 3.0217110e-04 
4.1419051e-07 0.0000000e+00 -1.2127040e-03 
-1.7785402e-06 0.0000000e+00 5.1697684e-03 
7.6031129e-06 0.0000000e+00 -2.2114156e-02 
-1.3298470e-06 0.0000000e+00 6.1517334e-01 
-4.8314419e-06 0.0000000e+00 -3.7723746e-02 
-3.3329291e-13 0.0000000e+00 3.1080458e-04 
-5.3945260e-13 0.0000000e+00 -1.2473527e-03 
-7.1423352e-13 0.0000000e+00 5.3174761e-03 
-8.7263616e-13 0.0000000e+00 -2.2745989e-02 
-1.0280853e-12 0.0000000e+00 8.4703541e-01 
-1.1302576e-12 0.0000000e+00 -3.8801569e-02 
9.0364793e-08 0.0000000e+00 3.0217110e-04 
-4.1419159e-07 0.0000000e+00 -1.2127040e-03 
1.7785387e-06 0.0000000e+00 5.1697684e-03 
-7.6031147e-06 0.0000000e+00 -2.2114156e-02 
1.3298450e-06 0.0000000e+00 6.1517334e-01 
4.8314396e-06 0.0000000e+00 -3.7723746e-02 
1.8072991e-07 0.0000000e+00 2.7627073e-04 
-8.2838267e-07 0.0000000e+00 -1.1087579e-03 
3.5570781e-06 0.0000000e+00 4.7266451e-03 
-1.5206228e-05 0.0000000e+00 -2.0218657e-02 
2.6596911e-06 0.0000000e+00 4.1958705e-01 
9.6628810e-06 0.0000000e+00 -3.4490284e-02 
2.7109505e-07 0.0000000e+00 2.3310343e-04 
-1.2425737e-06 0.0000000e+00 -9.3551452e-04 
5.3356175e-06 0.0000000e+00 3.9881067e-03 
-2.2809343e-05 0.0000000e+00 -1.7059492e-02 
3.9895372e-06 0.0000000e+00 2.6027659e-01 
1.4494321e-05 0.0000000e+00 -2.9101176e-02 
3.6146017e-07 0.0000000e+00 1.7266921e-04 
-1.6567648e-06 0.0000000e+00 -6.9297367e-04 
7.1141571e-06 0.0000000e+00 2.9541533e-03 
-3.0412457e-05 0.0000000e+00 -1.2636661e-02 
5.3193830e-06 0.0000000e+00 1.3724191e-01 
1.9325762e-05 0.0000000e+00 -2.1556428e-02 
4.5182529e-07 0.0000000e+00 9.4968062e-05 
-2.0709558e-06 0.0000000e+00 -3.8113553e-04 
8.8926963e-06 0.0000000e+00 1.6247843e-03 
-3.8015569e-05 0.0000000e+00 -6.9501633e-03 
6.6492289e-06 0.0000000e+00 5.0483052e-02 
2.4157203e-05 0.0000000e+00 -1.1856035e-02 
0.0000000e+00 0.0000000e+00 0.0000000e+00 
-2.5652900e-05 0.0000000e+00 8.1847975e-18 
-5.0227558e-05 0.0000000e+00 1.6369595e-17 
-7.2645737e-05 0.0000000e+00 2.4554392e-17 
-9.1829192e-05 0.0000000e+00 3.2739190e-17 
-1.0669968e-04 0.0000000e+00 4.0923990e-17 
-1.1617896e-04 0.0000000e+00 4.9108787e-17 
-1.1918879e-04 0.0000000e+00 5.7293580e-17 
-1.1465094e-04 0.0000000e+00 6.5478373e-17 
-1.0148715e-04 0.0000000e+00 7.3663173e-17 
-7.8619196e-05 0.0000000e+00 8.1847947e-17 
-4.4968830e-05 0.0000000e+00 9.0032727e-17 
5.4219043e-07 0.0000000e+00 9.8217513e-17 
5.9890303e-05 0.0000000e+00 1.0439076e-16 
1.3001125e-04 0.0000000e+00 1.1056400e-16 
2.0442226e-04 0.0000000e+00 1.1673725e-16 
2.7664055e-04 0.0000000e+00 1.2291049e-16 
3.4018332e-04 0.0000000e+00 1.2908372e-16 
3.8856783e-04 0.0000000e+00 1.3525693e-16 
4.1531125e-04 0.0000000e+00 1.4143016e-16 
4.1393080e-04 0.0000000e+00 1.4760338e-16 
3.7794374e-04 0.0000000e+00 1.5377661e-16 
3.0086725e-04 0.0000000e+00 1.5994984e-16 
1.7621854e-04 0.0000000e+00 1.6612305e-16 
-2.4851470e-06 0.0000000e+00 1.7229626e-16 
-2.4461275e-04 0.0000000e+00 1.7693073e-16 
-5.3642906e-04 0.0000000e+00 1.8156524e-16 
-8.4976078e-04 0.0000000e+00 1.8619975e-16 
-1.1564344e-03 0.0000000e+00 1.9083426e-16 
-1.4282766e-03 0.0000000e+00 1.9546879e-16 
-1.6371141e-03 0.0000000e+00 2.0010331e-16 
-1.7547733e-03 0.0000000e+00 2.0473784e-16 
-1.7530811e-03 0.0000000e+00 2.0937237e-16 
-1.6038639e-03 0.0000000e+00 2.1400691e-16 
-1.2789483e-03 0.0000000e+00 2.1864144e-16 
-7.5016107e-04 0.0000000e+00 2.2327598e-16 
1.0671236e-05 0.0000000e+00 2.2791049e-16 
1.0438466e-03 0.0000000e+00 2.3116384e-16 
2.2904538e-03 0.0000000e+00 2.3441695e-16 
3.6298526e-03 0.0000000e+00 2.3766987e-16 
4.9414020e-03 0.0000000e+00 2.4092280e-16 
6.1044623e-03 0.0000000e+00 2.4417583e-16 
6.9983928e-03 0.0000000e+00 2.4742891e-16 
7.5025526e-03 0.0000000e+00 2.5068184e-16 
7.4963016e-03 0.0000000e+00 2.5393481e-16 
6.8589994e-03 0.0000000e+00 2.5718779e-16 
5.4700058e-03 0.0000000e+00 2.6044077e-16 
3.2086798e-03 0.0000000e+00 2.6369374e-16 
-4.5618683e-05 0.0000000e+00 2.6694672e-16 
-4.4654603e-03 0.0000000e+00 2.6891012e-16 
-9.7993053e-03 0.0000000e+00 2.7087325e-16 
-1.5531626e-02 0.0000000e+00 2.7283617e-16 
-2.1146895e-02 0.0000000e+00 2.7479914e-16 
-2.6129588e-02 0.0000000e+00 2.7676270e-16 
-2.9964177e-02 0.0000000e+00 2.7872561e-16 
-3.2135133e-02 0.0000000e+00 2.8068880e-16 
-3.2126933e-02 0.0000000e+00 2.8265206e-16 
-2.9424049e-02 0.0000000e+00 2.8461519e-16 
-2.3510953e-02 0.0000000e+00 2.8657838e-16 
-1.3872120e-02 0.0000000e+00 2.8854159e-16 
7.9790752e-06 0.0000000e+00 2.9050483e-16 
1.4091847e-02 0.0000000e+00 2.9109706e-16 
2.4267811e-02 0.0000000e+00 2.9168900e-16 
3.0940127e-02 0.0000000e+00 2.9228050e-16 
3.4513049e-02 0.0000000e+00 2.9287292e-16 
3.5390832e-02 0.0000000e+00 2.9346513e-16 
3.3977736e-02 0.0000000e+00 2.9405765e-16 
3.0678013e-02 0.0000000e+00 2.9465052e-16 
2.5895923e-02 0.0000000e+00 2.9524376e-16 
2.0035719e-02 0.0000000e+00 2.9583700e-16 
1.3501658e-02 0.0000000e+00 2.9643027e-16 
6.6979961e-03 0.0000000e+00 2.9702354e-16 
2.8988645e-05 0.0000000e+00 2.9761678e-16 
ADJOINT_ROTATION 3 212  float
0.0000000e+00 1.0333043e-04 0.0000000e+00 
0.0000000e+00 1.0117394e-04 0.0000000e+00 
0.0000000e+00 9.4704497e-05 0.0000000e+00 
0.0000000e+00 8.3922088e-05 0.0000000e+00 
0.0000000e+00 6.8826710e-05 0.0000000e+00 
0.0000000e+00 4.9418366e-05 0.0000000e+00 
0.0000000e+00 2.5697060e-05 0.0000000e+00 
0.0000000e+00 -2.3372129e-06 0.0000000e+00 
0.0000000e+00 -3.4684450e-05 0.0000000e+00 
0.0000000e+00 -7.1344650e-05 0.0000000e+00 
0.0000000e+00 -1.1231782e-04 0.0000000e+00 
0.0000000e+00 -1.5760395e-04 0.0000000e+00 
0.0000000e+00 -2.0720305e-04 0.0000000e+00 
0.0000000e+00 -2.6325998e-04 0.0000000e+00 
0.0000000e+00 -2.9338579e-04 0.0000000e+00 
0.0000000e+00 -2.9758047e-04 0.0000000e+00 
0.0000000e+00 -2.7584398e-04 0.0000000e+00 
0.0000000e+00 -2.2817640e-04 0.0000000e+00 
0.0000000e+00 -1.5457768e-04 0.0000000e+00 
0.0000000e+00 -5.5047822e-05 0.0000000e+00 
0.0000000e+00 7.0413167e-05 0.0000000e+00 
0.0000000e+00 2.2180528e-04 0.0000000e+00 
0.0000000e+00 3.9912853e-04 0.0000000e+00 
0.0000000e+00 6.0238293e-04 0.0000000e+00 
0.0000000e+00 8.3156844e-04 0.0000000e+00 
0.0000000e+00 1.0866701e-03 0.0000000e+00 
0.0000000e+00 1.2290783e-03 0.0000000e+00 
0.0000000e+00 1.2587929e-03 0.0000000e+00 
0.0000000e+00 1.1758141e-03 0.0000000e+00 
0.0000000e+00 9.8014157e-04 0.0000000e+00 
0.0000000e+00 6.7177566e-04 0.0000000e+00 
0.0000000e+00 2.5071623e-04 0.0000000e+00 
0.0000000e+00 -2.8303676e-04 0.0000000e+00 
0.0000000e+00 -9.2948327e-04 0.0000000e+00 
0.0000000e+00 -1.6886233e-03 0.0000000e+00 
0.0000000e+00 -2.5604567e-03 0.0000000e+00 
0.0000000e+00 -3.5449839e-03 0.0000000e+00 
0.0000000e+00 -4.6399920e-03 0.0000000e+00 
0.0000000e+00 -5.2524386e-03 0.0000000e+00 
0.0000000e+00 -5.3823236e-03 0.0000000e+00 
0.0000000e+00 -5.0296467e-03 0.0000000e+00 
0.0000000e+00 -4.1944077e-03 0.0000000e+00 
0.0000000e+00 -2.8766072e-03 0.0000000e+00 
0.0000000e+00 -1.0762450e-03 0.0000000e+00 
0.0000000e+00 1.2066790e-03 0.0000000e+00 
0.0000000e+00 3.9721648e-03 0.0000000e+00 
0.0000000e+00 7.2202124e-03 0.0000000e+00 
0.0000000e+00 1.0950821e-02 0.0000000e+00 
0.0000000e+00 1.5163993e-02 0.0000000e+00 
0.0000000e+00 1.9851057e-02 0.0000000e+00 
0.0000000e+00 2.2476016e-02 0.0000000e+00 
0.0000000e+00 2.3038866e-02 0.0000000e+00 
0.0000000e+00 2.1539610e-02 0.0000000e+00 
0.0000000e+00 1.7978245e-02 0.0000000e+00 
0.0000000e+00 1.2354776e-02 0.0000000e+00 
0.0000000e+00 4.6691988e-03 0.0000000e+00 
0.0000000e+00 -5.0784857e-03 0.0000000e+00 
0.0000000e+00 -1.6888276e-02 0.0000000e+00 
0.0000000e+00 -3.0760175e-02 0.0000000e+00 
0.0000000e+00 -4.6694178e-02 0.0000000e+00 
0.0000000e+00 -6.4690292e-02 0.0000000e+00 
0.0000000e+00 -4.8250161e-02 0.0000000e+00 
0.0000000e+00 -3.3427052e-02 0.0000000e+00 
0.0000000e+00 -2.0220969e-02 0.0000000e+00 
0.0000000e+00 -8.6319083e-03 0.0000000e+00 
0.0000000e+00 1.3401277e-03 0.0000000e+00 
0.0000000e+00 9.6951397e-03 0.0000000e+00 
0.0000000e+00 1.6433129e-02 0.0000000e+00 
0.0000000e+00 2.1554094e-02 0.0000000e+00 
0.0000000e+00 2.5058033e-02 0.0000000e+00 
0.0000000e+00 2.6944950e-02 0.0000000e+00 
0.0000000e+00 2.7214844e-02 0.0000000e+00 
0.0000000e+00 2.5867714e-02 0.0000000e+00 
0.0000000e+00 -1.7266921e-04 0.0000000e+00 
0.0000000e+00 6.9297367e-04 0.0000000e+00 
0.0000000e+00 -2.9541533e-03 0.0000000e+00 
0.0000000e+00 1.2636661e-02 0.0000000e+00 
0.0000000e+00 -1.3724191e-01 0.0000000e+00 
0.0000000e+00 2.1556428e-02 0.0000000e+00 
0.0000000e+00 -1.3813536e-04 0.0000000e+00 
0.0000000e+00 5.5437896e-04 0.0000000e+00 
0.0000000e+00 -2.3633225e-03 0.0000000e+00 
0.0000000e+00 1.0109329e-02 0.0000000e+00 
0.0000000e+00 -2.0979352e-01 0.0000000e+00 
0.0000000e+00 1.7245142e-02 0.0000000e+00 
0.0000000e+00 -1.0360152e-04 0.0000000e+00 
0.0000000e+00 4.1578422e-04 0.0000000e+00 
0.0000000e+00 -1.7724920e-03 0.0000000e+00 
0.0000000e+00 7.5819963e-03 0.0000000e+00 
0.0000000e+00 -2.8234515e-01 0.0000000e+00 
0.0000000e+00 1.2933857e-02 0.0000000e+00 
0.0000000e+00 -6.9067682e-05 0.0000000e+00 
0.0000000e+00 2.7718948e-04 0.0000000e+00 
0.0000000e+00 -1.1816613e-03 0.0000000e+00 
0.0000000e+00 5.0546643e-03 0.0000000e+00 
0.0000000e+00 -3.5489675e-01 0.0000000e+00 
0.0000000e+00 8.6225709e-03 0.0000000e+00 
0.0000000e+00 -3.4533841e-05 0.0000000e+00 
0.0000000e+00 1.3859474e-04 0.0000000e+00 
0.0000000e+00 -5.9083063e-04 0.0000000e+00 
0.0000000e+00 2.5273322e-03 0.0000000e+00 
0.0000000e+00 -4.2744839e-01 0.0000000e+00 
0.0000000e+00 4.3112854e-03 0.0000000e+00 
0.0000000e+00 3.2291579e-14 0.0000000e+00 
0.0000000e+00 2.4655416e-14 0.0000000e+00 
0.0000000e+00 2.2025650e-14 0.0000000e+00 
0.0000000e+00 2.0028855e-14 0.0000000e+00 
0.0000000e+00 -5.0000000e-01 0.0000000e+00 
0.0000000e+00 7.5212223e-15 0.0000000e+00 
0.0000000e+00 3.4533841e-05 0.0000000e+00 
0.0000000e+00 -1.3859474e-04 0.0000000e+00 
0.0000000e+00 5.9083063e-04 0.0000000e+00 
0.0000000e+00 -2.5273322e-03 0.0000000e+00 
0.0000000e+00 4.2744839e-01 0.0000000e+00 
0.0000000e+00 -4.3112854e-03 0.0000000e+00 
0.0000000e+00 6.9067682e-05 0.0000000e+00 
0.0000000e+00 -2.7718948e-04 0.0000000e+00 
0.0000000e+00 1.1816613e-03 0.0000000e+00 
0.0000000e+00 -5.0546643e-03 0.0000000e+00 
0.0000000e+00 3.5489675e-01 0.0000000e+00 
0.0000000e+00 -8.6225709e-03 0.0000000e+00 
0.0000000e+00 1.0360152e-04 0.0000000e+00 
0.0000000e+00 -4.1578422e-04 0.0000000e+00 
0.0000000e+00 1.7724920e-03 0.0000000e+00 
0.0000000e+00 -7.5819963e-03 0.0000000e+00 
0.0000000e+00 2.8234515e-01 0.0000000e+00 
0.0000000e+00 -1.2933857e-02 0.0000000e+00 
0.0000000e+00 1.3813536e-04 0.0000000e+00 
0.0000000e+00 -5.5437896e-04 0.0000000e+00 
0.0000000e+00 2.3633225e-03 0.0000000e+00 
0.0000000e+00 -1.0109329e-02 0.0000000e+00 
0.0000000e+00 2.0979352e-01 0.0000000e+00 
0.0000000e+00 -1.7245142e-02 0.0000000e+00 
0.0000000e+00 1.7266921e-04 0.0000000e+00 
0.0000000e+00 -6.9297367e-04 0.0000000e+00 
0.0000000e+00 2.9541533e-03 0.0000000e+00 
0.0000000e+00 -1.2636661e-02 0.0000000e+00 
0.0000000e+00 1.3724191e-01 0.0000000e+00 
0.0000000e+00 -2.1556428e-02 0.0000000e+00 
0.0000000e+00 -1.0333043e-04 0.0000000e+00 
0.0000000e+00 -1.0117394e-04 0.0000000e+00 
0.0000000e+00 -9.4704497e-05 0.0000000e+00 
0.0000000e+00 -8.3922088e-05 0.0000000e+00 
0.0000000e+00 -6.8826710e-05 0.0000000e+00 
0.0000000e+00 -4.9418366e-05 0.0000000e+00 
0.0000000e+00 -2.5697060e-05 0.0000000e+00 
0.0000000e+00 2.3372127e-06 0.0000000e+00 
0.0000000e+00 3.4684450e-05 0.0000000e+00 
0.0000000e+00 7.1344650e-05 0.0000000e+00 
0.0000000e+00 1.1231782e-04 0.0000000e+00 
0.0000000e+00 1.5760395e-04 0.0000000e+00 
0.0000000e+00 2.0720305e-04 0.0000000e+00 
0.0000000e+00 2.6325998e-04 0.0000000e+00 
0.0000000e+00 2.9338579e-04 0.0000000e+00 
0.0000000e+00 2.9758047e-04 0.0000000e+00 
0.0000000e+00 2.7584398e-04 0.0000000e+00 
0.0000000e+00 2.2817640e-04 0.0000000e+00 
0.0000000e+00 1.5457768e-04 0.0000000e+00 
0.0000000e+00 5.5047822e-05 0.0000000e+00 
0.0000000e+00 -7.0413167e-05 0.0000000e+00 
0.0000000e+00 -2.2180528e-04 0.0000000e+00 
0.0000000e+00 -3.9912853e-04 0.0000000e+00 
0.0000000e+00 -6.0238293e-04 0.0000000e+00 
0.0000000e+00 -8.3156844e-04 0.0000000e+00 
0.0000000e+00 -1.0866701e-03 0.0000000e+00 
0.0000000e+00 -1.2290783e-03 0.0000000e+00 
0.0000000e+00 -1.2587929e-03 0.0000000e+00 
0.0000000e+00 -1.1758141e-03 0.0000000e+00 
0.0000000e+00 -9.8014157e-04 0.0000000e+00 
0.0000000e+00 -6.7177566e-04 0.0000000e+00 
0.0000000e+00 -2.5071623e-04 0.0000000e+00 
0.0000000e+00 2.8303676e-04 0.0000000e+00 
0.0000000e+00 9.2948327e-04 0.0000000e+00 
0.0000000e+00 1.6886233e-03 0.0000000e+00 
0.0000000e+00 2.5604567e-03 0.0000000e+00 
0.0000000e+00 3.5449839e-03 0.0000000e+00 
0.0000000e+00 4.6399920e-03 0.0000000e+00 
0.0000000e+00 5.2524386e-03 0.0000000e+00 
0.0000000e+00 5.3823236e-03 0.0000000e+00 
0.0000000e+00 5.0296467e-03 0.0000000e+00 
0.0000000e+00 4.1944077e-03 0.0000000e+00 
0.0000000e+00 2.8766072e-03 0.0000000e+00 
0.0000000e+00 1.0762450e-03 0.0000000e+00 
0.0000000e+00 -1.2066790e-03 0.0000000e+00 
0.0000000e+00 -3.9721648e-03 0.0000000e+00 
0.0000000e+00 -7.2202124e-03 0.0000000e+00 
0.0000000e+00 -1.0950821e-02 0.0000000e+00 
0.0000000e+00 -1.5163993e-02 0.0000000e+00 
0.0000000e+00 -1.9851057e-02 0.0000000e+00 
0.0000000e+00 -2.2476016e-02 0.0000000e+00 
0.0000000e+00 -2.3038866e-02 0.0000000e+00 
0.0000000e+00 -2.1539610e-02 0.0000000e+00 
0.0000000e+00 -1.7978245e-02 0.0000000e+00 
0.0000000e+00 -1.2354776e-02 0.0000000e+00 
0.0000000e+00 -4.6691988e-03 0.0000000e+00 
0.0000000e+00 5.0784857e-03 0.0000000e+00 
0.0000000e+00 1.6888276e-02 0.0000000e+00 
0.0000000e+00 3.0760175e-02 0.0000000e+00 
0.0000000e+00 4.6694178e-02 0.0000000e+00 
0.0000000e+00 6.4690292e-02 0.0000000e+00 
0.0000000e+00 4.8250161e-02 0.0000000e+00 
0.0000000e+00 3.3427052e-02 0.0000000e+00 
0.0000000e+00 2.0220969e-02 0.0000000e+00 
0.0000000e+00 8.6319083e-03 0.0000000e+00 
0.0000000e+00 -1.3401277e-03 0.0000000e+00 
0.0000000e+00 -9.6951397e-03 0.0000000e+00 