# vtk DataFile Version 4.0
vtk output
ASCII
DATASET UNSTRUCTURED_GRID
POINTS 86 float
0.0000000e+00 0.0000000e+00 0.0000000e+00 
0.0000000e+00 0.0000000e+00 6.0000002e-01 
0.0000000e+00 0.0000000e+00 1.2000000e+00 
0.0000000e+00 0.0000000e+00 1.8000000e+00 
0.0000000e+00 0.0000000e+00 2.4000001e+00 
0.0000000e+00 0.0000000e+00 3.0000000e+00 
0.0000000e+00 0.0000000e+00 3.5999999e+00 
0.0000000e+00 0.0000000e+00 4.1999998e+00 
0.0000000e+00 0.0000000e+00 4.8000002e+00 
0.0000000e+00 0.0000000e+00 5.4000001e+00 
0.0000000e+00 0.0000000e+00 6.0000000e+00 
0.0000000e+00 0.0000000e+00 6.5999999e+00 
0.0000000e+00 0.0000000e+00 7.1999998e+00 
0.0000000e+00 0.0000000e+00 7.8000002e+00 
0.0000000e+00 0.0000000e+00 8.3999996e+00 
0.0000000e+00 0.0000000e+00 9.0000000e+00 
0.0000000e+00 0.0000000e+00 9.6000004e+00 
0.0000000e+00 0.0000000e+00 1.0200000e+01 
0.0000000e+00 0.0000000e+00 1.0800000e+01 
0.0000000e+00 0.0000000e+00 1.1400000e+01 
0.0000000e+00 0.0000000e+00 1.2000000e+01 
0.0000000e+00 0.0000000e+00 1.2600000e+01 
0.0000000e+00 0.0000000e+00 1.3200000e+01 
0.0000000e+00 0.0000000e+00 1.3800000e+01 
0.0000000e+00 0.0000000e+00 1.4400000e+01 
0.0000000e+00 0.0000000e+00 1.5000000e+01 
0.0000000e+00 0.0000000e+00 1.5600000e+01 
0.0000000e+00 0.0000000e+00 1.6200001e+01 
0.0000000e+00 0.0000000e+00 1.6799999e+01 
0.0000000e+00 0.0000000e+00 1.7400000e+01 
0.0000000e+00 0.0000000e+00 1.8000000e+01 
6.0000000e+00 0.0000000e+00 0.0000000e+00 
6.0000000e+00 0.0000000e+00 6.0000002e-01 
6.0000000e+00 0.0000000e+00 1.2000000e+00 
6.0000000e+00 0.0000000e+00 1.8000000e+00 
6.0000000e+00 0.0000000e+00 2.4000001e+00 
6.0000000e+00 0.0000000e+00 3.0000000e+00 
6.0000000e+00 0.0000000e+00 3.5999999e+00 
6.0000000e+00 0.0000000e+00 4.1999998e+00 
6.0000000e+00 0.0000000e+00 4.8000002e+00 
6.0000000e+00 0.0000000e+00 5.4000001e+00 
6.0000000e+00 0.0000000e+00 6.0000000e+00 
6.0000000e+00 0.0000000e+00 6.5999999e+00 
6.0000000e+00 0.0000000e+00 7.1999998e+00 
6.0000000e+00 0.0000000e+00 7.8000002e+00 
6.0000000e+00 0.0000000e+00 8.3999996e+00 
6.0000000e+00 0.0000000e+00 9.0000000e+00 
6.0000000e+00 0.0000000e+00 9.6000004e+00 
6.0000000e+00 0.0000000e+00 1.0200000e+01 
6.0000000e+00 0.0000000e+00 1.0800000e+01 
6.0000000e+00 0.0000000e+00 1.1400000e+01 
6.0000000e+00 0.0000000e+00 1.2000000e+01 
6.0000000e+00 0.0000000e+00 1.2600000e+01 
6.0000000e+00 0.0000000e+00 1.3200000e+01 
6.0000000e+00 0.0000000e+00 1.3800000e+01 
6.0000000e+00 0.0000000e+00 1.4400000e+01 
6.0000000e+00 0.0000000e+00 1.5000000e+01 
6.0000000e+00 0.0000000e+00 1.5600000e+01 
6.0000000e+00 0.0000000e+00 1.6200001e+01 
6.0000000e+00 0.0000000e+00 1.6799999e+01 
6.0000000e+00 0.0000000e+00 1.7400000e+01 
6.0000000e+00 0.0000000e+00 1.8000000e+01 
1.2000000e+00 0.0000000e+00 3.0000000e+00 
2.4000001e+00 0.0000000e+00 3.0000000e+00 
3.5999999e+00 0.0000000e+00 3.0000000e+00 
4.8000002e+00 0.0000000e+00 3.0000000e+00 
1.2000000e+00 0.0000000e+00 6.0000000e+00 
2.4000001e+00 0.0000000e+00 6.0000000e+00 
3.5999999e+00 0.0000000e+00 6.0000000e+00 
4.8000002e+00 0.0000000e+00 6.0000000e+00 
1.2000000e+00 0.0000000e+00 9.0000000e+00 
2.4000001e+00 0.0000000e+00 9.0000000e+00 
3.5999999e+00 0.0000000e+00 9.0000000e+00 
4.8000002e+00 0.0000000e+00 9.0000000e+00 
1.2000000e+00 0.0000000e+00 1.2000000e+01 
2.4000001e+00 0.0000000e+00 1.2000000e+01 
3.5999999e+00 0.0000000e+00 1.2000000e+01 
4.8000002e+00 0.0000000e+00 1.2000000e+01 
1.2000000e+00 0.0000000e+00 1.5000000e+01 
2.4000001e+00 0.0000000e+00 1.5000000e+01 
3.5999999e+00 0.0000000e+00 1.5000000e+01 
4.8000002e+00 0.0000000e+00 1.5000000e+01 
1.2000000e+00 0.0000000e+00 1.8000000e+01 
2.4000001e+00 0.0000000e+00 1.8000000e+01 
3.5999999e+00 0.0000000e+00 1.8000000e+01 
4.8000002e+00 0.0000000e+00 1.8000000e+01 

CELLS 90 270
2 0 1
2 1 2
2 2 3
2 3 4
2 4 5
2 5 6
2 6 7
2 7 8
2 8 9
2 9 10
2 10 11
2 11 12
2 12 13
2 13 14
2 14 15
2 15 16
2 16 17
2 17 18
2 18 19
2 19 20
2 20 21
2 21 22
2 22 23
2 23 24
2 24 25
2 25 26
2 26 27
2 27 28
2 28 29
2 29 30
2 31 32
2 32 33
2 33 34
2 34 35
2 35 36
2 36 37
2 37 38
2 38 39
2 39 40
2 40 41
2 41 42
2 42 43
2 43 44
2 44 45
2 45 46
2 46 47
2 47 48
2 48 49
2 49 50
2 50 51
2 51 52
2 52 53
2 53 54
2 54 55
2 55 56
2 56 57
2 57 58
2 58 59
2 59 60
2 60 61
2 5 62
2 62 63
2 63 64
2 64 65
2 65 36
2 10 66
2 66 67
2 67 68
2 68 69
2 69 41
2 15 70
2 70 71
2 71 72
2 72 73
2 73 46
2 20 74
2 74 75
2 75 76
2 76 77
2 77 51
2 25 78
2 78 79
2 79 80
2 80 81
2 81 56
2 30 82
2 82 83
2 83 84
2 84 85
2 85 61

CELL_TYPES 90
3
3
3
3
3
3
3
3
3
3
3
3
3
3
3
3
3
3
3
3
3
3
3
3
3
3
3
3
3
3
3
3
3
3
3
3
3
3
3
3
3
3
3
3
3
3
3
3
3
3
3
3
3
3
3
3
3
3
3
3
3
3
3
3
3
3
3
3
3
3
3
3
3
3
3
3
3
3
3
3
3
3
3
3
3
3
3
3
3
3
POINT_DATA 86
FIELD FieldData 3
ADJOINT_DISPLACEMENT 3 86  float
0.0000000e+00 0.0000000e+00 0.0000000e+00 
-9.9629879e-02 0.0000000e+00 -5.4458285e-15 
-1.8812288e-01 0.0000000e+00 -1.0891657e-14 
-2.5434211e-01 0.0000000e+00 -1.6337487e-14 
-2.8715065e-01 0.0000000e+00 -2.1783314e-14 
-2.7541167e-01 0.0000000e+00 -2.7229143e-14 
-2.2089560e-01 0.0000000e+00 2.0720542e-03 
-1.4236334e-01 0.0000000e+00 4.1441084e-03 
-5.4163422e-02 0.0000000e+00 6.2161628e-03 
2.9355565e-02 0.0000000e+00 8.2882168e-03 
9.3845047e-02 0.0000000e+00 1.0360271e-02 
1.4182389e-01 0.0000000e+00 1.0789610e-02 
1.8460768e-01 0.0000000e+00 1.1218950e-02 
2.2104292e-01 0.0000000e+00 1.1648290e-02 
2.4997611e-01 0.0000000e+00 1.2077630e-02 
2.7025375e-01 0.0000000e+00 1.2506968e-02 
2.8432110e-01 0.0000000e+00 1.2595924e-02 
2.9562369e-01 0.0000000e+00 1.2684878e-02 
3.0450842e-01 0.0000000e+00 1.2773833e-02 
3.1132215e-01 0.0000000e+00 1.2862788e-02 
3.1641182e-01 0.0000000e+00 1.2951743e-02 
3.2066000e-01 0.0000000e+00 1.2970142e-02 
3.2469758e-01 0.0000000e+00 1.2988541e-02 
3.2849395e-01 0.0000000e+00 1.3006940e-02 
3.3201844e-01 0.0000000e+00 1.3025340e-02 
3.3524045e-01 0.0000000e+00 1.3043740e-02 
3.3826804e-01 0.0000000e+00 1.3047395e-02 
3.4122956e-01 0.0000000e+00 1.3051051e-02 
3.4412473e-01 0.0000000e+00 1.3054706e-02 
3.4695336e-01 0.0000000e+00 1.3058362e-02 
3.4971517e-01 0.0000000e+00 1.3062017e-02 
0.0000000e+00 0.0000000e+00 0.0000000e+00 
-2.4693370e-02 0.0000000e+00 5.4912905e-15 
-6.0523629e-02 0.0000000e+00 1.0982408e-14 
-1.1862766e-01 0.0000000e+00 1.6473219e-14 
-2.1014236e-01 0.0000000e+00 2.1964013e-14 
-3.4620461e-01 0.0000000e+00 2.7455448e-14 
-5.6234086e-01 0.0000000e+00 -2.0720542e-03 
-2.7708733e-01 0.0000000e+00 -4.1441084e-03 
-7.6095380e-02 0.0000000e+00 -6.2161628e-03 
5.4983549e-02 0.0000000e+00 -8.2882168e-03 
1.3049804e-01 0.0000000e+00 -1.0360271e-02 
1.7749807e-01 0.0000000e+00 -1.0789610e-02 
2.1423693e-01 0.0000000e+00 -1.1218950e-02 
2.4186812e-01 0.0000000e+00 -1.1648290e-02 
2.6154515e-01 0.0000000e+00 -1.2077630e-02 
2.7442148e-01 0.0000000e+00 -1.2506968e-02 
2.8417882e-01 0.0000000e+00 -1.2595924e-02 
2.9349855e-01 0.0000000e+00 -1.2684878e-02 
3.0203378e-01 0.0000000e+00 -1.2773833e-02 
3.0943760e-01 0.0000000e+00 -1.2862788e-02 
3.1536314e-01 0.0000000e+00 -1.2951743e-02 
3.2019779e-01 0.0000000e+00 -1.2970142e-02 
3.2458067e-01 0.0000000e+00 -1.2988541e-02 
3.2854238e-01 0.0000000e+00 -1.3006940e-02 
3.3211356e-01 0.0000000e+00 -1.3025340e-02 
3.3532488e-01 0.0000000e+00 -1.3043740e-02 
3.3833361e-01 0.0000000e+00 -1.3047395e-02 
3.4127685e-01 0.0000000e+00 -1.3051051e-02 
3.4415480e-01 0.0000000e+00 -1.3054706e-02 
3.4696770e-01 0.0000000e+00 -1.3058362e-02 
3.4971583e-01 0.0000000e+00 -1.3062017e-02 
-2.8957024e-01 0.0000000e+00 -1.0014355e-01 
-3.0372885e-01 0.0000000e+00 -2.0989048e-01 
-3.1788743e-01 0.0000000e+00 -2.6956564e-01 
-3.3204603e-01 0.0000000e+00 -2.1949388e-01 
1.0117564e-01 0.0000000e+00 -3.9235413e-02 
1.0850624e-01 0.0000000e+00 -1.8795127e-02 
1.1583684e-01 0.0000000e+00 2.4370948e-02 
1.2316743e-01 0.0000000e+00 4.2952627e-02 
2.7108729e-01 0.0000000e+00 -6.8627717e-03 
2.7192083e-01 0.0000000e+00 -9.2459545e-03 
2.7275440e-01 0.0000000e+00 -4.4456599e-03 
2.7358794e-01 0.0000000e+00 -2.2649711e-03 
3.1620207e-01 0.0000000e+00 6.3210633e-03 
3.1599236e-01 0.0000000e+00 2.4473697e-03 
3.1578261e-01 0.0000000e+00 -7.0133287e-04 
3.1557289e-01 0.0000000e+00 -5.1570386e-03 
3.3525735e-01 0.0000000e+00 7.3864390e-03 
3.3527422e-01 0.0000000e+00 2.3736646e-03 
3.3529112e-01 0.0000000e+00 -2.4192072e-03 
3.3530799e-01 0.0000000e+00 -7.4168006e-03 
3.4971529e-01 0.0000000e+00 7.7219228e-03 
3.4971544e-01 0.0000000e+00 2.5447512e-03 
3.4971556e-01 0.0000000e+00 -2.5747770e-03 
3.4971571e-01 0.0000000e+00 -7.7419402e-03 
ADJOINT_ROTATION 3 86  float
0.0000000e+00 -1.6914338e-01 0.0000000e+00 
0.0000000e+00 -1.5986264e-01 0.0000000e+00 
0.0000000e+00 -1.3202043e-01 0.0000000e+00 
0.0000000e+00 -8.5616723e-02 0.0000000e+00 
0.0000000e+00 -2.0651544e-02 0.0000000e+00 
0.0000000e+00 6.2875114e-02 0.0000000e+00 
0.0000000e+00 1.1485931e-01 0.0000000e+00 
0.0000000e+00 1.4292921e-01 0.0000000e+00 
0.0000000e+00 1.4708480e-01 0.0000000e+00 
0.0000000e+00 1.2732610e-01 0.0000000e+00 
0.0000000e+00 8.3653107e-02 0.0000000e+00 
0.0000000e+00 7.5955942e-02 0.0000000e+00 
0.0000000e+00 6.6336282e-02 0.0000000e+00 
0.0000000e+00 5.4794107e-02 0.0000000e+00 
0.0000000e+00 4.1329436e-02 0.0000000e+00 
0.0000000e+00 2.5942260e-02 0.0000000e+00 
0.0000000e+00 2.1045260e-02 0.0000000e+00 
0.0000000e+00 1.6726408e-02 0.0000000e+00 
0.0000000e+00 1.2985706e-02 0.0000000e+00 
0.0000000e+00 9.8231547e-03 0.0000000e+00 
0.0000000e+00 7.2387527e-03 0.0000000e+00 
0.0000000e+00 6.9133048e-03 0.0000000e+00 
0.0000000e+00 6.5367976e-03 0.0000000e+00 
0.0000000e+00 6.1092312e-03 0.0000000e+00 
0.0000000e+00 5.6306054e-03 0.0000000e+00 
0.0000000e+00 5.1009208e-03 0.0000000e+00 
0.0000000e+00 4.9909838e-03 0.0000000e+00 
0.0000000e+00 4.8806444e-03 0.0000000e+00 
0.0000000e+00 4.7699013e-03 0.0000000e+00 
0.0000000e+00 4.6587554e-03 0.0000000e+00 
0.0000000e+00 4.5472067e-03 0.0000000e+00 
0.0000000e+00 -3.8062036e-02 0.0000000e+00 
0.0000000e+00 -4.7342777e-02 0.0000000e+00 
0.0000000e+00 -7.5184993e-02 0.0000000e+00 
0.0000000e+00 -1.2158870e-01 0.0000000e+00 
0.0000000e+00 -1.8655388e-01 0.0000000e+00 
0.0000000e+00 -2.7008054e-01 0.0000000e+00 
0.0000000e+00 -4.4638798e-01 0.0000000e+00 
0.0000000e+00 4.0121886e-01 0.0000000e+00 
0.0000000e+00 2.7274001e-01 0.0000000e+00 
0.0000000e+00 1.6817546e-01 0.0000000e+00 
0.0000000e+00 8.7525204e-02 0.0000000e+00 
0.0000000e+00 6.9462001e-02 0.0000000e+00 
0.0000000e+00 5.3321294e-02 0.0000000e+00 
0.0000000e+00 3.9103091e-02 0.0000000e+00 
0.0000000e+00 2.6807392e-02 0.0000000e+00 
0.0000000e+00 1.6434196e-02 0.0000000e+00 
0.0000000e+00 1.5993912e-02 0.0000000e+00 
0.0000000e+00 1.4975479e-02 0.0000000e+00 
0.0000000e+00 1.3378895e-02 0.0000000e+00 
0.0000000e+00 1.1204162e-02 0.0000000e+00 
0.0000000e+00 8.4512783e-03 0.0000000e+00 
0.0000000e+00 7.6727630e-03 0.0000000e+00 
0.0000000e+00 6.9453069e-03 0.0000000e+00 
0.0000000e+00 6.2689101e-03 0.0000000e+00 
0.0000000e+00 5.6435722e-03 0.0000000e+00 
0.0000000e+00 5.0692940e-03 0.0000000e+00 
0.0000000e+00 4.9598999e-03 0.0000000e+00 
0.0000000e+00 4.8509091e-03 0.0000000e+00 
0.0000000e+00 4.7423216e-03 0.0000000e+00 
0.0000000e+00 4.6341368e-03 0.0000000e+00 
0.0000000e+00 4.5263553e-03 0.0000000e+00 
0.0000000e+00 9.5742591e-02 0.0000000e+00 
0.0000000e+00 7.8880757e-02 0.0000000e+00 
0.0000000e+00 1.2289627e-02 0.0000000e+00 
0.0000000e+00 -1.0403080e-01 0.0000000e+00 
0.0000000e+00 5.5772238e-03 0.0000000e+00 
0.0000000e+00 -3.3073507e-02 0.0000000e+00 
0.0000000e+00 -3.2299090e-02 0.0000000e+00 
0.0000000e+00 7.9004820e-03 0.0000000e+00 
0.0000000e+00 7.7021788e-03 0.0000000e+00 
0.0000000e+00 -2.3686690e-03 0.0000000e+00 
0.0000000e+00 -4.2702821e-03 0.0000000e+00 
0.0000000e+00 1.9973395e-03 0.0000000e+00 
0.0000000e+00 4.0946007e-03 0.0000000e+00 
0.0000000e+00 2.6437771e-03 0.0000000e+00 
0.0000000e+00 2.8862820e-03 0.0000000e+00 
0.0000000e+00 4.8221159e-03 0.0000000e+00 
0.0000000e+00 4.3868888e-03 0.0000000e+00 
0.0000000e+00 4.0267105e-03 0.0000000e+00 
0.0000000e+00 4.0203850e-03 0.0000000e+00 
0.0000000e+00 4.3679127e-03 0.0000000e+00 
0.0000000e+00 4.3675723e-03 0.0000000e+00 
0.0000000e+00 4.2756698e-03 0.0000000e+00 
0.0000000e+00 4.2714993e-03 0.0000000e+00 
0.0000000e+00 4.3550613e-03 0.0000000e+00 
SHAPE_SENSITIVITY 3 86  float
0.0000000e+00 0.0000000e+00 0.0000000e+00 
0.0000000e+00 0.0000000e+00 0.0000000e+00 
0.0000000e+00 0.0000000e+00 0.0000000e+00 
0.0000000e+00 0.0000000e+00 0.0000000e+00 
0.0000000e+00 0.0000000e+00 0.0000000e+00 
0.0000000e+00 0.0000000e+00 0.0000000e+00 
0.0000000e+00 0.0000000e+00 0.0000000e+00 
0.0000000e+00 0.0000000e+00 0.0000000e+00 
0.0000000e+00 0.0000000e+00 0.0000000e+00 
0.0000000e+00 0.0000000e+00 0.0000000e+00 
0.0000000e+00 0.0000000e+00 0.0000000e+00 
0.0000000e+00 0.0000000e+00 0.0000000e+00 
0.0000000e+00 0.0000000e+00 0.0000000e+00 
0.0000000e+00 0.0000000e+00 0.0000000e+00 
0.0000000e+00 0.0000000e+00 0.0000000e+00 
0.0000000e+00 0.0000000e+00 0.0000000e+00 
0.0000000e+00 0.0000000e+00 0.0000000e+00 
0.0000000e+00 0.0000000e+00 0.0000000e+00 
0.0000000e+00 0.0000000e+00 0.0000000e+00 
0.0000000e+00 0.0000000e+00 0.0000000e+00 
0.0000000e+00 0.0000000e+00 0.0000000e+00 
0.0000000e+00 0.0000000e+00 0.0000000e+00 
0.0000000e+00 0.0000000e+00 0.0000000e+00 
0.0000000e+00 0.0000000e+00 0.0000000e+00 
0.0000000e+00 0.0000000e+00 0.0000000e+00 
0.0000000e+00 0.0000000e+00 0.0000000e+00 
0.0000000e+00 0.0000000e+00 0.0000000e+00 
0.0000000e+00 0.0000000e+00 0.0000000e+00 
0.0000000e+00 0.0000000e+00 0.0000000e+00 
0.0000000e+00 0.0000000e+00 0.0000000e+00 
0.0000000e+00 0.0000000e+00 0.0000000e+00 
0.0000000e+00 0.0000000e+00 0.0000000e+00 
0.0000000e+00 0.0000000e+00 0.0000000e+00 
0.0000000e+00 0.0000000e+00 0.0000000e+00 
0.0000000e+00 0.0000000e+00 0.0000000e+00 
0.0000000e+00 0.0000000e+00 0.0000000e+00 
0.0000000e+00 0.0000000e+00 0.0000000e+00 
0.0000000e+00 0.0000000e+00 0.0000000e+00 
0.0000000e+00 0.0000000e+00 0.0000000e+00 
0.0000000e+00 0.0000000e+00 0.0000000e+00 
0.0000000e+00 0.0000000e+00 0.0000000e+00 
0.0000000e+00 0.0000000e+00 0.0000000e+00 
0.0000000e+00 0.0000000e+00 0.0000000e+00 
0.0000000e+00 0.0000000e+00 0.0000000e+00 
0.0000000e+00 0.0000000e+00 0.0000000e+00 
0.0000000e+00 0.0000000e+00 0.0000000e+00 
0.0000000e+00 0.0000000e+00 0.0000000e+00 
0.0000000e+00 0.0000000e+00 0.0000000e+00 
0.0000000e+00 0.0000000e+00 0.0000000e+00 
0.0000000e+00 0.0000000e+00 0.0000000e+00 
0.0000000e+00 0.0000000e+00 0.0000000e+00 
0.0000000e+00 0.0000000e+00 0.0000000e+00 
0.0000000e+00 0.0000000e+00 0.0000000e+00 
0.0000000e+00 0.0000000e+00 0.0000000e+00 
0.0000000e+00 0.0000000e+00 0.0000000e+00 
0.0000000e+00 0.0000000e+00 0.0000000e+00 
0.0000000e+00 0.0000000e+00 0.0000000e+00 
0.0000000e+00 0.0000000e+00 0.0000000e+00 
0.0000000e+00 0.0000000e+00 0.0000000e+00 
0.0000000e+00 0.0000000e+00 0.0000000e+00 
0.0000000e+00 0.0000000e+00 0.0000000e+00 
0.0000000e+00 0.0000000e+00 0.0000000e+00 
0.0000000e+00 0.0000000e+00 0.0000000e+00 
0.0000000e+00 0.0000000e+00 0.0000000e+00 
0.0000000e+00 0.0000000e+00 0.0000000e+00 
0.0000000e+00 0.0000000e+00 0.0000000e+00 
0.0000000e+00 0.0000000e+00 0.0000000e+00 
0.0000000e+00 0.0000000e+00 0.0000000e+00 
0.0000000e+00 0.0000000e+00 0.0000000e+00 
0.0000000e+00 0.0000000e+00 0.0000000e+00 
0.0000000e+00 0.0000000e+00 0.0000000e+00 
0.0000000e+00 0.0000000e+00 0.0000000e+00 
0.0000000e+00 0.0000000e+00 0.0000000e+00 
0.0000000e+00 0.0000000e+00 0.0000000e+00 
0.0000000e+00 0.0000000e+00 0.0000000e+00 
0.0000000e+00 0.0000000e+00 0.0000000e+00 
0.0000000e+00 0.0000000e+00 0.0000000e+00 
0.0000000e+00 0.0000000e+00 0.0000000e+00 
0.0000000e+00 0.0000000e+00 0.0000000e+00 
0.0000000e+00 0.0000000e+00 0.0000000e+00 
0.0000000e+00 0.0000000e+00 0.0000000e+00 
0.0000000e+00 0.0000000e+00 0.0000000e+00 
0.0000000e+00 0.0000000e+00 0.0000000e+00 
0.0000000e+00 0.0000000e+00 0.0000000e+00 
0.0000000e+00 0.0000000e+00 0.0000000e+00 
0.0000000e+00 0.0000000e+00 0.0000000e+00 
CELL_DATA 90
FIELD FieldData 1
I22_SENSITIVITY 1 90  float
1.1302457e+00
7.9117160e+00
2.1326153e+01
4.1020912e+01
6.6661858e+01
-9.8465023e+00
-1.1657193e+00
1.9444567e-01
-5.4067979e+00
-1.7873255e+01
1.4741217e+00
6.1378044e-01
-6.7084241e-01
-2.3451309e+00
-4.4216180e+00
7.0267850e-01
2.1190257e-01
-1.5810417e-01
-4.2232645e-01
-5.8075768e-01
2.7151681e-02
3.9736391e-03
-2.4102928e-02
-5.6158639e-02
-9.1271088e-02
2.2878286e-03
-1.7340749e-03
-5.1209959e-03
-8.1997123e-03
-1.0964172e-02
-1.1342558e+00
-7.8469839e+00
-2.0975456e+01
-4.0389740e+01
-6.5904221e+01
2.9785606e+01
4.2147899e+00
-1.4192726e+01
-2.5977800e+01
-3.1140465e+01
3.3164489e+00
9.6897221e-01
-8.1777525e-01
-2.0784125e+00
-2.8475425e+00
5.6482658e-02
3.7990935e-02
-8.3670497e-02
-2.9810262e-01
-5.9489197e-01
5.5094510e-02
4.2475006e-03
-3.5910692e-02
-6.6301040e-02
-8.7839551e-02
6.0012407e-04
-2.2876074e-03
-4.8276135e-03
-6.7004380e-03
-7.9120016e-03
3.1664539e+01
-5.5570698e+00
2.4269879e+00
5.4574108e+01
1.4988971e+02
-4.6448818e+01
-1.1919081e+01
-9.6833259e-01
-1.2808072e+01
-4.6290321e+01
-7.8672442e+00
-2.2258041e+00
-1.3661805e-01
-1.4820764e+00
-6.1673889e+00
-9.9465978e-01
-2.2951183e-01
-2.3641448e-02
-3.1608883e-01
-1.0693624e+00
-1.3412258e-01
-3.1279415e-02
-2.4637873e-03
-3.4937005e-02
-1.1596034e-01
-1.4727041e-02
-2.7918238e-03
-1.9582787e-04
-3.7806993e-03
-1.1503573e-02
