# vtk DataFile Version 4.0
vtk output
ASCII
DATASET UNSTRUCTURED_GRID
POINTS 212 float
0.0000000e+00 0.0000000e+00 0.0000000e+00 
0.0000000e+00 0.0000000e+00 2.5000000e-01 
0.0000000e+00 0.0000000e+00 5.0000000e-01 
0.0000000e+00 0.0000000e+00 7.5000000e-01 
0.0000000e+00 0.0000000e+00 1.0000000e+00 
0.0000000e+00 0.0000000e+00 1.2500000e+00 
0.0000000e+00 0.0000000e+00 1.5000000e+00 
0.0000000e+00 0.0000000e+00 1.7500000e+00 
0.0000000e+00 0.0000000e+00 2.0000000e+00 
0.0000000e+00 0.0000000e+00 2.2500000e+00 
0.0000000e+00 0.0000000e+00 2.5000000e+00 
0.0000000e+00 0.0000000e+00 2.7500000e+00 
0.0000000e+00 0.0000000e+00 3.0000000e+00 
0.0000000e+00 0.0000000e+00 3.2500000e+00 
0.0000000e+00 0.0000000e+00 3.5000000e+00 
0.0000000e+00 0.0000000e+00 3.7500000e+00 
0.0000000e+00 0.0000000e+00 4.0000000e+00 
0.0000000e+00 0.0000000e+00 4.2500000e+00 
0.0000000e+00 0.0000000e+00 4.5000000e+00 
0.0000000e+00 0.0000000e+00 4.7500000e+00 
0.0000000e+00 0.0000000e+00 5.0000000e+00 
0.0000000e+00 0.0000000e+00 5.2500000e+00 
0.0000000e+00 0.0000000e+00 5.5000000e+00 
0.0000000e+00 0.0000000e+00 5.7500000e+00 
0.0000000e+00 0.0000000e+00 6.0000000e+00 
0.0000000e+00 0.0000000e+00 6.2500000e+00 
0.0000000e+00 0.0000000e+00 6.5000000e+00 
0.0000000e+00 0.0000000e+00 6.7500000e+00 
0.0000000e+00 0.0000000e+00 7.0000000e+00 
0.0000000e+00 0.0000000e+00 7.2500000e+00 
0.0000000e+00 0.0000000e+00 7.5000000e+00 
0.0000000e+00 0.0000000e+00 7.7500000e+00 
0.0000000e+00 0.0000000e+00 8.0000000e+00 
0.0000000e+00 0.0000000e+00 8.2500000e+00 
0.0000000e+00 0.0000000e+00 8.5000000e+00 
0.0000000e+00 0.0000000e+00 8.7500000e+00 
0.0000000e+00 0.0000000e+00 9.0000000e+00 
0.0000000e+00 0.0000000e+00 9.2500000e+00 
0.0000000e+00 0.0000000e+00 9.5000000e+00 
0.0000000e+00 0.0000000e+00 9.7500000e+00 
0.0000000e+00 0.0000000e+00 1.0000000e+01 
0.0000000e+00 0.0000000e+00 1.0250000e+01 
0.0000000e+00 0.0000000e+00 1.0500000e+01 
0.0000000e+00 0.0000000e+00 1.0750000e+01 
0.0000000e+00 0.0000000e+00 1.1000000e+01 
0.0000000e+00 0.0000000e+00 1.1250000e+01 
0.0000000e+00 0.0000000e+00 1.1500000e+01 
0.0000000e+00 0.0000000e+00 1.1750000e+01 
0.0000000e+00 0.0000000e+00 1.2000000e+01 
0.0000000e+00 0.0000000e+00 1.2250000e+01 
0.0000000e+00 0.0000000e+00 1.2500000e+01 
0.0000000e+00 0.0000000e+00 1.2750000e+01 
0.0000000e+00 0.0000000e+00 1.3000000e+01 
0.0000000e+00 0.0000000e+00 1.3250000e+01 
0.0000000e+00 0.0000000e+00 1.3500000e+01 
0.0000000e+00 0.0000000e+00 1.3750000e+01 
0.0000000e+00 0.0000000e+00 1.4000000e+01 
0.0000000e+00 0.0000000e+00 1.4250000e+01 
0.0000000e+00 0.0000000e+00 1.4500000e+01 
0.0000000e+00 0.0000000e+00 1.4750000e+01 
0.0000000e+00 0.0000000e+00 1.5000000e+01 
0.0000000e+00 0.0000000e+00 1.5250000e+01 
0.0000000e+00 0.0000000e+00 1.5500000e+01 
0.0000000e+00 0.0000000e+00 1.5750000e+01 
0.0000000e+00 0.0000000e+00 1.6000000e+01 
0.0000000e+00 0.0000000e+00 1.6250000e+01 
0.0000000e+00 0.0000000e+00 1.6500000e+01 
0.0000000e+00 0.0000000e+00 1.6750000e+01 
0.0000000e+00 0.0000000e+00 1.7000000e+01 
0.0000000e+00 0.0000000e+00 1.7250000e+01 
0.0000000e+00 0.0000000e+00 1.7500000e+01 
0.0000000e+00 0.0000000e+00 1.7750000e+01 
0.0000000e+00 0.0000000e+00 1.8000000e+01 
5.0000000e-01 0.0000000e+00 3.0000000e+00 
5.0000000e-01 0.0000000e+00 6.0000000e+00 
5.0000000e-01 0.0000000e+00 9.0000000e+00 
5.0000000e-01 0.0000000e+00 1.2000000e+01 
5.0000000e-01 0.0000000e+00 1.5000000e+01 
5.0000000e-01 0.0000000e+00 1.8000000e+01 
1.0000000e+00 0.0000000e+00 3.0000000e+00 
1.0000000e+00 0.0000000e+00 6.0000000e+00 
1.0000000e+00 0.0000000e+00 9.0000000e+00 
1.0000000e+00 0.0000000e+00 1.2000000e+01 
1.0000000e+00 0.0000000e+00 1.5000000e+01 
1.0000000e+00 0.0000000e+00 1.8000000e+01 
1.5000000e+00 0.0000000e+00 3.0000000e+00 
1.5000000e+00 0.0000000e+00 6.0000000e+00 
1.5000000e+00 0.0000000e+00 9.0000000e+00 
1.5000000e+00 0.0000000e+00 1.2000000e+01 
1.5000000e+00 0.0000000e+00 1.5000000e+01 
1.5000000e+00 0.0000000e+00 1.8000000e+01 
2.0000000e+00 0.0000000e+00 3.0000000e+00 
2.0000000e+00 0.0000000e+00 6.0000000e+00 
2.0000000e+00 0.0000000e+00 9.0000000e+00 
2.0000000e+00 0.0000000e+00 1.2000000e+01 
2.0000000e+00 0.0000000e+00 1.5000000e+01 
2.0000000e+00 0.0000000e+00 1.8000000e+01 
2.5000000e+00 0.0000000e+00 3.0000000e+00 
2.5000000e+00 0.0000000e+00 6.0000000e+00 
2.5000000e+00 0.0000000e+00 9.0000000e+00 
2.5000000e+00 0.0000000e+00 1.2000000e+01 
2.5000000e+00 0.0000000e+00 1.5000000e+01 
2.5000000e+00 0.0000000e+00 1.8000000e+01 
3.0000000e+00 0.0000000e+00 3.0000000e+00 
3.0000000e+00 0.0000000e+00 6.0000000e+00 
3.0000000e+00 0.0000000e+00 9.0000000e+00 
3.0000000e+00 0.0000000e+00 1.2000000e+01 
3.0000000e+00 0.0000000e+00 1.5000000e+01 
3.0000000e+00 0.0000000e+00 1.8000000e+01 
3.5000000e+00 0.0000000e+00 3.0000000e+00 
3.5000000e+00 0.0000000e+00 6.0000000e+00 
3.5000000e+00 0.0000000e+00 9.0000000e+00 
3.5000000e+00 0.0000000e+00 1.2000000e+01 
3.5000000e+00 0.0000000e+00 1.5000000e+01 
3.5000000e+00 0.0000000e+00 1.8000000e+01 
4.0000000e+00 0.0000000e+00 3.0000000e+00 
4.0000000e+00 0.0000000e+00 6.0000000e+00 
4.0000000e+00 0.0000000e+00 9.0000000e+00 
4.0000000e+00 0.0000000e+00 1.2000000e+01 
4.0000000e+00 0.0000000e+00 1.5000000e+01 
4.0000000e+00 0.0000000e+00 1.8000000e+01 
4.5000000e+00 0.0000000e+00 3.0000000e+00 
4.5000000e+00 0.0000000e+00 6.0000000e+00 
4.5000000e+00 0.0000000e+00 9.0000000e+00 
4.5000000e+00 0.0000000e+00 1.2000000e+01 
4.5000000e+00 0.0000000e+00 1.5000000e+01 
4.5000000e+00 0.0000000e+00 1.8000000e+01 
5.0000000e+00 0.0000000e+00 3.0000000e+00 
5.0000000e+00 0.0000000e+00 6.0000000e+00 
5.0000000e+00 0.0000000e+00 9.0000000e+00 
5.0000000e+00 0.0000000e+00 1.2000000e+01 
5.0000000e+00 0.0000000e+00 1.5000000e+01 
5.0000000e+00 0.0000000e+00 1.8000000e+01 
5.5000000e+00 0.0000000e+00 3.0000000e+00 
5.5000000e+00 0.0000000e+00 6.0000000e+00 
5.5000000e+00 0.0000000e+00 9.0000000e+00 
5.5000000e+00 0.0000000e+00 1.2000000e+01 
5.5000000e+00 0.0000000e+00 1.5000000e+01 
5.5000000e+00 0.0000000e+00 1.8000000e+01 
6.0000000e+00 0.0000000e+00 0.0000000e+00 
6.0000000e+00 0.0000000e+00 2.5000000e-01 
6.0000000e+00 0.0000000e+00 5.0000000e-01 
6.0000000e+00 0.0000000e+00 7.5000000e-01 
6.0000000e+00 0.0000000e+00 1.0000000e+00 
6.0000000e+00 0.0000000e+00 1.2500000e+00 
6.0000000e+00 0.0000000e+00 1.5000000e+00 
6.0000000e+00 0.0000000e+00 1.7500000e+00 
6.0000000e+00 0.0000000e+00 2.0000000e+00 
6.0000000e+00 0.0000000e+00 2.2500000e+00 
6.0000000e+00 0.0000000e+00 2.5000000e+00 
6.0000000e+00 0.0000000e+00 2.7500000e+00 
6.0000000e+00 0.0000000e+00 3.0000000e+00 
6.0000000e+00 0.0000000e+00 3.2500000e+00 
6.0000000e+00 0.0000000e+00 3.5000000e+00 
6.0000000e+00 0.0000000e+00 3.7500000e+00 
6.0000000e+00 0.0000000e+00 4.0000000e+00 
6.0000000e+00 0.0000000e+00 4.2500000e+00 
6.0000000e+00 0.0000000e+00 4.5000000e+00 
6.0000000e+00 0.0000000e+00 4.7500000e+00 
6.0000000e+00 0.0000000e+00 5.0000000e+00 
6.0000000e+00 0.0000000e+00 5.2500000e+00 
6.0000000e+00 0.0000000e+00 5.5000000e+00 
6.0000000e+00 0.0000000e+00 5.7500000e+00 
6.0000000e+00 0.0000000e+00 6.0000000e+00 
6.0000000e+00 0.0000000e+00 6.2500000e+00 
6.0000000e+00 0.0000000e+00 6.5000000e+00 
6.0000000e+00 0.0000000e+00 6.7500000e+00 
6.0000000e+00 0.0000000e+00 7.0000000e+00 
6.0000000e+00 0.0000000e+00 7.2500000e+00 
6.0000000e+00 0.0000000e+00 7.5000000e+00 
6.0000000e+00 0.0000000e+00 7.7500000e+00 
6.0000000e+00 0.0000000e+00 8.0000000e+00 
6.0000000e+00 0.0000000e+00 8.2500000e+00 
6.0000000e+00 0.0000000e+00 8.5000000e+00 
6.0000000e+00 0.0000000e+00 8.7500000e+00 
6.0000000e+00 0.0000000e+00 9.0000000e+00 
6.0000000e+00 0.0000000e+00 9.2500000e+00 
6.0000000e+00 0.0000000e+00 9.5000000e+00 
6.0000000e+00 0.0000000e+00 9.7500000e+00 
6.0000000e+00 0.0000000e+00 1.0000000e+01 
6.0000000e+00 0.0000000e+00 1.0250000e+01 
6.0000000e+00 0.0000000e+00 1.0500000e+01 
6.0000000e+00 0.0000000e+00 1.0750000e+01 
6.0000000e+00 0.0000000e+00 1.1000000e+01 
6.0000000e+00 0.0000000e+00 1.1250000e+01 
6.0000000e+00 0.0000000e+00 1.1500000e+01 
6.0000000e+00 0.0000000e+00 1.1750000e+01 
6.0000000e+00 0.0000000e+00 1.2000000e+01 
6.0000000e+00 0.0000000e+00 1.2250000e+01 
6.0000000e+00 0.0000000e+00 1.2500000e+01 
6.0000000e+00 0.0000000e+00 1.2750000e+01 
6.0000000e+00 0.0000000e+00 1.3000000e+01 
6.0000000e+00 0.0000000e+00 1.3250000e+01 
6.0000000e+00 0.0000000e+00 1.3500000e+01 
6.0000000e+00 0.0000000e+00 1.3750000e+01 
6.0000000e+00 0.0000000e+00 1.4000000e+01 
6.0000000e+00 0.0000000e+00 1.4250000e+01 
6.0000000e+00 0.0000000e+00 1.4500000e+01 
6.0000000e+00 0.0000000e+00 1.4750000e+01 
6.0000000e+00 0.0000000e+00 1.5000000e+01 
6.0000000e+00 0.0000000e+00 1.5250000e+01 
6.0000000e+00 0.0000000e+00 1.5500000e+01 
6.0000000e+00 0.0000000e+00 1.5750000e+01 
6.0000000e+00 0.0000000e+00 1.6000000e+01 
6.0000000e+00 0.0000000e+00 1.6250000e+01 
6.0000000e+00 0.0000000e+00 1.6500000e+01 
6.0000000e+00 0.0000000e+00 1.6750000e+01 
6.0000000e+00 0.0000000e+00 1.7000000e+01 
6.0000000e+00 0.0000000e+00 1.7250000e+01 
6.0000000e+00 0.0000000e+00 1.7500000e+01 
6.0000000e+00 0.0000000e+00 1.7750000e+01 
6.0000000e+00 0.0000000e+00 1.8000000e+01 

CELLS 216 648
2 0 1
2 1 2
2 2 3
2 3 4
2 4 5
2 5 6
2 6 7
2 7 8
2 8 9
2 9 10
2 10 11
2 11 12
2 12 13
2 13 14
2 14 15
2 15 16
2 16 17
2 17 18
2 18 19
2 19 20
2 20 21
2 21 22
2 22 23
2 23 24
2 24 25
2 25 26
2 26 27
2 27 28
2 28 29
2 29 30
2 30 31
2 31 32
2 32 33
2 33 34
2 34 35
2 35 36
2 36 37
2 37 38
2 38 39
2 39 40
2 40 41
2 41 42
2 42 43
2 43 44
2 44 45
2 45 46
2 46 47
2 47 48
2 48 49
2 49 50
2 50 51
2 51 52
2 52 53
2 53 54
2 54 55
2 55 56
2 56 57
2 57 58
2 58 59
2 59 60
2 60 61
2 61 62
2 62 63
2 63 64
2 64 65
2 65 66
2 66 67
2 67 68
2 68 69
2 69 70
2 70 71
2 71 72
2 139 140
2 140 141
2 141 142
2 142 143
2 143 144
2 144 145
2 145 146
2 146 147
2 147 148
2 148 149
2 149 150
2 150 151
2 151 152
2 152 153
2 153 154
2 154 155
2 155 156
2 156 157
2 157 158
2 158 159
2 159 160
2 160 161
2 161 162
2 162 163
2 163 164
2 164 165
2 165 166
2 166 167
2 167 168
2 168 169
2 169 170
2 170 171
2 171 172
2 172 173
2 173 174
2 174 175
2 175 176
2 176 177
2 177 178
2 178 179
2 179 180
2 180 181
2 181 182
2 182 183
2 183 184
2 184 185
2 185 186
2 186 187
2 187 188
2 188 189
2 189 190
2 190 191
2 191 192
2 192 193
2 193 194
2 194 195
2 195 196
2 196 197
2 197 198
2 198 199
2 199 200
2 200 201
2 201 202
2 202 203
2 203 204
2 204 205
2 205 206
2 206 207
2 207 208
2 208 209
2 209 210
2 210 211
2 12 73
2 73 79
2 79 85
2 85 91
2 91 97
2 97 103
2 103 109
2 109 115
2 115 121
2 121 127
2 127 133
2 133 151
2 24 74
2 74 80
2 80 86
2 86 92
2 92 98
2 98 104
2 104 110
2 110 116
2 116 122
2 122 128
2 128 134
2 134 163
2 36 75
2 75 81
2 81 87
2 87 93
2 93 99
2 99 105
2 105 111
2 111 117
2 117 123
2 123 129
2 129 135
2 135 175
2 48 76
2 76 82
2 82 88
2 88 94
2 94 100
2 100 106
2 106 112
2 112 118
2 118 124
2 124 130
2 130 136
2 136 187
2 60 77
2 77 83
2 83 89
2 89 95
2 95 101
2 101 107
2 107 113
2 113 119
2 119 125
2 125 131
2 131 137
2 137 199
2 72 78
2 78 84
2 84 90
2 90 96
2 96 102
2 102 108
2 108 114
2 114 120
2 120 126
2 126 132
2 132 138
2 138 211

CELL_TYPES 216
3
3
3
3
3
3
3
3
3
3
3
3
3
3
3
3
3
3
3
3
3
3
3
3
3
3
3
3
3
3
3
3
3
3
3
3
3
3
3
3
3
3
3
3
3
3
3
3
3
3
3
3
3
3
3
3
3
3
3
3
3
3
3
3
3
3
3
3
3
3
3
3
3
3
3
3
3
3
3
3
3
3
3
3
3
3
3
3
3
3
3
3
3
3
3
3
3
3
3
3
3
3
3
3
3
3
3
3
3
3
3
3
3
3
3
3
3
3
3
3
3
3
3
3
3
3
3
3
3
3
3
3
3
3
3
3
3
3
3
3
3
3
3
3
3
3
3
3
3
3
3
3
3
3
3
3
3
3
3
3
3
3
3
3
3
3
3
3
3
3
3
3
3
3
3
3
3
3
3
3
3
3
3
3
3
3
3
3
3
3
3
3
3
3
3
3
3
3
3
3
3
3
3
3
3
3
3
3
3
3
3
3
3
3
3
3
POINT_DATA 212
FIELD FieldData 3
ADJOINT_DISPLACEMENT 3 212  float
0.0000000e+00 0.0000000e+00 0.0000000e+00 
-1.3260616e-04 0.0000000e+00 -1.5701164e-15 
-2.6627365e-04 0.0000000e+00 -3.1402328e-15 
-4.0206380e-04 0.0000000e+00 -4.7103489e-15 
-5.4103788e-04 0.0000000e+00 -6.2804655e-15 
-6.8425725e-04 0.0000000e+00 -7.8505817e-15 
-8.3278329e-04 0.0000000e+00 -9.4206979e-15 
-9.8767725e-04 0.0000000e+00 -1.0990814e-14 
-1.1500004e-03 0.0000000e+00 -1.2560931e-14 
-1.3208141e-03 0.0000000e+00 -1.4131047e-14 
-1.5011799e-03 0.0000000e+00 -1.5701163e-14 
-1.6921588e-03 0.0000000e+00 -1.7271280e-14 
-1.8948122e-03 0.0000000e+00 -1.8841396e-14 
-2.1308083e-03 0.0000000e+00 5.0192590e-08 
-2.4168405e-03 0.0000000e+00 1.0038520e-07 
-2.7465066e-03 0.0000000e+00 1.5057780e-07 
-3.1134051e-03 0.0000000e+00 2.0077042e-07 
-3.5111345e-03 0.0000000e+00 2.5096301e-07 
-3.9332928e-03 0.0000000e+00 3.0115564e-07 
-4.3734792e-03 0.0000000e+00 3.5134823e-07 
-4.8252908e-03 0.0000000e+00 4.0154086e-07 
-5.2823266e-03 0.0000000e+00 4.5173346e-07 
-5.7381853e-03 0.0000000e+00 5.0192608e-07 
-6.1864643e-03 0.0000000e+00 5.5211871e-07 
-6.6207629e-03 0.0000000e+00 6.0231127e-07 
-7.1107214e-03 0.0000000e+00 8.5329032e-07 
-7.7488790e-03 0.0000000e+00 1.1042694e-06 
-8.5631832e-03 0.0000000e+00 1.3552483e-06 
-9.5815808e-03 0.0000000e+00 1.6062273e-06 
-1.0832017e-02 0.0000000e+00 1.8572064e-06 
-1.2342441e-02 0.0000000e+00 2.1081853e-06 
-1.4140798e-02 0.0000000e+00 2.3591645e-06 
-1.6255036e-02 0.0000000e+00 2.6101434e-06 
-1.8713100e-02 0.0000000e+00 2.8611225e-06 
-2.1542938e-02 0.0000000e+00 3.1121015e-06 
-2.4772499e-02 0.0000000e+00 3.3630804e-06 
-2.8429724e-02 0.0000000e+00 3.6140596e-06 
-3.2929432e-02 0.0000000e+00 4.8188417e-06 
-3.8587645e-02 0.0000000e+00 6.0236239e-06 
-4.5284130e-02 0.0000000e+00 7.2284065e-06 
-5.2898657e-02 0.0000000e+00 8.4331887e-06 
-6.1310992e-02 0.0000000e+00 9.6379708e-06 
-7.0400901e-02 0.0000000e+00 1.0842753e-05 
-8.0048159e-02 0.0000000e+00 1.2047536e-05 
-9.0132527e-02 0.0000000e+00 1.3252318e-05 
-1.0053377e-01 0.0000000e+00 1.4457100e-05 
-1.1113166e-01 0.0000000e+00 1.5661883e-05 
-1.2180597e-01 0.0000000e+00 1.6866665e-05 
-1.3243645e-01 0.0000000e+00 1.8071447e-05 
-1.4464602e-01 0.0000000e+00 2.3844763e-05 
-1.6048118e-01 0.0000000e+00 2.9618079e-05 
-1.8045714e-01 0.0000000e+00 3.5391393e-05 
-2.0508906e-01 0.0000000e+00 4.1164709e-05 
-2.3489214e-01 0.0000000e+00 4.6938025e-05 
-2.7038157e-01 0.0000000e+00 5.2711341e-05 
-3.1207252e-01 0.0000000e+00 5.8484657e-05 
-3.6048019e-01 0.0000000e+00 6.4257976e-05 
-4.1611975e-01 0.0000000e+00 7.0031288e-05 
-4.7950640e-01 0.0000000e+00 7.5804608e-05 
-5.5115533e-01 0.0000000e+00 8.1577920e-05 
-6.3158172e-01 0.0000000e+00 8.7351240e-05 
-7.1232909e-01 0.0000000e+00 8.1879094e-05 
-7.8486717e-01 0.0000000e+00 7.6406948e-05 
-8.4960020e-01 0.0000000e+00 7.0934802e-05 
-9.0693253e-01 0.0000000e+00 6.5462656e-05 
-9.5726854e-01 0.0000000e+00 5.9990514e-05 
-1.0010126e+00 0.0000000e+00 5.4518372e-05 
-1.0385687e+00 0.0000000e+00 4.9046226e-05 
-1.0703417e+00 0.0000000e+00 4.3574084e-05 
-1.0967355e+00 0.0000000e+00 3.8101938e-05 
-1.1181545e+00 0.0000000e+00 3.2629796e-05 
-1.1350033e+00 0.0000000e+00 2.7157650e-05 
-1.1476859e+00 0.0000000e+00 2.1685506e-05 
-1.8945843e-03 0.0000000e+00 3.3466885e-04 
-6.6218120e-03 0.0000000e+00 5.8721384e-04 
-2.8425200e-02 0.0000000e+00 6.2014074e-03 
-1.3245586e-01 0.0000000e+00 1.5005077e-02 
-6.3157833e-01 0.0000000e+00 2.0489167e-01 
-1.1476736e+00 0.0000000e+00 1.4444756e-02 
-1.8943563e-03 0.0000000e+00 5.2082934e-04 
-6.6228607e-03 0.0000000e+00 7.1648468e-04 
-2.8420676e-02 0.0000000e+00 9.6064387e-03 
-1.3247526e-01 0.0000000e+00 1.9287856e-02 
-6.3157493e-01 0.0000000e+00 -2.4570726e-02 
-1.1476612e+00 0.0000000e+00 1.6687902e-02 
-1.8941285e-03 0.0000000e+00 5.8477931e-04 
-6.6239098e-03 0.0000000e+00 4.9361453e-04 
-2.8416149e-02 0.0000000e+00 1.0718442e-02 
-1.3249466e-01 0.0000000e+00 1.5260039e-02 
-6.3157153e-01 0.0000000e+00 -1.9419174e-01 
-1.1476488e+00 0.0000000e+00 9.6181901e-03 
-1.8939006e-03 0.0000000e+00 5.5281661e-04 
-6.6249585e-03 0.0000000e+00 2.3803208e-05 
-2.8411625e-02 0.0000000e+00 1.0037152e-02 
-1.3251407e-01 0.0000000e+00 5.3152558e-03 
-6.3156819e-01 0.0000000e+00 -3.0986330e-01 
-1.1476365e+00 0.0000000e+00 -3.8973107e-03 
-1.8936726e-03 0.0000000e+00 4.5123906e-04 
-6.6260076e-03 0.0000000e+00 -5.8774959e-04 
-2.8407099e-02 0.0000000e+00 8.0623031e-03 
-1.3253348e-01 0.0000000e+00 -8.1528621e-03 
-6.3156480e-01 0.0000000e+00 -3.7747735e-01 
-1.1476241e+00 0.0000000e+00 -2.0991534e-02 
-1.8934448e-03 0.0000000e+00 3.0634453e-04 
-6.6270567e-03 0.0000000e+00 -1.2358441e-03 
-2.8402574e-02 0.0000000e+00 5.2936287e-03 
-1.3255288e-01 0.0000000e+00 -2.2750683e-02 
-6.3156140e-01 0.0000000e+00 -4.0292582e-01 
-1.1476119e+00 0.0000000e+00 -3.8797416e-02 
-1.8932169e-03 0.0000000e+00 1.4443089e-04 
-6.6281054e-03 0.0000000e+00 -1.8152806e-03 
-2.8398050e-02 0.0000000e+00 2.2308643e-03 
-1.3257228e-01 0.0000000e+00 -3.6084577e-02 
-6.3155800e-01 0.0000000e+00 -3.9210060e-01 
-1.1475995e+00 0.0000000e+00 -5.4447882e-02 
-1.8929889e-03 0.0000000e+00 -8.2040697e-06 
-6.6291546e-03 0.0000000e+00 -2.2208595e-03 
-2.8393524e-02 0.0000000e+00 -6.2625634e-04 
-1.3259168e-01 0.0000000e+00 -4.5760915e-02 
-6.3155460e-01 0.0000000e+00 -3.5089371e-01 
-1.1475872e+00 0.0000000e+00 -6.5075867e-02 
-1.8927611e-03 0.0000000e+00 -1.2526248e-04 
-6.6302032e-03 0.0000000e+00 -2.3473806e-03 
-2.8388999e-02 0.0000000e+00 -2.7779988e-03 
-1.3261110e-01 0.0000000e+00 -4.9386065e-02 
-6.3155127e-01 0.0000000e+00 -2.8519699e-01 
-1.1475748e+00 0.0000000e+00 -6.7814313e-02 
-1.8925332e-03 0.0000000e+00 -1.8044650e-04 
-6.6312524e-03 0.0000000e+00 -2.0896448e-03 
-2.8384473e-02 0.0000000e+00 -3.7246288e-03 
-1.3263050e-01 0.0000000e+00 -4.4566393e-02 
-6.3154787e-01 0.0000000e+00 -2.0090239e-01 
-1.1475624e+00 0.0000000e+00 -5.9796140e-02 
-1.8923052e-03 0.0000000e+00 -1.4745828e-04 
-6.6323010e-03 0.0000000e+00 -1.3424519e-03 
-2.8379949e-02 0.0000000e+00 -2.9664119e-03 
-1.3264990e-01 0.0000000e+00 -2.8908273e-02 
-6.3154447e-01 0.0000000e+00 -1.0390188e-01 
-1.1475501e+00 0.0000000e+00 -3.8154285e-02 
0.0000000e+00 0.0000000e+00 0.0000000e+00 
-1.8296795e-04 0.0000000e+00 1.5615366e-15 
-3.6487461e-04 0.0000000e+00 3.1230732e-15 
-5.4465857e-04 0.0000000e+00 4.6846102e-15 
-7.2125864e-04 0.0000000e+00 6.2461467e-15 
-8.9361332e-04 0.0000000e+00 7.8076829e-15 
-1.0606615e-03 0.0000000e+00 9.3692203e-15 
-1.2213417e-03 0.0000000e+00 1.0930757e-14 
-1.3745927e-03 0.0000000e+00 1.2492293e-14 
-1.5193530e-03 0.0000000e+00 1.4053830e-14 
-1.6545614e-03 0.0000000e+00 1.5615366e-14 
-1.7791566e-03 0.0000000e+00 1.7176902e-14 
-1.8920773e-03 0.0000000e+00 1.8738437e-14 
-2.0111019e-03 0.0000000e+00 -5.0192590e-08 
-2.1589843e-03 0.0000000e+00 -1.0038520e-07 
-2.3421261e-03 0.0000000e+00 -1.5057780e-07 
-2.5669292e-03 0.0000000e+00 -2.0077042e-07 
-2.8397948e-03 0.0000000e+00 -2.5096301e-07 
-3.1671247e-03 0.0000000e+00 -3.0115564e-07 
-3.5553209e-03 0.0000000e+00 -3.5134823e-07 
-4.0107849e-03 0.0000000e+00 -4.0154086e-07 
-4.5399177e-03 0.0000000e+00 -4.5173346e-07 
-5.1491219e-03 0.0000000e+00 -5.0192608e-07 
-5.8447989e-03 0.0000000e+00 -5.5211871e-07 
-6.6333502e-03 0.0000000e+00 -6.0231127e-07 
-7.6029347e-03 0.0000000e+00 -8.5329032e-07 
-8.8188127e-03 0.0000000e+00 -1.1042694e-06 
-1.0253036e-02 0.0000000e+00 -1.3552483e-06 
-1.1877661e-02 0.0000000e+00 -1.6062273e-06 
-1.3664737e-02 0.0000000e+00 -1.8572064e-06 
-1.5586320e-02 0.0000000e+00 -2.1081853e-06 
-1.7614463e-02 0.0000000e+00 -2.3591645e-06 
-1.9721217e-02 0.0000000e+00 -2.6101434e-06 
-2.1878637e-02 0.0000000e+00 -2.8611225e-06 
-2.4058776e-02 0.0000000e+00 -3.1121015e-06 
-2.6233688e-02 0.0000000e+00 -3.3630804e-06 
-2.8375424e-02 0.0000000e+00 -3.6140596e-06 
-3.0818775e-02 0.0000000e+00 -4.8188417e-06 
-3.3997316e-02 0.0000000e+00 -6.0236239e-06 
-3.8031276e-02 0.0000000e+00 -7.2284065e-06 
-4.3040894e-02 0.0000000e+00 -8.4331887e-06 
-4.9146399e-02 0.0000000e+00 -9.6379708e-06 
-5.6468025e-02 0.0000000e+00 -1.0842753e-05 
-6.5126002e-02 0.0000000e+00 -1.2047536e-05 
-7.5240560e-02 0.0000000e+00 -1.3252318e-05 
-8.6931936e-02 0.0000000e+00 -1.4457100e-05 
-1.0032037e-01 0.0000000e+00 -1.5661883e-05 
-1.1552608e-01 0.0000000e+00 -1.6866665e-05 
-1.3266930e-01 0.0000000e+00 -1.8071447e-05 
-1.5371758e-01 0.0000000e+00 -2.3844763e-05 
-1.8021485e-01 0.0000000e+00 -2.9618079e-05 
-2.1164593e-01 0.0000000e+00 -3.5391393e-05 
-2.4749562e-01 0.0000000e+00 -4.1164709e-05 
-2.8724876e-01 0.0000000e+00 -4.6938025e-05 
-3.3039013e-01 0.0000000e+00 -5.2711341e-05 
-3.7640455e-01 0.0000000e+00 -5.8484657e-05 
-4.2477685e-01 0.0000000e+00 -6.4257976e-05 
-4.7499183e-01 0.0000000e+00 -7.0031288e-05 
-5.2653432e-01 0.0000000e+00 -7.5804608e-05 
-5.7888913e-01 0.0000000e+00 -8.1577920e-05 
-6.3154107e-01 0.0000000e+00 -8.7351240e-05 
-6.8410867e-01 0.0000000e+00 -8.1879094e-05 
-7.3628443e-01 0.0000000e+00 -7.6406948e-05 
-7.8766400e-01 0.0000000e+00 -7.0934802e-05 
-8.3784306e-01 0.0000000e+00 -6.5462656e-05 
-8.8641727e-01 0.0000000e+00 -5.9990514e-05 
-9.3298233e-01 0.0000000e+00 -5.4518372e-05 
-9.7713387e-01 0.0000000e+00 -4.9046226e-05 
-1.0184675e+00 0.0000000e+00 -4.3574084e-05 
-1.0565791e+00 0.0000000e+00 -3.8101938e-05 
-1.0910642e+00 0.0000000e+00 -3.2629796e-05 
-1.1215186e+00 0.0000000e+00 -2.7157650e-05 
-1.1475377e+00 0.0000000e+00 -2.1685506e-05 
ADJOINT_ROTATION 3 212  float
0.0000000e+00 -5.2971713e-04 0.0000000e+00 
0.0000000e+00 -5.3183973e-04 0.0000000e+00 
0.0000000e+00 -5.3820771e-04 0.0000000e+00 
0.0000000e+00 -5.4882094e-04 0.0000000e+00 
0.0000000e+00 -5.6367944e-04 0.0000000e+00 
0.0000000e+00 -5.8278325e-04 0.0000000e+00 
0.0000000e+00 -6.0613232e-04 0.0000000e+00 
0.0000000e+00 -6.3372671e-04 0.0000000e+00 
0.0000000e+00 -6.6556636e-04 0.0000000e+00 
0.0000000e+00 -7.0165133e-04 0.0000000e+00 
0.0000000e+00 -7.4198155e-04 0.0000000e+00 
0.0000000e+00 -7.8655710e-04 0.0000000e+00 
0.0000000e+00 -8.3537796e-04 0.0000000e+00 
0.0000000e+00 -1.0483243e-03 0.0000000e+00 
0.0000000e+00 -1.2356640e-03 0.0000000e+00 
0.0000000e+00 -1.3973971e-03 0.0000000e+00 
0.0000000e+00 -1.5335237e-03 0.0000000e+00 
0.0000000e+00 -1.6440435e-03 0.0000000e+00 
0.0000000e+00 -1.7289567e-03 0.0000000e+00 
0.0000000e+00 -1.7882633e-03 0.0000000e+00 
0.0000000e+00 -1.8219632e-03 0.0000000e+00 
0.0000000e+00 -1.8300567e-03 0.0000000e+00 
0.0000000e+00 -1.8125434e-03 0.0000000e+00 
0.0000000e+00 -1.7694234e-03 0.0000000e+00 
0.0000000e+00 -1.7006969e-03 0.0000000e+00 
0.0000000e+00 -2.2376010e-03 0.0000000e+00 
0.0000000e+00 -2.8862925e-03 0.0000000e+00 
0.0000000e+00 -3.6467712e-03 0.0000000e+00 
0.0000000e+00 -4.5190370e-03 0.0000000e+00 
0.0000000e+00 -5.5030901e-03 0.0000000e+00 
0.0000000e+00 -6.5989303e-03 0.0000000e+00 
0.0000000e+00 -7.8065582e-03 0.0000000e+00 
0.0000000e+00 -9.1259731e-03 0.0000000e+00 
0.0000000e+00 -1.0557175e-02 0.0000000e+00 
0.0000000e+00 -1.2100165e-02 0.0000000e+00 
0.0000000e+00 -1.3754941e-02 0.0000000e+00 
0.0000000e+00 -1.5521505e-02 0.0000000e+00 
0.0000000e+00 -2.0395994e-02 0.0000000e+00 
0.0000000e+00 -2.4789553e-02 0.0000000e+00 
0.0000000e+00 -2.8702181e-02 0.0000000e+00 
0.0000000e+00 -3.2133881e-02 0.0000000e+00 
0.0000000e+00 -3.5084650e-02 0.0000000e+00 
0.0000000e+00 -3.7554488e-02 0.0000000e+00 
0.0000000e+00 -3.9543398e-02 0.0000000e+00 
0.0000000e+00 -4.1051377e-02 0.0000000e+00 
0.0000000e+00 -4.2078424e-02 0.0000000e+00 
0.0000000e+00 -4.2624544e-02 0.0000000e+00 
0.0000000e+00 -4.2689733e-02 0.0000000e+00 
0.0000000e+00 -4.2273995e-02 0.0000000e+00 
0.0000000e+00 -5.5746015e-02 0.0000000e+00 
0.0000000e+00 -7.1278788e-02 0.0000000e+00 
0.0000000e+00 -8.8872299e-02 0.0000000e+00 
0.0000000e+00 -1.0852655e-01 0.0000000e+00 
0.0000000e+00 -1.3024154e-01 0.0000000e+00 
0.0000000e+00 -1.5401728e-01 0.0000000e+00 
0.0000000e+00 -1.7985378e-01 0.0000000e+00 
0.0000000e+00 -2.0775101e-01 0.0000000e+00 
0.0000000e+00 -2.3770897e-01 0.0000000e+00 
0.0000000e+00 -2.6972771e-01 0.0000000e+00 
0.0000000e+00 -3.0380717e-01 0.0000000e+00 
0.0000000e+00 -3.3994737e-01 0.0000000e+00 
0.0000000e+00 -3.0630136e-01 0.0000000e+00 
0.0000000e+00 -2.7427265e-01 0.0000000e+00 
0.0000000e+00 -2.4386126e-01 0.0000000e+00 
0.0000000e+00 -2.1506716e-01 0.0000000e+00 
0.0000000e+00 -1.8789038e-01 0.0000000e+00 
0.0000000e+00 -1.6233090e-01 0.0000000e+00 
0.0000000e+00 -1.3838872e-01 0.0000000e+00 
0.0000000e+00 -1.1606386e-01 0.0000000e+00 
0.0000000e+00 -9.5356293e-02 0.0000000e+00 
0.0000000e+00 -7.6266035e-02 0.0000000e+00 
0.0000000e+00 -5.8793087e-02 0.0000000e+00 
0.0000000e+00 -4.2937443e-02 0.0000000e+00 
0.0000000e+00 -5.1206339e-04 0.0000000e+00 
0.0000000e+00 -6.8081578e-04 0.0000000e+00 
0.0000000e+00 -9.4362460e-03 0.0000000e+00 
0.0000000e+00 -1.8471908e-02 0.0000000e+00 
0.0000000e+00 -4.7730589e-01 0.0000000e+00 
0.0000000e+00 -1.5710527e-02 0.0000000e+00 
0.0000000e+00 -2.4134450e-04 0.0000000e+00 
0.0000000e+00 1.2866587e-04 0.0000000e+00 
0.0000000e+00 -4.3504564e-03 0.0000000e+00 
0.0000000e+00 5.4291566e-04 0.0000000e+00 
0.0000000e+00 3.9711943e-01 0.0000000e+00 
0.0000000e+00 5.7822545e-03 0.0000000e+00 
0.0000000e+00 -2.3221317e-05 0.0000000e+00 
0.0000000e+00 7.2774803e-04 0.0000000e+00 
0.0000000e+00 -2.6413528e-04 0.0000000e+00 
0.0000000e+00 1.4770477e-02 0.0000000e+00 
0.0000000e+00 2.8332859e-01 0.0000000e+00 
0.0000000e+00 2.1540903e-02 0.0000000e+00 
0.0000000e+00 1.4230618e-04 0.0000000e+00 
0.0000000e+00 1.1164307e-03 0.0000000e+00 
0.0000000e+00 2.8227172e-03 0.0000000e+00 
0.0000000e+00 2.4210777e-02 0.0000000e+00 
0.0000000e+00 1.8132164e-01 0.0000000e+00 
0.0000000e+00 3.1565413e-02 0.0000000e+00 
0.0000000e+00 2.5523800e-04 0.0000000e+00 
0.0000000e+00 1.2947139e-03 0.0000000e+00 
0.0000000e+00 4.9101012e-03 0.0000000e+00 
0.0000000e+00 2.8863816e-02 0.0000000e+00 
0.0000000e+00 9.1098532e-02 0.0000000e+00 
0.0000000e+00 3.5855792e-02 0.0000000e+00 
0.0000000e+00 3.1557411e-04 0.0000000e+00 
0.0000000e+00 1.2625976e-03 0.0000000e+00 
0.0000000e+00 5.9980163e-03 0.0000000e+00 
0.0000000e+00 2.8729593e-02 0.0000000e+00 
0.0000000e+00 1.2659291e-02 0.0000000e+00 
0.0000000e+00 3.4412038e-02 0.0000000e+00 
0.0000000e+00 3.2331457e-04 0.0000000e+00 
0.0000000e+00 1.0200819e-03 0.0000000e+00 
0.0000000e+00 6.0864631e-03 0.0000000e+00 
0.0000000e+00 2.3808109e-02 0.0000000e+00 
0.0000000e+00 -5.3996090e-02 0.0000000e+00 
0.0000000e+00 2.7234145e-02 0.0000000e+00 
0.0000000e+00 2.7845931e-04 0.0000000e+00 
0.0000000e+00 5.6716666e-04 0.0000000e+00 
0.0000000e+00 5.1754410e-03 0.0000000e+00 
0.0000000e+00 1.4099362e-02 0.0000000e+00 
0.0000000e+00 -1.0886762e-01 0.0000000e+00 
0.0000000e+00 1.4322119e-02 0.0000000e+00 
0.0000000e+00 1.8100838e-04 0.0000000e+00 
0.0000000e+00 -9.6148055e-05 0.0000000e+00 
0.0000000e+00 3.2649506e-03 0.0000000e+00 
0.0000000e+00 -3.9664507e-04 0.0000000e+00 
0.0000000e+00 -1.5195528e-01 0.0000000e+00 
0.0000000e+00 -4.3240408e-03 0.0000000e+00 
0.0000000e+00 3.0961757e-05 0.0000000e+00 
0.0000000e+00 -9.6986222e-04 0.0000000e+00 
0.0000000e+00 3.5499129e-04 0.0000000e+00 
0.0000000e+00 -1.9679915e-02 0.0000000e+00 
0.0000000e+00 -1.8325908e-01 0.0000000e+00 
0.0000000e+00 -2.8704336e-02 0.0000000e+00 
0.0000000e+00 -1.7168056e-04 0.0000000e+00 
0.0000000e+00 -2.0539758e-03 0.0000000e+00 
0.0000000e+00 -3.5544366e-03 0.0000000e+00 
0.0000000e+00 -4.3750446e-02 0.0000000e+00 
0.0000000e+00 -2.0277902e-01 0.0000000e+00 
0.0000000e+00 -5.8818765e-02 0.0000000e+00 
0.0000000e+00 -7.3257938e-04 0.0000000e+00 
0.0000000e+00 -7.3045673e-04 0.0000000e+00 
0.0000000e+00 -7.2408881e-04 0.0000000e+00 
0.0000000e+00 -7.1347557e-04 0.0000000e+00 
0.0000000e+00 -6.9861708e-04 0.0000000e+00 
0.0000000e+00 -6.7951326e-04 0.0000000e+00 
0.0000000e+00 -6.5616419e-04 0.0000000e+00 
0.0000000e+00 -6.2856980e-04 0.0000000e+00 
0.0000000e+00 -5.9673015e-04 0.0000000e+00 
0.0000000e+00 -5.6064519e-04 0.0000000e+00 
0.0000000e+00 -5.2031490e-04 0.0000000e+00 
0.0000000e+00 -4.7573939e-04 0.0000000e+00 
0.0000000e+00 -4.2691856e-04 0.0000000e+00 
0.0000000e+00 -5.2954629e-04 0.0000000e+00 
0.0000000e+00 -6.5778068e-04 0.0000000e+00 
0.0000000e+00 -8.1162172e-04 0.0000000e+00 
0.0000000e+00 -9.9106936e-04 0.0000000e+00 
0.0000000e+00 -1.1961237e-03 0.0000000e+00 
0.0000000e+00 -1.4267846e-03 0.0000000e+00 
0.0000000e+00 -1.6830520e-03 0.0000000e+00 
0.0000000e+00 -1.9649263e-03 0.0000000e+00 
0.0000000e+00 -2.2724071e-03 0.0000000e+00 
0.0000000e+00 -2.6054943e-03 0.0000000e+00 
0.0000000e+00 -2.9641883e-03 0.0000000e+00 
0.0000000e+00 -3.3484891e-03 0.0000000e+00 
0.0000000e+00 -4.3895557e-03 0.0000000e+00 
0.0000000e+00 -5.3188354e-03 0.0000000e+00 
0.0000000e+00 -6.1363275e-03 0.0000000e+00 
0.0000000e+00 -6.8420330e-03 0.0000000e+00 
0.0000000e+00 -7.4359505e-03 0.0000000e+00 
0.0000000e+00 -7.9180812e-03 0.0000000e+00 
0.0000000e+00 -8.2884245e-03 0.0000000e+00 
0.0000000e+00 -8.5469810e-03 0.0000000e+00 
0.0000000e+00 -8.6937500e-03 0.0000000e+00 
0.0000000e+00 -8.7287314e-03 0.0000000e+00 
0.0000000e+00 -8.6519262e-03 0.0000000e+00 
0.0000000e+00 -8.4633334e-03 0.0000000e+00 
0.0000000e+00 -1.1163627e-02 0.0000000e+00 
0.0000000e+00 -1.4344851e-02 0.0000000e+00 
0.0000000e+00 -1.8007005e-02 0.0000000e+00 
0.0000000e+00 -2.2150088e-02 0.0000000e+00 
0.0000000e+00 -2.6774103e-02 0.0000000e+00 
0.0000000e+00 -3.1879045e-02 0.0000000e+00 
0.0000000e+00 -3.7464920e-02 0.0000000e+00 
0.0000000e+00 -4.3531723e-02 0.0000000e+00 
0.0000000e+00 -5.0079457e-02 0.0000000e+00 
0.0000000e+00 -5.7108123e-02 0.0000000e+00 
0.0000000e+00 -6.4617716e-02 0.0000000e+00 
0.0000000e+00 -7.2608240e-02 0.0000000e+00 
0.0000000e+00 -9.5434569e-02 0.0000000e+00 
0.0000000e+00 -1.1620015e-01 0.0000000e+00 
0.0000000e+00 -1.3490500e-01 0.0000000e+00 
0.0000000e+00 -1.5154909e-01 0.0000000e+00 
0.0000000e+00 -1.6613245e-01 0.0000000e+00 
0.0000000e+00 -1.7865506e-01 0.0000000e+00 
0.0000000e+00 -1.8911693e-01 0.0000000e+00 
0.0000000e+00 -1.9751805e-01 0.0000000e+00 
0.0000000e+00 -2.0385842e-01 0.0000000e+00 
0.0000000e+00 -2.0813806e-01 0.0000000e+00 
0.0000000e+00 -2.1035695e-01 0.0000000e+00 
0.0000000e+00 -2.1051510e-01 0.0000000e+00 
0.0000000e+00 -2.0975630e-01 0.0000000e+00 
0.0000000e+00 -2.0738019e-01 0.0000000e+00 