# vtk DataFile Version 4.0
vtk output
ASCII
DATASET UNSTRUCTURED_GRID
POINTS 31 float
0.0000000e+00 0.0000000e+00 0.0000000e+00 
0.0000000e+00 2.0000000e-01 0.0000000e+00 
0.0000000e+00 4.0000001e-01 0.0000000e+00 
0.0000000e+00 6.0000002e-01 0.0000000e+00 
0.0000000e+00 8.0000001e-01 0.0000000e+00 
0.0000000e+00 1.0000000e+00 0.0000000e+00 
0.0000000e+00 1.2000000e+00 0.0000000e+00 
0.0000000e+00 1.4000000e+00 0.0000000e+00 
0.0000000e+00 1.6000000e+00 0.0000000e+00 
0.0000000e+00 1.8000000e+00 0.0000000e+00 
0.0000000e+00 2.0000000e+00 0.0000000e+00 
2.0000000e-01 2.0000000e+00 0.0000000e+00 
4.0000001e-01 2.0000000e+00 0.0000000e+00 
6.0000002e-01 2.0000000e+00 0.0000000e+00 
8.0000001e-01 2.0000000e+00 0.0000000e+00 
1.0000000e+00 2.0000000e+00 0.0000000e+00 
1.2000000e+00 2.0000000e+00 0.0000000e+00 
1.4000000e+00 2.0000000e+00 0.0000000e+00 
1.6000000e+00 2.0000000e+00 0.0000000e+00 
1.8000000e+00 2.0000000e+00 0.0000000e+00 
2.0000000e+00 2.0000000e+00 0.0000000e+00 
2.0000000e+00 1.8000000e+00 0.0000000e+00 
2.0000000e+00 1.6000000e+00 0.0000000e+00 
2.0000000e+00 1.4000000e+00 0.0000000e+00 
2.0000000e+00 1.2000000e+00 0.0000000e+00 
2.0000000e+00 1.0000000e+00 0.0000000e+00 
2.0000000e+00 8.0000001e-01 0.0000000e+00 
2.0000000e+00 6.0000002e-01 0.0000000e+00 
2.0000000e+00 4.0000001e-01 0.0000000e+00 
2.0000000e+00 2.0000000e-01 0.0000000e+00 
2.0000000e+00 0.0000000e+00 0.0000000e+00 

CELLS 30 90
2 0 1
2 1 2
2 2 3
2 3 4
2 4 5
2 5 6
2 6 7
2 7 8
2 8 9
2 9 10
2 10 11
2 11 12
2 12 13
2 13 14
2 14 15
2 15 16
2 16 17
2 17 18
2 18 19
2 19 20
2 20 21
2 21 22
2 22 23
2 23 24
2 24 25
2 25 26
2 26 27
2 27 28
2 28 29
2 29 30

CELL_TYPES 30
3
3
3
3
3
3
3
3
3
3
3
3
3
3
3
3
3
3
3
3
3
3
3
3
3
3
3
3
3
3
POINT_DATA 31
FIELD FieldData 6
DISPLACEMENT 3 31  float
0.0000000e+00 0.0000000e+00 0.0000000e+00 
-1.8805194e-05 -3.3184006e-06 0.0000000e+00 
-6.6850764e-05 -6.6368011e-06 0.0000000e+00 
-1.3158168e-04 -9.9552017e-06 0.0000000e+00 
-2.0044293e-04 -1.3273602e-05 0.0000000e+00 
-2.6087946e-04 -1.6592003e-05 0.0000000e+00 
-3.0033631e-04 -1.9910403e-05 0.0000000e+00 
-3.0625839e-04 -2.3228804e-05 0.0000000e+00 
-2.6609068e-04 -2.6547204e-05 0.0000000e+00 
-1.6727819e-04 -2.9865605e-05 0.0000000e+00 
2.7341080e-06 -3.3184006e-05 0.0000000e+00 
2.1872863e-06 -2.7343008e-04 0.0000000e+00 
1.6404648e-06 -5.3139922e-04 0.0000000e+00 
1.0936432e-06 -7.5375818e-04 0.0000000e+00 
5.4682158e-07 -9.0241164e-04 0.0000000e+00 
-1.0107431e-16 -9.5450244e-04 0.0000000e+00 
-5.4682158e-07 -9.0241164e-04 0.0000000e+00 
-1.0936432e-06 -7.5375818e-04 0.0000000e+00 
-1.6404648e-06 -5.3139922e-04 0.0000000e+00 
-2.1872863e-06 -2.7343008e-04 0.0000000e+00 
-2.7341080e-06 -3.3184006e-05 0.0000000e+00 
1.6727819e-04 -2.9865605e-05 0.0000000e+00 
2.6609068e-04 -2.6547204e-05 0.0000000e+00 
3.0625839e-04 -2.3228804e-05 0.0000000e+00 
3.0033631e-04 -1.9910403e-05 0.0000000e+00 
2.6087946e-04 -1.6592003e-05 0.0000000e+00 
2.0044293e-04 -1.3273602e-05 0.0000000e+00 
1.3158168e-04 -9.9552017e-06 0.0000000e+00 
6.6850764e-05 -6.6368011e-06 0.0000000e+00 
1.8805194e-05 -3.3184006e-06 0.0000000e+00 
0.0000000e+00 0.0000000e+00 0.0000000e+00 
REACTION 3 31  float
1.6474424e+03 9.9976562e+03 0.0000000e+00 
-6.9545907e-01 -1.4486324e+01 0.0000000e+00 
-3.9441437e-01 -1.4039584e+01 0.0000000e+00 
-9.7255416e-02 -4.1231370e+00 0.0000000e+00 
1.9854394e-01 8.1374598e+00 0.0000000e+00 
4.9694899e-01 1.5616652e+01 0.0000000e+00 
7.9899079e-01 1.1188883e+01 0.0000000e+00 
1.0983952e+00 -1.2271407e+01 0.0000000e+00 
1.3772113e+00 -6.1889759e+01 0.0000000e+00 
1.6014390e+00 -1.4479166e+02 0.0000000e+00 
-4.2800153e+02 2.1841861e+02 0.0000000e+00 
-6.8304893e+01 2.7439150e-04 0.0000000e+00 
1.2539250e+02 -1.7211419e-02 0.0000000e+00 
2.0268739e+02 9.3244225e-02 0.0000000e+00 
1.4406891e+02 2.9086986e-01 0.0000000e+00 
-1.6728382e-07 3.8834304e-01 0.0000000e+00 
-1.4406891e+02 2.9086986e-01 0.0000000e+00 
-2.0268739e+02 9.3165532e-02 0.0000000e+00 
-1.2539250e+02 -1.7132731e-02 0.0000000e+00 
6.8304893e+01 2.7439129e-04 0.0000000e+00 
4.2800153e+02 2.1841861e+02 0.0000000e+00 
-1.6014395e+00 -1.4479166e+02 0.0000000e+00 
-1.3772107e+00 -6.1889759e+01 0.0000000e+00 
-1.0983958e+00 -1.2271407e+01 0.0000000e+00 
-7.9899037e-01 1.1188883e+01 0.0000000e+00 
-4.9694842e-01 1.5616652e+01 0.0000000e+00 
-1.9854471e-01 8.1374598e+00 0.0000000e+00 
9.7255632e-02 -4.1231370e+00 0.0000000e+00 
3.9441374e-01 -1.4039584e+01 0.0000000e+00 
6.9545990e-01 -1.4486324e+01 0.0000000e+00 
-1.6474424e+03 9.9976562e+03 0.0000000e+00 
ROTATION 3 31  float
0.0000000e+00 0.0000000e+00 0.0000000e+00 
0.0000000e+00 0.0000000e+00 1.7758943e-04 
0.0000000e+00 0.0000000e+00 2.9240374e-04 
0.0000000e+00 0.0000000e+00 3.4444293e-04 
0.0000000e+00 0.0000000e+00 3.3370699e-04 
0.0000000e+00 0.0000000e+00 2.6019596e-04 
0.0000000e+00 0.0000000e+00 1.2390978e-04 
0.0000000e+00 0.0000000e+00 -7.5151518e-05 
0.0000000e+00 0.0000000e+00 -3.3698793e-04 
0.0000000e+00 0.0000000e+00 -6.6159945e-04 
0.0000000e+00 0.0000000e+00 -1.0489861e-03 
0.0000000e+00 0.0000000e+00 -1.2963318e-03 
0.0000000e+00 0.0000000e+00 -1.2389155e-03 
0.0000000e+00 0.0000000e+00 -9.5292774e-04 
0.0000000e+00 0.0000000e+00 -5.1455910e-04 
0.0000000e+00 0.0000000e+00 -5.7653304e-17 
0.0000000e+00 0.0000000e+00 5.1455910e-04 
0.0000000e+00 0.0000000e+00 9.5292774e-04 
0.0000000e+00 0.0000000e+00 1.2389155e-03 
0.0000000e+00 0.0000000e+00 1.2963318e-03 
0.0000000e+00 0.0000000e+00 1.0489861e-03 
0.0000000e+00 0.0000000e+00 6.6159945e-04 
0.0000000e+00 0.0000000e+00 3.3698793e-04 
0.0000000e+00 0.0000000e+00 7.5151518e-05 
0.0000000e+00 0.0000000e+00 -1.2390978e-04 
0.0000000e+00 0.0000000e+00 -2.6019596e-04 
0.0000000e+00 0.0000000e+00 -3.3370699e-04 
0.0000000e+00 0.0000000e+00 -3.4444293e-04 
0.0000000e+00 0.0000000e+00 -2.9240374e-04 
0.0000000e+00 0.0000000e+00 -1.7758943e-04 
0.0000000e+00 0.0000000e+00 0.0000000e+00 
REACTION_MOMENT 3 31  float
0.0000000e+00 0.0000000e+00 -1.0971659e+03 
0.0000000e+00 0.0000000e+00 -1.8292625e-01 
0.0000000e+00 0.0000000e+00 -3.0257732e-01 
0.0000000e+00 0.0000000e+00 -3.5667571e-01 
0.0000000e+00 0.0000000e+00 -3.4552321e-01 
0.0000000e+00 0.0000000e+00 -2.6904878e-01 
0.0000000e+00 0.0000000e+00 -1.2688854e-01 
0.0000000e+00 0.0000000e+00 8.1066608e-02 
0.0000000e+00 0.0000000e+00 3.5365599e-01 
0.0000000e+00 0.0000000e+00 6.8696636e-01 
0.0000000e+00 0.0000000e+00 5.5033255e-01 
0.0000000e+00 0.0000000e+00 1.7866653e-01 
0.0000000e+00 0.0000000e+00 1.7372872e-01 
0.0000000e+00 0.0000000e+00 1.4439826e-01 
0.0000000e+00 0.0000000e+00 8.4089667e-02 
0.0000000e+00 0.0000000e+00 -1.5052137e-10 
0.0000000e+00 0.0000000e+00 -8.4089667e-02 
0.0000000e+00 0.0000000e+00 -1.4440612e-01 
0.0000000e+00 0.0000000e+00 -1.7373659e-01 
0.0000000e+00 0.0000000e+00 -1.7866653e-01 
0.0000000e+00 0.0000000e+00 -5.5033255e-01 
0.0000000e+00 0.0000000e+00 -6.8696642e-01 
0.0000000e+00 0.0000000e+00 -3.5365599e-01 
0.0000000e+00 0.0000000e+00 -8.1066608e-02 
0.0000000e+00 0.0000000e+00 1.2688853e-01 
0.0000000e+00 0.0000000e+00 2.6904884e-01 
0.0000000e+00 0.0000000e+00 3.4552327e-01 
0.0000000e+00 0.0000000e+00 3.5667574e-01 
0.0000000e+00 0.0000000e+00 3.0257729e-01 
0.0000000e+00 0.0000000e+00 1.8292624e-01 
0.0000000e+00 0.0000000e+00 1.0971659e+03 
FORCE 3 31  float
-9.9975020e+03 1.6483824e+03 0.0000000e+00 
-9.9901377e+03 1.6487638e+03 0.0000000e+00 
-9.9756855e+03 1.6493621e+03 0.0000000e+00 
-9.9665186e+03 1.6496327e+03 0.0000000e+00 
-9.9685439e+03 1.6495769e+03 0.0000000e+00 
-9.9805420e+03 1.6491945e+03 0.0000000e+00 
-9.9941689e+03 1.6484836e+03 0.0000000e+00 
-9.9939561e+03 1.6474440e+03 0.0000000e+00 
-9.9573066e+03 1.6460817e+03 0.0000000e+00 
-9.8545010e+03 1.6444164e+03 0.0000000e+00 
-5.4976758e+03 -3.6787229e+03 0.0000000e+00 
-1.1797526e+03 -8.0008945e+03 0.0000000e+00 
-1.2109225e+03 -6.0008687e+03 0.0000000e+00 
-1.3783621e+03 -4.0007197e+03 0.0000000e+00 
-1.5543895e+03 -2.0004181e+03 0.0000000e+00 
-1.6274087e+03 -2.3092639e-13 0.0000000e+00 
-1.5543895e+03 2.0004181e+03 0.0000000e+00 
-1.3783621e+03 4.0007200e+03 0.0000000e+00 
-1.2109225e+03 6.0008687e+03 0.0000000e+00 
-1.1797526e+03 8.0008945e+03 0.0000000e+00 
-5.4976758e+03 3.6787229e+03 0.0000000e+00 
-9.8545010e+03 -1.6444164e+03 0.0000000e+00 
-9.9573066e+03 -1.6460817e+03 0.0000000e+00 
-9.9939561e+03 -1.6474440e+03 0.0000000e+00 
-9.9941689e+03 -1.6484836e+03 0.0000000e+00 
-9.9805420e+03 -1.6491945e+03 0.0000000e+00 
-9.9685439e+03 -1.6495769e+03 0.0000000e+00 
-9.9665186e+03 -1.6496327e+03 0.0000000e+00 
-9.9756855e+03 -1.6493621e+03 0.0000000e+00 
-9.9901377e+03 -1.6487638e+03 0.0000000e+00 
-9.9975020e+03 -1.6483824e+03 0.0000000e+00 
MOMENT 3 31  float
0.0000000e+00 0.0000000e+00 -9.6779730e+02 
0.0000000e+00 0.0000000e+00 -7.6755640e+02 
0.0000000e+00 0.0000000e+00 -4.3798846e+02 
0.0000000e+00 0.0000000e+00 -1.0842057e+02 
0.0000000e+00 0.0000000e+00 2.2114734e+02 
0.0000000e+00 0.0000000e+00 5.5071527e+02 
0.0000000e+00 0.0000000e+00 8.8028314e+02 
0.0000000e+00 0.0000000e+00 1.2098511e+03 
0.0000000e+00 0.0000000e+00 1.5394189e+03 
0.0000000e+00 0.0000000e+00 1.8689868e+03 
0.0000000e+00 0.0000000e+00 1.7806689e+03 
0.0000000e+00 0.0000000e+00 4.7704736e+02 
0.0000000e+00 0.0000000e+00 -9.2295099e+02 
0.0000000e+00 0.0000000e+00 -1.9229502e+03 
0.0000000e+00 0.0000000e+00 -2.5229502e+03 
0.0000000e+00 0.0000000e+00 -2.7229502e+03 
0.0000000e+00 0.0000000e+00 -2.5229502e+03 
0.0000000e+00 0.0000000e+00 -1.9229502e+03 
0.0000000e+00 0.0000000e+00 -9.2295099e+02 
0.0000000e+00 0.0000000e+00 4.7704736e+02 
0.0000000e+00 0.0000000e+00 1.7806689e+03 
0.0000000e+00 0.0000000e+00 1.8689868e+03 
0.0000000e+00 0.0000000e+00 1.5394189e+03 
0.0000000e+00 0.0000000e+00 1.2098511e+03 
0.0000000e+00 0.0000000e+00 8.8028314e+02 
0.0000000e+00 0.0000000e+00 5.5071527e+02 
0.0000000e+00 0.0000000e+00 2.2114734e+02 
0.0000000e+00 0.0000000e+00 -1.0842057e+02 
0.0000000e+00 0.0000000e+00 -4.3798846e+02 
0.0000000e+00 0.0000000e+00 -7.6755640e+02 
0.0000000e+00 0.0000000e+00 -9.6779730e+02 
CELL_DATA 30
FIELD FieldData 2
FORCE 3 30  float
-9.9975020e+03 1.6483824e+03 0.0000000e+00 
-9.9827744e+03 1.6491451e+03 0.0000000e+00 
-9.9685977e+03 1.6495791e+03 0.0000000e+00 
-9.9644404e+03 1.6496863e+03 0.0000000e+00 
-9.9726465e+03 1.6494675e+03 0.0000000e+00 
-9.9884365e+03 1.6489214e+03 0.0000000e+00 
-9.9999014e+03 1.6480459e+03 0.0000000e+00 
-9.9880098e+03 1.6468422e+03 0.0000000e+00 
-9.9266035e+03 1.6453212e+03 0.0000000e+00 
-9.7823984e+03 1.6435116e+03 0.0000000e+00 
-1.2130140e+03 -9.0008818e+03 0.0000000e+00 
-1.1464912e+03 -7.0009072e+03 0.0000000e+00 
-1.2753538e+03 -5.0008301e+03 0.0000000e+00 
-1.4813705e+03 -3.0006089e+03 0.0000000e+00 
-1.6274087e+03 -1.0002271e+03 0.0000000e+00 
-1.6274087e+03 1.0002271e+03 0.0000000e+00 
-1.4813705e+03 3.0006089e+03 0.0000000e+00 
-1.2753538e+03 5.0008306e+03 0.0000000e+00 
-1.1464912e+03 7.0009072e+03 0.0000000e+00 
-1.2130140e+03 9.0008818e+03 0.0000000e+00 
-9.7823984e+03 -1.6435116e+03 0.0000000e+00 
-9.9266035e+03 -1.6453212e+03 0.0000000e+00 
-9.9880098e+03 -1.6468422e+03 0.0000000e+00 
-9.9999014e+03 -1.6480459e+03 0.0000000e+00 
-9.9884365e+03 -1.6489214e+03 0.0000000e+00 
-9.9726465e+03 -1.6494675e+03 0.0000000e+00 
-9.9644404e+03 -1.6496863e+03 0.0000000e+00 
-9.9685977e+03 -1.6495791e+03 0.0000000e+00 
-9.9827744e+03 -1.6491451e+03 0.0000000e+00 
-9.9975020e+03 -1.6483824e+03 0.0000000e+00 
MOMENT 3 30  float
0.0000000e+00 0.0000000e+00 -9.3233038e+02 
0.0000000e+00 0.0000000e+00 -6.0276599e+02 
0.0000000e+00 0.0000000e+00 -2.7320163e+02 
0.0000000e+00 0.0000000e+00 5.6362785e+01 
0.0000000e+00 0.0000000e+00 3.8592719e+02 
0.0000000e+00 0.0000000e+00 7.1549158e+02 
0.0000000e+00 0.0000000e+00 1.0450559e+03 
0.0000000e+00 0.0000000e+00 1.3746204e+03 
0.0000000e+00 0.0000000e+00 1.7041849e+03 
0.0000000e+00 0.0000000e+00 2.0337498e+03 
0.0000000e+00 0.0000000e+00 1.2985623e+03 
0.0000000e+00 0.0000000e+00 -3.0143488e+02 
0.0000000e+00 0.0000000e+00 -1.5014325e+03 
0.0000000e+00 0.0000000e+00 -2.3014302e+03 
0.0000000e+00 0.0000000e+00 -2.7014287e+03 
0.0000000e+00 0.0000000e+00 -2.7014287e+03 
0.0000000e+00 0.0000000e+00 -2.3014302e+03 
0.0000000e+00 0.0000000e+00 -1.5014325e+03 
0.0000000e+00 0.0000000e+00 -3.0143488e+02 
0.0000000e+00 0.0000000e+00 1.2985623e+03 
0.0000000e+00 0.0000000e+00 2.0337498e+03 
0.0000000e+00 0.0000000e+00 1.7041849e+03 
0.0000000e+00 0.0000000e+00 1.3746204e+03 
0.0000000e+00 0.0000000e+00 1.0450559e+03 
0.0000000e+00 0.0000000e+00 7.1549158e+02 
0.0000000e+00 0.0000000e+00 3.8592719e+02 
0.0000000e+00 0.0000000e+00 5.6362785e+01 
0.0000000e+00 0.0000000e+00 -2.7320163e+02 
0.0000000e+00 0.0000000e+00 -6.0276599e+02 
0.0000000e+00 0.0000000e+00 -9.3233038e+02 
