# vtk DataFile Version 4.0
vtk output
ASCII
DATASET UNSTRUCTURED_GRID
POINTS 60 float
0.0000000e+00 0.0000000e+00 0.0000000e+00 
0.0000000e+00 2.0000000e-01 0.0000000e+00 
0.0000000e+00 4.0000001e-01 0.0000000e+00 
0.0000000e+00 6.0000002e-01 0.0000000e+00 
0.0000000e+00 8.0000001e-01 0.0000000e+00 
0.0000000e+00 1.0000000e+00 0.0000000e+00 
0.0000000e+00 1.2000000e+00 0.0000000e+00 
0.0000000e+00 1.4000000e+00 0.0000000e+00 
0.0000000e+00 1.6000000e+00 0.0000000e+00 
0.0000000e+00 1.8000000e+00 0.0000000e+00 
0.0000000e+00 2.0000000e+00 0.0000000e+00 
0.0000000e+00 2.2000000e+00 0.0000000e+00 
0.0000000e+00 2.4000001e+00 0.0000000e+00 
0.0000000e+00 2.5999999e+00 0.0000000e+00 
0.0000000e+00 2.8000000e+00 0.0000000e+00 
0.0000000e+00 3.0000000e+00 0.0000000e+00 
0.0000000e+00 3.2000000e+00 0.0000000e+00 
0.0000000e+00 3.4000001e+00 0.0000000e+00 
0.0000000e+00 3.5999999e+00 0.0000000e+00 
0.0000000e+00 3.8000000e+00 0.0000000e+00 
0.0000000e+00 4.0000000e+00 0.0000000e+00 
2.0000000e-01 4.0000000e+00 0.0000000e+00 
4.0000001e-01 4.0000000e+00 0.0000000e+00 
6.0000002e-01 4.0000000e+00 0.0000000e+00 
8.0000001e-01 4.0000000e+00 0.0000000e+00 
1.0000000e+00 4.0000000e+00 0.0000000e+00 
1.2000000e+00 4.0000000e+00 0.0000000e+00 
1.4000000e+00 4.0000000e+00 0.0000000e+00 
1.6000000e+00 4.0000000e+00 0.0000000e+00 
1.8000000e+00 4.0000000e+00 0.0000000e+00 
2.0000000e+00 4.0000000e+00 0.0000000e+00 
2.0000000e+00 3.8000000e+00 0.0000000e+00 
2.0000000e+00 3.5999999e+00 0.0000000e+00 
2.0000000e+00 3.4000001e+00 0.0000000e+00 
2.0000000e+00 3.2000000e+00 0.0000000e+00 
2.0000000e+00 3.0000000e+00 0.0000000e+00 
2.0000000e+00 2.8000000e+00 0.0000000e+00 
2.0000000e+00 2.5999999e+00 0.0000000e+00 
2.0000000e+00 2.4000001e+00 0.0000000e+00 
2.0000000e+00 2.2000000e+00 0.0000000e+00 
2.0000000e+00 2.0000000e+00 0.0000000e+00 
2.0000000e+00 1.8000000e+00 0.0000000e+00 
2.0000000e+00 1.6000000e+00 0.0000000e+00 
2.0000000e+00 1.4000000e+00 0.0000000e+00 
2.0000000e+00 1.2000000e+00 0.0000000e+00 
2.0000000e+00 1.0000000e+00 0.0000000e+00 
2.0000000e+00 8.0000001e-01 0.0000000e+00 
2.0000000e+00 6.0000002e-01 0.0000000e+00 
2.0000000e+00 4.0000001e-01 0.0000000e+00 
2.0000000e+00 2.0000000e-01 0.0000000e+00 
2.0000000e+00 0.0000000e+00 0.0000000e+00 
2.0000000e-01 2.0000000e+00 0.0000000e+00 
4.0000001e-01 2.0000000e+00 0.0000000e+00 
6.0000002e-01 2.0000000e+00 0.0000000e+00 
8.0000001e-01 2.0000000e+00 0.0000000e+00 
1.0000000e+00 2.0000000e+00 0.0000000e+00 
1.2000000e+00 2.0000000e+00 0.0000000e+00 
1.4000000e+00 2.0000000e+00 0.0000000e+00 
1.6000000e+00 2.0000000e+00 0.0000000e+00 
1.8000000e+00 2.0000000e+00 0.0000000e+00 

CELLS 60 180
2 0 1
2 1 2
2 2 3
2 3 4
2 4 5
2 5 6
2 6 7
2 7 8
2 8 9
2 9 10
2 10 11
2 11 12
2 12 13
2 13 14
2 14 15
2 15 16
2 16 17
2 17 18
2 18 19
2 19 20
2 20 21
2 21 22
2 22 23
2 23 24
2 24 25
2 25 26
2 26 27
2 27 28
2 28 29
2 29 30
2 30 31
2 31 32
2 32 33
2 33 34
2 34 35
2 35 36
2 36 37
2 37 38
2 38 39
2 39 40
2 40 41
2 41 42
2 42 43
2 43 44
2 44 45
2 45 46
2 46 47
2 47 48
2 48 49
2 49 50
2 10 51
2 51 52
2 52 53
2 53 54
2 54 55
2 55 56
2 56 57
2 57 58
2 58 59
2 59 40

CELL_TYPES 60
3
3
3
3
3
3
3
3
3
3
3
3
3
3
3
3
3
3
3
3
3
3
3
3
3
3
3
3
3
3
3
3
3
3
3
3
3
3
3
3
3
3
3
3
3
3
3
3
3
3
3
3
3
3
3
3
3
3
3
3
POINT_DATA 60
FIELD FieldData 6
DISPLACEMENT 3 60  float
0.0000000e+00 0.0000000e+00 0.0000000e+00 
-9.0622143e-06 -7.3742235e-06 0.0000000e+00 
-3.2232721e-05 -1.4748447e-05 0.0000000e+00 
-6.3487329e-05 -2.2122671e-05 0.0000000e+00 
-9.6801836e-05 -2.9496894e-05 0.0000000e+00 
-1.2615204e-04 -3.6871115e-05 0.0000000e+00 
-1.4551374e-04 -4.4245342e-05 0.0000000e+00 
-1.4886275e-04 -5.1619565e-05 0.0000000e+00 
-1.3017484e-04 -5.8993788e-05 0.0000000e+00 
-8.3425854e-05 -6.6368011e-05 0.0000000e+00 
-2.5915690e-06 -7.3742231e-05 0.0000000e+00 
6.0482856e-05 -7.7429344e-05 0.0000000e+00 
6.1885919e-05 -8.1116457e-05 0.0000000e+00 
1.9542304e-05 -8.4803571e-05 0.0000000e+00 
-4.8623304e-05 -8.8490684e-05 0.0000000e+00 
-1.2468622e-04 -9.2177790e-05 0.0000000e+00 
-1.9072177e-04 -9.5864903e-05 0.0000000e+00 
-2.2880526e-04 -9.9552017e-05 0.0000000e+00 
-2.2101200e-04 -1.0323913e-04 0.0000000e+00 
-1.4941733e-04 -1.0692624e-04 0.0000000e+00 
3.9034589e-06 -1.1061335e-04 0.0000000e+00 
3.1227671e-06 -3.4789907e-04 0.0000000e+00 
2.3420755e-06 -6.1146700e-04 0.0000000e+00 
1.5613836e-06 -8.4205781e-04 0.0000000e+00 
7.8069178e-07 -9.9734357e-04 0.0000000e+00 
2.3565563e-16 -1.0519273e-03 0.0000000e+00 
-7.8069178e-07 -9.9734357e-04 0.0000000e+00 
-1.5613836e-06 -8.4205781e-04 0.0000000e+00 
-2.3420755e-06 -6.1146700e-04 0.0000000e+00 
-3.1227671e-06 -3.4789907e-04 0.0000000e+00 
-3.9034589e-06 -1.1061335e-04 0.0000000e+00 
1.4941733e-04 -1.0692624e-04 0.0000000e+00 
2.2101200e-04 -1.0323913e-04 0.0000000e+00 
2.2880526e-04 -9.9552017e-05 0.0000000e+00 
1.9072177e-04 -9.5864903e-05 0.0000000e+00 
1.2468622e-04 -9.2177790e-05 0.0000000e+00 
4.8623304e-05 -8.8490684e-05 0.0000000e+00 
-1.9542304e-05 -8.4803571e-05 0.0000000e+00 
-6.1885919e-05 -8.1116457e-05 0.0000000e+00 
-6.0482856e-05 -7.7429344e-05 0.0000000e+00 
2.5915690e-06 -7.3742231e-05 0.0000000e+00 
8.3425854e-05 -6.6368011e-05 0.0000000e+00 
1.3017484e-04 -5.8993788e-05 0.0000000e+00 
1.4886275e-04 -5.1619565e-05 0.0000000e+00 
1.4551374e-04 -4.4245342e-05 0.0000000e+00 
1.2615204e-04 -3.6871115e-05 0.0000000e+00 
9.6801836e-05 -2.9496894e-05 0.0000000e+00 
6.3487329e-05 -2.2122671e-05 0.0000000e+00 
3.2232721e-05 -1.4748447e-05 0.0000000e+00 
9.0622143e-06 -7.3742235e-06 0.0000000e+00 
0.0000000e+00 0.0000000e+00 0.0000000e+00 
-2.0732552e-06 -2.2078159e-04 0.0000000e+00 
-1.5549414e-06 -4.1415787e-04 0.0000000e+00 
-1.0366276e-06 -5.9461186e-04 0.0000000e+00 
-5.1831381e-07 -7.1981543e-04 0.0000000e+00 
9.0358470e-17 -7.6437183e-04 0.0000000e+00 
5.1831381e-07 -7.1981543e-04 0.0000000e+00 
1.0366276e-06 -5.9461186e-04 0.0000000e+00 
1.5549414e-06 -4.1415787e-04 0.0000000e+00 
2.0732552e-06 -2.2078159e-04 0.0000000e+00 
REACTION 3 60  float
7.1121832e+02 2.0000213e+04 0.0000000e+00 
-6.7324728e-01 -3.0335004e+00 0.0000000e+00 
-3.8552529e-01 -2.9547737e+00 0.0000000e+00 
-9.8195173e-02 -8.9459717e-01 0.0000000e+00 
1.8899341e-01 1.6704695e+00 0.0000000e+00 
4.7643933e-01 3.2638679e+00 0.0000000e+00 
7.6425558e-01 2.4090383e+00 0.0000000e+00 
1.0518340e+00 -2.3705785e+00 0.0000000e+00 
1.3374115e+00 -1.2551541e+01 0.0000000e+00 
1.6176349e+00 -2.9610405e+01 0.0000000e+00 
-1.4230069e+02 1.6921713e+01 0.0000000e+00 
-1.4661644e+00 2.7615978e+01 0.0000000e+00 
-1.0426004e+00 -1.1681244e+01 0.0000000e+00 
-6.1120194e-01 -1.9075932e+01 0.0000000e+00 
-1.8584883e-01 -7.6397734e+00 0.0000000e+00 
2.3607372e-01 9.5555439e+00 0.0000000e+00 
6.6222531e-01 1.9438341e+01 0.0000000e+00 
1.0938598e+00 8.9369297e+00 0.0000000e+00 
1.5143765e+00 -3.5020378e+01 0.0000000e+00 
1.8778688e+00 -1.2550520e+02 0.0000000e+00 
-3.7472479e+02 1.5996854e+02 0.0000000e+00 
-9.0707428e+01 -4.1676838e-02 0.0000000e+00 
1.0703321e+02 2.1409607e-02 0.0000000e+00 
1.9359380e+02 1.7925438e-01 0.0000000e+00 
1.4124342e+02 4.1207588e-01 0.0000000e+00 
-7.5277512e-08 5.2414346e-01 0.0000000e+00 
-1.4124342e+02 4.1207588e-01 0.0000000e+00 
-1.9359380e+02 1.7932263e-01 0.0000000e+00 
-1.0703321e+02 2.1341998e-02 0.0000000e+00 
9.0707428e+01 -4.1744445e-02 0.0000000e+00 
3.7472479e+02 1.5996860e+02 0.0000000e+00 
-1.8778685e+00 -1.2550520e+02 0.0000000e+00 
-1.5143766e+00 -3.5020378e+01 0.0000000e+00 
-1.0938600e+00 8.9369297e+00 0.0000000e+00 
-6.6222489e-01 1.9438341e+01 0.0000000e+00 
-2.3607390e-01 9.5555439e+00 0.0000000e+00 
1.8584865e-01 -7.6397734e+00 0.0000000e+00 
6.1120236e-01 -1.9075932e+01 0.0000000e+00 
1.0425998e+00 -1.1681244e+01 0.0000000e+00 
1.4661649e+00 2.7615978e+01 0.0000000e+00 
1.4230069e+02 1.6921713e+01 0.0000000e+00 
-1.6176343e+00 -2.9610405e+01 0.0000000e+00 
-1.3374119e+00 -1.2551541e+01 0.0000000e+00 
-1.0518335e+00 -2.3705785e+00 0.0000000e+00 
-7.6425594e-01 2.4090383e+00 0.0000000e+00 
-4.7643915e-01 3.2638679e+00 0.0000000e+00 
-1.8899386e-01 1.6704695e+00 0.0000000e+00 
9.8195679e-02 -8.9459717e-01 0.0000000e+00 
3.8552508e-01 -2.9547737e+00 0.0000000e+00 
6.7324698e-01 -3.0335004e+00 0.0000000e+00 
-7.1121832e+02 2.0000213e+04 0.0000000e+00 
-1.0680004e+02 2.5714901e-01 0.0000000e+00 
3.0497236e+01 -5.5623237e-02 0.0000000e+00 
1.1187061e+02 -2.5384450e-01 0.0000000e+00 
9.1171852e+01 -2.9660377e-01 0.0000000e+00 
-1.3869794e-11 -2.8950879e-01 0.0000000e+00 
-9.1171852e+01 -2.9660377e-01 0.0000000e+00 
-1.1187061e+02 -2.5375739e-01 0.0000000e+00 
-3.0497236e+01 -5.5710487e-02 0.0000000e+00 
1.0680004e+02 2.5714907e-01 0.0000000e+00 
ROTATION 3 60  float
0.0000000e+00 0.0000000e+00 0.0000000e+00 
0.0000000e+00 0.0000000e+00 8.5601976e-05 
0.0000000e+00 0.0000000e+00 1.4108296e-04 
0.0000000e+00 0.0000000e+00 1.6644294e-04 
0.0000000e+00 0.0000000e+00 1.6168194e-04 
0.0000000e+00 0.0000000e+00 1.2679993e-04 
0.0000000e+00 0.0000000e+00 6.1796927e-05 
0.0000000e+00 0.0000000e+00 -3.3327062e-05 
0.0000000e+00 0.0000000e+00 -1.5857205e-04 
0.0000000e+00 0.0000000e+00 -3.1393801e-04 
0.0000000e+00 0.0000000e+00 -4.9942499e-04 
0.0000000e+00 0.0000000e+00 -1.4625648e-04 
0.0000000e+00 0.0000000e+00 1.1728862e-04 
0.0000000e+00 0.0000000e+00 2.9121031e-04 
0.0000000e+00 0.0000000e+00 3.7550856e-04 
0.0000000e+00 0.0000000e+00 3.7018341e-04 
0.0000000e+00 0.0000000e+00 2.7523481e-04 
0.0000000e+00 0.0000000e+00 9.0662827e-05 
0.0000000e+00 0.0000000e+00 -1.8353260e-04 
0.0000000e+00 0.0000000e+00 -5.4735143e-04 
0.0000000e+00 0.0000000e+00 -1.0007937e-03 
0.0000000e+00 0.0000000e+00 -1.3085714e-03 
0.0000000e+00 0.0000000e+00 -1.2777249e-03 
0.0000000e+00 0.0000000e+00 -9.9291012e-04 
0.0000000e+00 0.0000000e+00 -5.3878309e-04 
0.0000000e+00 0.0000000e+00 2.1353075e-17 
0.0000000e+00 0.0000000e+00 5.3878309e-04 
0.0000000e+00 0.0000000e+00 9.9291012e-04 
0.0000000e+00 0.0000000e+00 1.2777249e-03 
0.0000000e+00 0.0000000e+00 1.3085714e-03 
0.0000000e+00 0.0000000e+00 1.0007937e-03 
0.0000000e+00 0.0000000e+00 5.4735143e-04 
0.0000000e+00 0.0000000e+00 1.8353260e-04 
0.0000000e+00 0.0000000e+00 -9.0662827e-05 
0.0000000e+00 0.0000000e+00 -2.7523481e-04 
0.0000000e+00 0.0000000e+00 -3.7018341e-04 
0.0000000e+00 0.0000000e+00 -3.7550856e-04 
0.0000000e+00 0.0000000e+00 -2.9121031e-04 
0.0000000e+00 0.0000000e+00 -1.1728862e-04 
0.0000000e+00 0.0000000e+00 1.4625648e-04 
0.0000000e+00 0.0000000e+00 4.9942499e-04 
0.0000000e+00 0.0000000e+00 3.1393801e-04 
0.0000000e+00 0.0000000e+00 1.5857205e-04 
0.0000000e+00 0.0000000e+00 3.3327062e-05 
0.0000000e+00 0.0000000e+00 -6.1796927e-05 
0.0000000e+00 0.0000000e+00 -1.2679993e-04 
0.0000000e+00 0.0000000e+00 -1.6168194e-04 
0.0000000e+00 0.0000000e+00 -1.6644294e-04 
0.0000000e+00 0.0000000e+00 -1.4108296e-04 
0.0000000e+00 0.0000000e+00 -8.5601976e-05 
0.0000000e+00 0.0000000e+00 0.0000000e+00 
0.0000000e+00 0.0000000e+00 -9.0747653e-04 
0.0000000e+00 0.0000000e+00 -9.7690371e-04 
0.0000000e+00 0.0000000e+00 -7.9236261e-04 
0.0000000e+00 0.0000000e+00 -4.3850933e-04 
0.0000000e+00 0.0000000e+00 4.9276327e-17 
0.0000000e+00 0.0000000e+00 4.3850933e-04 
0.0000000e+00 0.0000000e+00 7.9236261e-04 
0.0000000e+00 0.0000000e+00 9.7690371e-04 
0.0000000e+00 0.0000000e+00 9.0747653e-04 
REACTION_MOMENT 3 60  float
0.0000000e+00 0.0000000e+00 -4.7566553e+02 
0.0000000e+00 0.0000000e+00 -1.7649134e-01 
0.0000000e+00 0.0000000e+00 -2.9244918e-01 
0.0000000e+00 0.0000000e+00 -3.4543908e-01 
0.0000000e+00 0.0000000e+00 -3.3549172e-01 
0.0000000e+00 0.0000000e+00 -2.6260045e-01 
0.0000000e+00 0.0000000e+00 -1.2672885e-01 
0.0000000e+00 0.0000000e+00 7.2135761e-02 
0.0000000e+00 0.0000000e+00 3.3388168e-01 
0.0000000e+00 0.0000000e+00 6.5812618e-01 
0.0000000e+00 0.0000000e+00 5.8554393e-01 
0.0000000e+00 0.0000000e+00 1.5633623e-01 
0.0000000e+00 0.0000000e+00 -1.1886466e-01 
0.0000000e+00 0.0000000e+00 -3.0027550e-01 
0.0000000e+00 0.0000000e+00 -3.8793096e-01 
0.0000000e+00 0.0000000e+00 -3.8240102e-01 
0.0000000e+00 0.0000000e+00 -2.8363895e-01 
0.0000000e+00 0.0000000e+00 -9.1054201e-02 
0.0000000e+00 0.0000000e+00 1.9519024e-01 
0.0000000e+00 0.0000000e+00 5.7165581e-01 
0.0000000e+00 0.0000000e+00 5.4258442e-01 
0.0000000e+00 0.0000000e+00 2.4746004e-01 
0.0000000e+00 0.0000000e+00 2.4320532e-01 
0.0000000e+00 0.0000000e+00 1.9935358e-01 
0.0000000e+00 0.0000000e+00 1.1435421e-01 
0.0000000e+00 0.0000000e+00 -2.1827873e-11 
0.0000000e+00 0.0000000e+00 -1.1435421e-01 
0.0000000e+00 0.0000000e+00 -1.9934675e-01 
0.0000000e+00 0.0000000e+00 -2.4319844e-01 
0.0000000e+00 0.0000000e+00 -2.4746668e-01 
0.0000000e+00 0.0000000e+00 -5.4259109e-01 
0.0000000e+00 0.0000000e+00 -5.7165581e-01 
0.0000000e+00 0.0000000e+00 -1.9519024e-01 
0.0000000e+00 0.0000000e+00 9.1054164e-02 
0.0000000e+00 0.0000000e+00 2.8363892e-01 
0.0000000e+00 0.0000000e+00 3.8240102e-01 
0.0000000e+00 0.0000000e+00 3.8793093e-01 
0.0000000e+00 0.0000000e+00 3.0027547e-01 
0.0000000e+00 0.0000000e+00 1.1886465e-01 
0.0000000e+00 0.0000000e+00 -1.5633625e-01 
0.0000000e+00 0.0000000e+00 -5.8554393e-01 
0.0000000e+00 0.0000000e+00 -6.5812618e-01 
0.0000000e+00 0.0000000e+00 -3.3388168e-01 
0.0000000e+00 0.0000000e+00 -7.2135739e-02 
0.0000000e+00 0.0000000e+00 1.2672888e-01 
0.0000000e+00 0.0000000e+00 2.6260048e-01 
0.0000000e+00 0.0000000e+00 3.3549172e-01 
0.0000000e+00 0.0000000e+00 3.4543908e-01 
0.0000000e+00 0.0000000e+00 2.9244921e-01 
0.0000000e+00 0.0000000e+00 1.7649132e-01 
0.0000000e+00 0.0000000e+00 4.7566553e+02 
0.0000000e+00 0.0000000e+00 -1.4438073e-01 
0.0000000e+00 0.0000000e+00 -1.5835351e-01 
0.0000000e+00 0.0000000e+00 -1.2484460e-01 
0.0000000e+00 0.0000000e+00 -6.6133283e-02 
0.0000000e+00 0.0000000e+00 6.3705556e-09 
0.0000000e+00 0.0000000e+00 6.6133298e-02 
0.0000000e+00 0.0000000e+00 1.2485333e-01 
0.0000000e+00 0.0000000e+00 1.5836222e-01 
0.0000000e+00 0.0000000e+00 1.4438073e-01 
FORCE 3 60  float
-2.0000180e+04 7.1212457e+02 0.0000000e+00 
-1.9998639e+04 7.1249323e+02 0.0000000e+00 
-1.9995605e+04 7.1307306e+02 0.0000000e+00 
-1.9993662e+04 7.1333801e+02 0.0000000e+00 
-1.9994053e+04 7.1328827e+02 0.0000000e+00 
-1.9996545e+04 7.1292383e+02 0.0000000e+00 
-1.9999428e+04 7.1224445e+02 0.0000000e+00 
-1.9999516e+04 7.1125006e+02 0.0000000e+00 
-1.9992143e+04 7.0994135e+02 0.0000000e+00 
-1.9971174e+04 7.0832019e+02 0.0000000e+00 
-9.4589580e+03 -2.0587920e+03 0.0000000e+00 
-9.9866895e+03 2.1165752e+03 0.0000000e+00 
-9.9940986e+03 2.1179509e+03 0.0000000e+00 
-9.9783516e+03 2.1188579e+03 0.0000000e+00 
-9.9648154e+03 2.1192964e+03 0.0000000e+00 
-9.9657852e+03 2.1192686e+03 0.0000000e+00 
-9.9804824e+03 2.1187747e+03 0.0000000e+00 
-9.9950615e+03 2.1178118e+03 0.0000000e+00 
-9.9825996e+03 2.1163811e+03 0.0000000e+00 
-9.9031074e+03 2.1145002e+03 0.0000000e+00 
-5.7881592e+03 -3.4439167e+03 0.0000000e+00 
-1.6909645e+03 -8.0012388e+03 0.0000000e+00 
-1.7015840e+03 -6.0012168e+03 0.0000000e+00 
-1.8553453e+03 -4.0009951e+03 0.0000000e+00 
-2.0255100e+03 -2.0005696e+03 0.0000000e+00 
-2.0971599e+03 1.7053026e-13 0.0000000e+00 
-2.0255100e+03 2.0005696e+03 0.0000000e+00 
-1.8553453e+03 4.0009951e+03 0.0000000e+00 
-1.7015840e+03 6.0012168e+03 0.0000000e+00 
-1.6909645e+03 8.0012388e+03 0.0000000e+00 
-5.7881592e+03 3.4439167e+03 0.0000000e+00 
-9.9031074e+03 -2.1145002e+03 0.0000000e+00 
-9.9825996e+03 -2.1163811e+03 0.0000000e+00 
-9.9950615e+03 -2.1178118e+03 0.0000000e+00 
-9.9804824e+03 -2.1187747e+03 0.0000000e+00 
-9.9657852e+03 -2.1192686e+03 0.0000000e+00 
-9.9648154e+03 -2.1192964e+03 0.0000000e+00 
-9.9783516e+03 -2.1188579e+03 0.0000000e+00 
-9.9940986e+03 -2.1179509e+03 0.0000000e+00 
-9.9866895e+03 -2.1165752e+03 0.0000000e+00 
-9.4589580e+03 2.0587920e+03 0.0000000e+00 
-1.9971174e+04 -7.0832019e+02 0.0000000e+00 
-1.9992143e+04 -7.0994135e+02 0.0000000e+00 
-1.9999516e+04 -7.1125006e+02 0.0000000e+00 
-1.9999428e+04 -7.1224445e+02 0.0000000e+00 
-1.9996545e+04 -7.1292383e+02 0.0000000e+00 
-1.9994053e+04 -7.1328827e+02 0.0000000e+00 
-1.9993662e+04 -7.1333801e+02 0.0000000e+00 
-1.9995605e+04 -7.1307306e+02 0.0000000e+00 
-1.9998639e+04 -7.1249323e+02 0.0000000e+00 
-2.0000180e+04 -7.1212457e+02 0.0000000e+00 
1.6058113e+03 -7.9992749e+03 0.0000000e+00 
1.6429099e+03 -5.9992065e+03 0.0000000e+00 
1.5692810e+03 -3.9993735e+03 0.0000000e+00 
1.4656155e+03 -1.9996674e+03 0.0000000e+00 
1.4192019e+03 -3.1474173e-08 0.0000000e+00 
1.4656155e+03 1.9996674e+03 0.0000000e+00 
1.5692810e+03 3.9993735e+03 0.0000000e+00 
1.6429099e+03 5.9992065e+03 0.0000000e+00 
1.6058113e+03 7.9992749e+03 0.0000000e+00 
MOMENT 3 60  float
0.0000000e+00 0.0000000e+00 -4.1977762e+02 
0.0000000e+00 0.0000000e+00 -3.3330518e+02 
0.0000000e+00 0.0000000e+00 -1.9098489e+02 
0.0000000e+00 0.0000000e+00 -4.8664600e+01 
0.0000000e+00 0.0000000e+00 9.3655693e+01 
0.0000000e+00 0.0000000e+00 2.3597598e+02 
0.0000000e+00 0.0000000e+00 3.7829626e+02 
0.0000000e+00 0.0000000e+00 5.2061658e+02 
0.0000000e+00 0.0000000e+00 6.6293683e+02 
0.0000000e+00 0.0000000e+00 8.0525714e+02 
0.0000000e+00 0.0000000e+00 4.3303772e+02 
0.0000000e+00 0.0000000e+00 -1.4569788e+03 
0.0000000e+00 0.0000000e+00 -1.0335101e+03 
0.0000000e+00 0.0000000e+00 -6.1004156e+02 
0.0000000e+00 0.0000000e+00 -1.8657303e+02 
0.0000000e+00 0.0000000e+00 2.3689552e+02 
0.0000000e+00 0.0000000e+00 6.6036407e+02 
0.0000000e+00 0.0000000e+00 1.0838326e+03 
0.0000000e+00 0.0000000e+00 1.5073013e+03 
0.0000000e+00 0.0000000e+00 1.9307698e+03 
0.0000000e+00 0.0000000e+00 1.9179343e+03 
0.0000000e+00 0.0000000e+00 6.3273230e+02 
0.0000000e+00 0.0000000e+00 -7.6726556e+02 
0.0000000e+00 0.0000000e+00 -1.7672644e+03 
0.0000000e+00 0.0000000e+00 -2.3672642e+03 
0.0000000e+00 0.0000000e+00 -2.5672642e+03 
0.0000000e+00 0.0000000e+00 -2.3672642e+03 
0.0000000e+00 0.0000000e+00 -1.7672644e+03 
0.0000000e+00 0.0000000e+00 -7.6726556e+02 
0.0000000e+00 0.0000000e+00 6.3273230e+02 
0.0000000e+00 0.0000000e+00 1.9179343e+03 
0.0000000e+00 0.0000000e+00 1.9307698e+03 
0.0000000e+00 0.0000000e+00 1.5073013e+03 
0.0000000e+00 0.0000000e+00 1.0838326e+03 
0.0000000e+00 0.0000000e+00 6.6036407e+02 
0.0000000e+00 0.0000000e+00 2.3689552e+02 
0.0000000e+00 0.0000000e+00 -1.8657303e+02 
0.0000000e+00 0.0000000e+00 -6.1004156e+02 
0.0000000e+00 0.0000000e+00 -1.0335101e+03 
0.0000000e+00 0.0000000e+00 -1.4569788e+03 
0.0000000e+00 0.0000000e+00 4.3303772e+02 
0.0000000e+00 0.0000000e+00 8.0525714e+02 
0.0000000e+00 0.0000000e+00 6.6293683e+02 
0.0000000e+00 0.0000000e+00 5.2061658e+02 
0.0000000e+00 0.0000000e+00 3.7829626e+02 
0.0000000e+00 0.0000000e+00 2.3597598e+02 
0.0000000e+00 0.0000000e+00 9.3655693e+01 
0.0000000e+00 0.0000000e+00 -4.8664600e+01 
0.0000000e+00 0.0000000e+00 -1.9098489e+02 
0.0000000e+00 0.0000000e+00 -3.3330518e+02 
0.0000000e+00 0.0000000e+00 -4.1977762e+02 
0.0000000e+00 0.0000000e+00 1.1065273e+03 
0.0000000e+00 0.0000000e+00 -2.9347321e+02 
0.0000000e+00 0.0000000e+00 -1.2934738e+03 
0.0000000e+00 0.0000000e+00 -1.8934744e+03 
0.0000000e+00 0.0000000e+00 -2.0934746e+03 
0.0000000e+00 0.0000000e+00 -1.8934744e+03 
0.0000000e+00 0.0000000e+00 -1.2934738e+03 
0.0000000e+00 0.0000000e+00 -2.9347321e+02 
0.0000000e+00 0.0000000e+00 1.1065273e+03 
CELL_DATA 60
FIELD FieldData 2
FORCE 3 60  float
-2.0000180e+04 7.1212457e+02 0.0000000e+00 
-1.9997098e+04 7.1286188e+02 0.0000000e+00 
-1.9994113e+04 7.1328424e+02 0.0000000e+00 
-1.9993211e+04 7.1339185e+02 0.0000000e+00 
-1.9994896e+04 7.1318475e+02 0.0000000e+00 
-1.9998195e+04 7.1266284e+02 0.0000000e+00 
-2.0000662e+04 7.1182599e+02 0.0000000e+00 
-1.9998369e+04 7.1067419e+02 0.0000000e+00 
-1.9985918e+04 7.0920856e+02 0.0000000e+00 
-1.9956428e+04 7.0743188e+02 0.0000000e+00 
-9.9732080e+03 2.1157708e+03 0.0000000e+00 
-1.0000171e+04 2.1173796e+03 0.0000000e+00 
-9.9880264e+03 2.1185220e+03 0.0000000e+00 
-9.9686777e+03 2.1191938e+03 0.0000000e+00 
-9.9609541e+03 2.1193987e+03 0.0000000e+00 
-9.9706152e+03 2.1191387e+03 0.0000000e+00 
-9.9903496e+03 2.1184109e+03 0.0000000e+00 
-9.9997725e+03 2.1172126e+03 0.0000000e+00 
-9.9654277e+03 2.1155496e+03 0.0000000e+00 
-9.8407871e+03 2.1134512e+03 0.0000000e+00 
-1.7355918e+03 -9.0012021e+03 0.0000000e+00 
-1.6463373e+03 -7.0012764e+03 0.0000000e+00 
-1.7568307e+03 -5.0011572e+03 0.0000000e+00 
-1.9538601e+03 -3.0008325e+03 0.0000000e+00 
-2.0971599e+03 -1.0003065e+03 0.0000000e+00 
-2.0971599e+03 1.0003065e+03 0.0000000e+00 
-1.9538601e+03 3.0008325e+03 0.0000000e+00 
-1.7568307e+03 5.0011572e+03 0.0000000e+00 
-1.6463373e+03 7.0012764e+03 0.0000000e+00 
-1.7355918e+03 9.0012021e+03 0.0000000e+00 
-9.8407871e+03 -2.1134512e+03 0.0000000e+00 
-9.9654277e+03 -2.1155496e+03 0.0000000e+00 
-9.9997725e+03 -2.1172126e+03 0.0000000e+00 
-9.9903496e+03 -2.1184109e+03 0.0000000e+00 
-9.9706152e+03 -2.1191387e+03 0.0000000e+00 
-9.9609541e+03 -2.1193987e+03 0.0000000e+00 
-9.9686777e+03 -2.1191938e+03 0.0000000e+00 
-9.9880264e+03 -2.1185220e+03 0.0000000e+00 
-1.0000171e+04 -2.1173796e+03 0.0000000e+00 
-9.9732080e+03 -2.1157708e+03 0.0000000e+00 
-1.9956428e+04 -7.0743188e+02 0.0000000e+00 
-1.9985918e+04 -7.0920856e+02 0.0000000e+00 
-1.9998369e+04 -7.1067419e+02 0.0000000e+00 
-2.0000662e+04 -7.1182599e+02 0.0000000e+00 
-1.9998195e+04 -7.1266284e+02 0.0000000e+00 
-1.9994896e+04 -7.1318475e+02 0.0000000e+00 
-1.9993211e+04 -7.1339185e+02 0.0000000e+00 
-1.9994113e+04 -7.1328424e+02 0.0000000e+00 
-1.9997098e+04 -7.1286188e+02 0.0000000e+00 
-2.0000180e+04 -7.1212457e+02 0.0000000e+00 
1.5523356e+03 -8.9993809e+03 0.0000000e+00 
1.6592870e+03 -6.9991694e+03 0.0000000e+00 
1.6265330e+03 -4.9992437e+03 0.0000000e+00 
1.5120291e+03 -2.9995034e+03 0.0000000e+00 
1.4192019e+03 -9.9983124e+02 0.0000000e+00 
1.4192019e+03 9.9983124e+02 0.0000000e+00 
1.5120291e+03 2.9995034e+03 0.0000000e+00 
1.6265330e+03 4.9992432e+03 0.0000000e+00 
1.6592870e+03 6.9991694e+03 0.0000000e+00 
1.5523356e+03 8.9993809e+03 0.0000000e+00 
MOMENT 3 60  float
0.0000000e+00 0.0000000e+00 -4.0445572e+02 
0.0000000e+00 0.0000000e+00 -2.6213879e+02 
0.0000000e+00 0.0000000e+00 -1.1982190e+02 
0.0000000e+00 0.0000000e+00 2.2495008e+01 
0.0000000e+00 0.0000000e+00 1.6481192e+02 
0.0000000e+00 0.0000000e+00 3.0712881e+02 
0.0000000e+00 0.0000000e+00 4.4944571e+02 
0.0000000e+00 0.0000000e+00 5.9176263e+02 
0.0000000e+00 0.0000000e+00 7.3407953e+02 
0.0000000e+00 0.0000000e+00 8.7639648e+02 
0.0000000e+00 0.0000000e+00 -1.6686932e+03 
0.0000000e+00 0.0000000e+00 -1.2452296e+03 
0.0000000e+00 0.0000000e+00 -8.2176611e+02 
0.0000000e+00 0.0000000e+00 -3.9830258e+02 
0.0000000e+00 0.0000000e+00 2.5160950e+01 
0.0000000e+00 0.0000000e+00 4.4862448e+02 
0.0000000e+00 0.0000000e+00 8.7208801e+02 
0.0000000e+00 0.0000000e+00 1.2955515e+03 
0.0000000e+00 0.0000000e+00 1.7190151e+03 
0.0000000e+00 0.0000000e+00 2.1424792e+03 
0.0000000e+00 0.0000000e+00 1.4542457e+03 
0.0000000e+00 0.0000000e+00 -1.4574962e+02 
0.0000000e+00 0.0000000e+00 -1.3457461e+03 
0.0000000e+00 0.0000000e+00 -2.1457429e+03 
0.0000000e+00 0.0000000e+00 -2.5457410e+03 
0.0000000e+00 0.0000000e+00 -2.5457410e+03 
0.0000000e+00 0.0000000e+00 -2.1457429e+03 
0.0000000e+00 0.0000000e+00 -1.3457461e+03 
0.0000000e+00 0.0000000e+00 -1.4574962e+02 
0.0000000e+00 0.0000000e+00 1.4542457e+03 
0.0000000e+00 0.0000000e+00 2.1424792e+03 
0.0000000e+00 0.0000000e+00 1.7190151e+03 
0.0000000e+00 0.0000000e+00 1.2955515e+03 
0.0000000e+00 0.0000000e+00 8.7208801e+02 
0.0000000e+00 0.0000000e+00 4.4862448e+02 
0.0000000e+00 0.0000000e+00 2.5160950e+01 
0.0000000e+00 0.0000000e+00 -3.9830258e+02 
0.0000000e+00 0.0000000e+00 -8.2176611e+02 
0.0000000e+00 0.0000000e+00 -1.2452296e+03 
0.0000000e+00 0.0000000e+00 -1.6686932e+03 
0.0000000e+00 0.0000000e+00 8.7639648e+02 
0.0000000e+00 0.0000000e+00 7.3407953e+02 
0.0000000e+00 0.0000000e+00 5.9176263e+02 
0.0000000e+00 0.0000000e+00 4.4944571e+02 
0.0000000e+00 0.0000000e+00 3.0712881e+02 
0.0000000e+00 0.0000000e+00 1.6481192e+02 
0.0000000e+00 0.0000000e+00 2.2495008e+01 
0.0000000e+00 0.0000000e+00 -1.1982190e+02 
0.0000000e+00 0.0000000e+00 -2.6213879e+02 
0.0000000e+00 0.0000000e+00 -4.0445572e+02 
0.0000000e+00 0.0000000e+00 1.9280485e+03 
0.0000000e+00 0.0000000e+00 3.2804428e+02 
0.0000000e+00 0.0000000e+00 -8.7195898e+02 
0.0000000e+00 0.0000000e+00 -1.6719609e+03 
0.0000000e+00 0.0000000e+00 -2.0719617e+03 
0.0000000e+00 0.0000000e+00 -2.0719617e+03 
0.0000000e+00 0.0000000e+00 -1.6719609e+03 
0.0000000e+00 0.0000000e+00 -8.7195898e+02 
0.0000000e+00 0.0000000e+00 3.2804428e+02 
0.0000000e+00 0.0000000e+00 1.9280485e+03 
