# vtk DataFile Version 4.0
vtk output
ASCII
DATASET UNSTRUCTURED_GRID
POINTS 30 float
0.0000000e+00 0.0000000e+00 0.0000000e+00 
0.0000000e+00 0.0000000e+00 8.0000001e-01 
0.0000000e+00 0.0000000e+00 1.6000000e+00 
0.0000000e+00 0.0000000e+00 2.4000001e+00 
0.0000000e+00 0.0000000e+00 3.2000000e+00 
0.0000000e+00 0.0000000e+00 4.0000000e+00 
0.0000000e+00 0.0000000e+00 4.8000002e+00 
0.0000000e+00 0.0000000e+00 5.5999999e+00 
0.0000000e+00 0.0000000e+00 6.4000001e+00 
0.0000000e+00 0.0000000e+00 7.1999998e+00 
0.0000000e+00 0.0000000e+00 8.0000000e+00 
1.0000000e+01 0.0000000e+00 0.0000000e+00 
1.0000000e+01 0.0000000e+00 8.0000001e-01 
1.0000000e+01 0.0000000e+00 1.6000000e+00 
1.0000000e+01 0.0000000e+00 2.4000001e+00 
1.0000000e+01 0.0000000e+00 3.2000000e+00 
1.0000000e+01 0.0000000e+00 4.0000000e+00 
1.0000000e+01 0.0000000e+00 4.8000002e+00 
1.0000000e+01 0.0000000e+00 5.5999999e+00 
1.0000000e+01 0.0000000e+00 6.4000001e+00 
1.0000000e+01 0.0000000e+00 7.1999998e+00 
1.0000000e+01 0.0000000e+00 8.0000000e+00 
2.0000000e+00 0.0000000e+00 4.0000000e+00 
4.0000000e+00 0.0000000e+00 4.0000000e+00 
6.0000000e+00 0.0000000e+00 4.0000000e+00 
8.0000000e+00 0.0000000e+00 4.0000000e+00 
2.0000000e+00 0.0000000e+00 8.0000000e+00 
4.0000000e+00 0.0000000e+00 8.0000000e+00 
6.0000000e+00 0.0000000e+00 8.0000000e+00 
8.0000000e+00 0.0000000e+00 8.0000000e+00 

CELLS 30 90
2 0 1
2 1 2
2 2 3
2 3 4
2 4 5
2 5 6
2 6 7
2 7 8
2 8 9
2 9 10
2 11 12
2 12 13
2 13 14
2 14 15
2 15 16
2 16 17
2 17 18
2 18 19
2 19 20
2 20 21
2 5 22
2 22 23
2 23 24
2 24 25
2 25 16
2 10 26
2 26 27
2 27 28
2 28 29
2 29 21

CELL_TYPES 30
3
3
3
3
3
3
3
3
3
3
3
3
3
3
3
3
3
3
3
3
3
3
3
3
3
3
3
3
3
3
POINT_DATA 30
FIELD FieldData 3
ADJOINT_DISPLACEMENT 3 30  float
0.0000000e+00 0.0000000e+00 0.0000000e+00 
-2.6585190e-02 0.0000000e+00 -2.0132329e-18 
-5.0955135e-02 0.0000000e+00 -4.0264658e-18 
-7.0894592e-02 0.0000000e+00 -6.0396989e-18 
-8.4188312e-02 0.0000000e+00 -8.0529317e-18 
-8.8621050e-02 0.0000000e+00 -1.0066165e-17 
-8.7396249e-02 0.0000000e+00 3.2716565e-05 
-9.3995117e-02 0.0000000e+00 6.5433131e-05 
-1.2161905e-01 0.0000000e+00 9.8149700e-05 
-1.8346944e-01 0.0000000e+00 1.3086626e-04 
-2.9274771e-01 0.0000000e+00 1.6358282e-04 
0.0000000e+00 0.0000000e+00 0.0000000e+00 
-9.7665489e-03 0.0000000e+00 4.6621566e-18 
-2.1748343e-02 0.0000000e+00 9.3175560e-18 
-3.8160626e-02 0.0000000e+00 1.4105120e-17 
-6.1218645e-02 0.0000000e+00 1.8714111e-17 
-9.3137644e-02 0.0000000e+00 2.3143304e-17 
-1.3943860e-01 0.0000000e+00 -3.2716565e-05 
-1.9536473e-01 0.0000000e+00 -6.5433131e-05 
-2.4771462e-01 0.0000000e+00 -9.8149700e-05 
-2.8328687e-01 0.0000000e+00 -1.3086626e-04 
-2.8888011e-01 0.0000000e+00 -1.6358282e-04 
-8.9524373e-02 0.0000000e+00 -1.6013026e-02 
-9.0427689e-02 0.0000000e+00 -4.5830585e-02 
-9.1331005e-02 0.0000000e+00 -6.7641631e-02 
-9.2234328e-02 0.0000000e+00 -5.9635114e-02 
-2.9197419e-01 0.0000000e+00 5.2947652e-01 
-2.9120067e-01 0.0000000e+00 1.4159113e+00 
-2.9042715e-01 0.0000000e+00 6.3765693e-01 
-2.8965363e-01 0.0000000e+00 1.7290230e-01 
ADJOINT_ROTATION 3 30  float
0.0000000e+00 -3.3692997e-02 0.0000000e+00 
0.0000000e+00 -3.2308470e-02 0.0000000e+00 
0.0000000e+00 -2.8154885e-02 0.0000000e+00 
0.0000000e+00 -2.1232244e-02 0.0000000e+00 
0.0000000e+00 -1.1540547e-02 0.0000000e+00 
0.0000000e+00 9.2020672e-04 0.0000000e+00 
0.0000000e+00 -6.0850120e-04 0.0000000e+00 
0.0000000e+00 -1.8638959e-02 0.0000000e+00 
0.0000000e+00 -5.3171165e-02 0.0000000e+00 
0.0000000e+00 -1.0420512e-01 0.0000000e+00 
0.0000000e+00 -1.7174083e-01 0.0000000e+00 
0.0000000e+00 -1.1746677e-02 0.0000000e+00 
0.0000000e+00 -1.3131205e-02 0.0000000e+00 
0.0000000e+00 -1.7284790e-02 0.0000000e+00 
0.0000000e+00 -2.4207430e-02 0.0000000e+00 
0.0000000e+00 -3.3899128e-02 0.0000000e+00 
0.0000000e+00 -4.6359882e-02 0.0000000e+00 
0.0000000e+00 -6.6642217e-02 0.0000000e+00 
0.0000000e+00 -7.0422806e-02 0.0000000e+00 
0.0000000e+00 -5.7701640e-02 0.0000000e+00 
0.0000000e+00 -2.8478727e-02 0.0000000e+00 
0.0000000e+00 1.7245935e-02 0.0000000e+00 
0.0000000e+00 1.3275233e-02 0.0000000e+00 
0.0000000e+00 1.4724737e-02 0.0000000e+00 
0.0000000e+00 5.2687195e-03 0.0000000e+00 
0.0000000e+00 -1.5092820e-02 0.0000000e+00 
0.0000000e+00 -3.5575452e-01 0.0000000e+00 
0.0000000e+00 -5.2886271e-01 0.0000000e+00 
0.0000000e+00 3.0893466e-01 0.0000000e+00 
0.0000000e+00 1.5763754e-01 0.0000000e+00 
SHAPE_SENSITIVITY 3 30  float
0.0000000e+00 0.0000000e+00 0.0000000e+00 
0.0000000e+00 0.0000000e+00 0.0000000e+00 
0.0000000e+00 0.0000000e+00 0.0000000e+00 
0.0000000e+00 0.0000000e+00 0.0000000e+00 
0.0000000e+00 0.0000000e+00 0.0000000e+00 
0.0000000e+00 0.0000000e+00 0.0000000e+00 
0.0000000e+00 0.0000000e+00 0.0000000e+00 
0.0000000e+00 0.0000000e+00 0.0000000e+00 
0.0000000e+00 0.0000000e+00 0.0000000e+00 
0.0000000e+00 0.0000000e+00 0.0000000e+00 
0.0000000e+00 0.0000000e+00 0.0000000e+00 
0.0000000e+00 0.0000000e+00 0.0000000e+00 
0.0000000e+00 0.0000000e+00 0.0000000e+00 
0.0000000e+00 0.0000000e+00 0.0000000e+00 
0.0000000e+00 0.0000000e+00 0.0000000e+00 
0.0000000e+00 0.0000000e+00 0.0000000e+00 
0.0000000e+00 0.0000000e+00 0.0000000e+00 
0.0000000e+00 0.0000000e+00 0.0000000e+00 
0.0000000e+00 0.0000000e+00 0.0000000e+00 
0.0000000e+00 0.0000000e+00 0.0000000e+00 
0.0000000e+00 0.0000000e+00 0.0000000e+00 
0.0000000e+00 0.0000000e+00 0.0000000e+00 
0.0000000e+00 0.0000000e+00 0.0000000e+00 
0.0000000e+00 0.0000000e+00 0.0000000e+00 
0.0000000e+00 0.0000000e+00 0.0000000e+00 
0.0000000e+00 0.0000000e+00 0.0000000e+00 
0.0000000e+00 0.0000000e+00 0.0000000e+00 
0.0000000e+00 0.0000000e+00 0.0000000e+00 
0.0000000e+00 0.0000000e+00 0.0000000e+00 
0.0000000e+00 0.0000000e+00 0.0000000e+00 
CELL_DATA 30
FIELD FieldData 1
I22_SENSITIVITY 1 30  float
-1.3097629e+05
-8.1112612e+05
-1.9646600e+06
-3.3278008e+06
-4.7395190e+06
6.1288801e+04
7.7046500e+05
1.9725608e+06
3.2181832e+06
5.9339580e+06
9.5596492e+04
6.6917606e+05
1.6988345e+06
2.9071562e+06
4.4617375e+06
-5.9487504e+04
1.8284905e+05
-1.7809831e+06
-5.6402950e+06
-1.1022228e+07
-3.9299550e+06
-3.6849159e+05
-1.0348139e+05
-3.5921835e+06
-1.0885968e+07
2.1932990e+07
2.1090420e+07
1.3594981e+07
-4.1621218e+06
-2.5984274e+07
