# vtk DataFile Version 4.0
vtk output
ASCII
DATASET UNSTRUCTURED_GRID
POINTS 212 float
0.0000000e+00 0.0000000e+00 0.0000000e+00 
0.0000000e+00 0.0000000e+00 2.5000000e-01 
0.0000000e+00 0.0000000e+00 5.0000000e-01 
0.0000000e+00 0.0000000e+00 7.5000000e-01 
0.0000000e+00 0.0000000e+00 1.0000000e+00 
0.0000000e+00 0.0000000e+00 1.2500000e+00 
0.0000000e+00 0.0000000e+00 1.5000000e+00 
0.0000000e+00 0.0000000e+00 1.7500000e+00 
0.0000000e+00 0.0000000e+00 2.0000000e+00 
0.0000000e+00 0.0000000e+00 2.2500000e+00 
0.0000000e+00 0.0000000e+00 2.5000000e+00 
0.0000000e+00 0.0000000e+00 2.7500000e+00 
0.0000000e+00 0.0000000e+00 3.0000000e+00 
0.0000000e+00 0.0000000e+00 3.2500000e+00 
0.0000000e+00 0.0000000e+00 3.5000000e+00 
0.0000000e+00 0.0000000e+00 3.7500000e+00 
0.0000000e+00 0.0000000e+00 4.0000000e+00 
0.0000000e+00 0.0000000e+00 4.2500000e+00 
0.0000000e+00 0.0000000e+00 4.5000000e+00 
0.0000000e+00 0.0000000e+00 4.7500000e+00 
0.0000000e+00 0.0000000e+00 5.0000000e+00 
0.0000000e+00 0.0000000e+00 5.2500000e+00 
0.0000000e+00 0.0000000e+00 5.5000000e+00 
0.0000000e+00 0.0000000e+00 5.7500000e+00 
0.0000000e+00 0.0000000e+00 6.0000000e+00 
0.0000000e+00 0.0000000e+00 6.2500000e+00 
0.0000000e+00 0.0000000e+00 6.5000000e+00 
0.0000000e+00 0.0000000e+00 6.7500000e+00 
0.0000000e+00 0.0000000e+00 7.0000000e+00 
0.0000000e+00 0.0000000e+00 7.2500000e+00 
0.0000000e+00 0.0000000e+00 7.5000000e+00 
0.0000000e+00 0.0000000e+00 7.7500000e+00 
0.0000000e+00 0.0000000e+00 8.0000000e+00 
0.0000000e+00 0.0000000e+00 8.2500000e+00 
0.0000000e+00 0.0000000e+00 8.5000000e+00 
0.0000000e+00 0.0000000e+00 8.7500000e+00 
0.0000000e+00 0.0000000e+00 9.0000000e+00 
0.0000000e+00 0.0000000e+00 9.2500000e+00 
0.0000000e+00 0.0000000e+00 9.5000000e+00 
0.0000000e+00 0.0000000e+00 9.7500000e+00 
0.0000000e+00 0.0000000e+00 1.0000000e+01 
0.0000000e+00 0.0000000e+00 1.0250000e+01 
0.0000000e+00 0.0000000e+00 1.0500000e+01 
0.0000000e+00 0.0000000e+00 1.0750000e+01 
0.0000000e+00 0.0000000e+00 1.1000000e+01 
0.0000000e+00 0.0000000e+00 1.1250000e+01 
0.0000000e+00 0.0000000e+00 1.1500000e+01 
0.0000000e+00 0.0000000e+00 1.1750000e+01 
0.0000000e+00 0.0000000e+00 1.2000000e+01 
0.0000000e+00 0.0000000e+00 1.2250000e+01 
0.0000000e+00 0.0000000e+00 1.2500000e+01 
0.0000000e+00 0.0000000e+00 1.2750000e+01 
0.0000000e+00 0.0000000e+00 1.3000000e+01 
0.0000000e+00 0.0000000e+00 1.3250000e+01 
0.0000000e+00 0.0000000e+00 1.3500000e+01 
0.0000000e+00 0.0000000e+00 1.3750000e+01 
0.0000000e+00 0.0000000e+00 1.4000000e+01 
0.0000000e+00 0.0000000e+00 1.4250000e+01 
0.0000000e+00 0.0000000e+00 1.4500000e+01 
0.0000000e+00 0.0000000e+00 1.4750000e+01 
0.0000000e+00 0.0000000e+00 1.5000000e+01 
0.0000000e+00 0.0000000e+00 1.5250000e+01 
0.0000000e+00 0.0000000e+00 1.5500000e+01 
0.0000000e+00 0.0000000e+00 1.5750000e+01 
0.0000000e+00 0.0000000e+00 1.6000000e+01 
0.0000000e+00 0.0000000e+00 1.6250000e+01 
0.0000000e+00 0.0000000e+00 1.6500000e+01 
0.0000000e+00 0.0000000e+00 1.6750000e+01 
0.0000000e+00 0.0000000e+00 1.7000000e+01 
0.0000000e+00 0.0000000e+00 1.7250000e+01 
0.0000000e+00 0.0000000e+00 1.7500000e+01 
0.0000000e+00 0.0000000e+00 1.7750000e+01 
0.0000000e+00 0.0000000e+00 1.8000000e+01 
5.0000000e-01 0.0000000e+00 3.0000000e+00 
5.0000000e-01 0.0000000e+00 6.0000000e+00 
5.0000000e-01 0.0000000e+00 9.0000000e+00 
5.0000000e-01 0.0000000e+00 1.2000000e+01 
5.0000000e-01 0.0000000e+00 1.5000000e+01 
5.0000000e-01 0.0000000e+00 1.8000000e+01 
1.0000000e+00 0.0000000e+00 3.0000000e+00 
1.0000000e+00 0.0000000e+00 6.0000000e+00 
1.0000000e+00 0.0000000e+00 9.0000000e+00 
1.0000000e+00 0.0000000e+00 1.2000000e+01 
1.0000000e+00 0.0000000e+00 1.5000000e+01 
1.0000000e+00 0.0000000e+00 1.8000000e+01 
1.5000000e+00 0.0000000e+00 3.0000000e+00 
1.5000000e+00 0.0000000e+00 6.0000000e+00 
1.5000000e+00 0.0000000e+00 9.0000000e+00 
1.5000000e+00 0.0000000e+00 1.2000000e+01 
1.5000000e+00 0.0000000e+00 1.5000000e+01 
1.5000000e+00 0.0000000e+00 1.8000000e+01 
2.0000000e+00 0.0000000e+00 3.0000000e+00 
2.0000000e+00 0.0000000e+00 6.0000000e+00 
2.0000000e+00 0.0000000e+00 9.0000000e+00 
2.0000000e+00 0.0000000e+00 1.2000000e+01 
2.0000000e+00 0.0000000e+00 1.5000000e+01 
2.0000000e+00 0.0000000e+00 1.8000000e+01 
2.5000000e+00 0.0000000e+00 3.0000000e+00 
2.5000000e+00 0.0000000e+00 6.0000000e+00 
2.5000000e+00 0.0000000e+00 9.0000000e+00 
2.5000000e+00 0.0000000e+00 1.2000000e+01 
2.5000000e+00 0.0000000e+00 1.5000000e+01 
2.5000000e+00 0.0000000e+00 1.8000000e+01 
3.0000000e+00 0.0000000e+00 3.0000000e+00 
3.0000000e+00 0.0000000e+00 6.0000000e+00 
3.0000000e+00 0.0000000e+00 9.0000000e+00 
3.0000000e+00 0.0000000e+00 1.2000000e+01 
3.0000000e+00 0.0000000e+00 1.5000000e+01 
3.0000000e+00 0.0000000e+00 1.8000000e+01 
3.5000000e+00 0.0000000e+00 3.0000000e+00 
3.5000000e+00 0.0000000e+00 6.0000000e+00 
3.5000000e+00 0.0000000e+00 9.0000000e+00 
3.5000000e+00 0.0000000e+00 1.2000000e+01 
3.5000000e+00 0.0000000e+00 1.5000000e+01 
3.5000000e+00 0.0000000e+00 1.8000000e+01 
4.0000000e+00 0.0000000e+00 3.0000000e+00 
4.0000000e+00 0.0000000e+00 6.0000000e+00 
4.0000000e+00 0.0000000e+00 9.0000000e+00 
4.0000000e+00 0.0000000e+00 1.2000000e+01 
4.0000000e+00 0.0000000e+00 1.5000000e+01 
4.0000000e+00 0.0000000e+00 1.8000000e+01 
4.5000000e+00 0.0000000e+00 3.0000000e+00 
4.5000000e+00 0.0000000e+00 6.0000000e+00 
4.5000000e+00 0.0000000e+00 9.0000000e+00 
4.5000000e+00 0.0000000e+00 1.2000000e+01 
4.5000000e+00 0.0000000e+00 1.5000000e+01 
4.5000000e+00 0.0000000e+00 1.8000000e+01 
5.0000000e+00 0.0000000e+00 3.0000000e+00 
5.0000000e+00 0.0000000e+00 6.0000000e+00 
5.0000000e+00 0.0000000e+00 9.0000000e+00 
5.0000000e+00 0.0000000e+00 1.2000000e+01 
5.0000000e+00 0.0000000e+00 1.5000000e+01 
5.0000000e+00 0.0000000e+00 1.8000000e+01 
5.5000000e+00 0.0000000e+00 3.0000000e+00 
5.5000000e+00 0.0000000e+00 6.0000000e+00 
5.5000000e+00 0.0000000e+00 9.0000000e+00 
5.5000000e+00 0.0000000e+00 1.2000000e+01 
5.5000000e+00 0.0000000e+00 1.5000000e+01 
5.5000000e+00 0.0000000e+00 1.8000000e+01 
6.0000000e+00 0.0000000e+00 0.0000000e+00 
6.0000000e+00 0.0000000e+00 2.5000000e-01 
6.0000000e+00 0.0000000e+00 5.0000000e-01 
6.0000000e+00 0.0000000e+00 7.5000000e-01 
6.0000000e+00 0.0000000e+00 1.0000000e+00 
6.0000000e+00 0.0000000e+00 1.2500000e+00 
6.0000000e+00 0.0000000e+00 1.5000000e+00 
6.0000000e+00 0.0000000e+00 1.7500000e+00 
6.0000000e+00 0.0000000e+00 2.0000000e+00 
6.0000000e+00 0.0000000e+00 2.2500000e+00 
6.0000000e+00 0.0000000e+00 2.5000000e+00 
6.0000000e+00 0.0000000e+00 2.7500000e+00 
6.0000000e+00 0.0000000e+00 3.0000000e+00 
6.0000000e+00 0.0000000e+00 3.2500000e+00 
6.0000000e+00 0.0000000e+00 3.5000000e+00 
6.0000000e+00 0.0000000e+00 3.7500000e+00 
6.0000000e+00 0.0000000e+00 4.0000000e+00 
6.0000000e+00 0.0000000e+00 4.2500000e+00 
6.0000000e+00 0.0000000e+00 4.5000000e+00 
6.0000000e+00 0.0000000e+00 4.7500000e+00 
6.0000000e+00 0.0000000e+00 5.0000000e+00 
6.0000000e+00 0.0000000e+00 5.2500000e+00 
6.0000000e+00 0.0000000e+00 5.5000000e+00 
6.0000000e+00 0.0000000e+00 5.7500000e+00 
6.0000000e+00 0.0000000e+00 6.0000000e+00 
6.0000000e+00 0.0000000e+00 6.2500000e+00 
6.0000000e+00 0.0000000e+00 6.5000000e+00 
6.0000000e+00 0.0000000e+00 6.7500000e+00 
6.0000000e+00 0.0000000e+00 7.0000000e+00 
6.0000000e+00 0.0000000e+00 7.2500000e+00 
6.0000000e+00 0.0000000e+00 7.5000000e+00 
6.0000000e+00 0.0000000e+00 7.7500000e+00 
6.0000000e+00 0.0000000e+00 8.0000000e+00 
6.0000000e+00 0.0000000e+00 8.2500000e+00 
6.0000000e+00 0.0000000e+00 8.5000000e+00 
6.0000000e+00 0.0000000e+00 8.7500000e+00 
6.0000000e+00 0.0000000e+00 9.0000000e+00 
6.0000000e+00 0.0000000e+00 9.2500000e+00 
6.0000000e+00 0.0000000e+00 9.5000000e+00 
6.0000000e+00 0.0000000e+00 9.7500000e+00 
6.0000000e+00 0.0000000e+00 1.0000000e+01 
6.0000000e+00 0.0000000e+00 1.0250000e+01 
6.0000000e+00 0.0000000e+00 1.0500000e+01 
6.0000000e+00 0.0000000e+00 1.0750000e+01 
6.0000000e+00 0.0000000e+00 1.1000000e+01 
6.0000000e+00 0.0000000e+00 1.1250000e+01 
6.0000000e+00 0.0000000e+00 1.1500000e+01 
6.0000000e+00 0.0000000e+00 1.1750000e+01 
6.0000000e+00 0.0000000e+00 1.2000000e+01 
6.0000000e+00 0.0000000e+00 1.2250000e+01 
6.0000000e+00 0.0000000e+00 1.2500000e+01 
6.0000000e+00 0.0000000e+00 1.2750000e+01 
6.0000000e+00 0.0000000e+00 1.3000000e+01 
6.0000000e+00 0.0000000e+00 1.3250000e+01 
6.0000000e+00 0.0000000e+00 1.3500000e+01 
6.0000000e+00 0.0000000e+00 1.3750000e+01 
6.0000000e+00 0.0000000e+00 1.4000000e+01 
6.0000000e+00 0.0000000e+00 1.4250000e+01 
6.0000000e+00 0.0000000e+00 1.4500000e+01 
6.0000000e+00 0.0000000e+00 1.4750000e+01 
6.0000000e+00 0.0000000e+00 1.5000000e+01 
6.0000000e+00 0.0000000e+00 1.5250000e+01 
6.0000000e+00 0.0000000e+00 1.5500000e+01 
6.0000000e+00 0.0000000e+00 1.5750000e+01 
6.0000000e+00 0.0000000e+00 1.6000000e+01 
6.0000000e+00 0.0000000e+00 1.6250000e+01 
6.0000000e+00 0.0000000e+00 1.6500000e+01 
6.0000000e+00 0.0000000e+00 1.6750000e+01 
6.0000000e+00 0.0000000e+00 1.7000000e+01 
6.0000000e+00 0.0000000e+00 1.7250000e+01 
6.0000000e+00 0.0000000e+00 1.7500000e+01 
6.0000000e+00 0.0000000e+00 1.7750000e+01 
6.0000000e+00 0.0000000e+00 1.8000000e+01 

CELLS 216 648
2 0 1
2 1 2
2 2 3
2 3 4
2 4 5
2 5 6
2 6 7
2 7 8
2 8 9
2 9 10
2 10 11
2 11 12
2 12 13
2 13 14
2 14 15
2 15 16
2 16 17
2 17 18
2 18 19
2 19 20
2 20 21
2 21 22
2 22 23
2 23 24
2 24 25
2 25 26
2 26 27
2 27 28
2 28 29
2 29 30
2 30 31
2 31 32
2 32 33
2 33 34
2 34 35
2 35 36
2 36 37
2 37 38
2 38 39
2 39 40
2 40 41
2 41 42
2 42 43
2 43 44
2 44 45
2 45 46
2 46 47
2 47 48
2 48 49
2 49 50
2 50 51
2 51 52
2 52 53
2 53 54
2 54 55
2 55 56
2 56 57
2 57 58
2 58 59
2 59 60
2 60 61
2 61 62
2 62 63
2 63 64
2 64 65
2 65 66
2 66 67
2 67 68
2 68 69
2 69 70
2 70 71
2 71 72
2 139 140
2 140 141
2 141 142
2 142 143
2 143 144
2 144 145
2 145 146
2 146 147
2 147 148
2 148 149
2 149 150
2 150 151
2 151 152
2 152 153
2 153 154
2 154 155
2 155 156
2 156 157
2 157 158
2 158 159
2 159 160
2 160 161
2 161 162
2 162 163
2 163 164
2 164 165
2 165 166
2 166 167
2 167 168
2 168 169
2 169 170
2 170 171
2 171 172
2 172 173
2 173 174
2 174 175
2 175 176
2 176 177
2 177 178
2 178 179
2 179 180
2 180 181
2 181 182
2 182 183
2 183 184
2 184 185
2 185 186
2 186 187
2 187 188
2 188 189
2 189 190
2 190 191
2 191 192
2 192 193
2 193 194
2 194 195
2 195 196
2 196 197
2 197 198
2 198 199
2 199 200
2 200 201
2 201 202
2 202 203
2 203 204
2 204 205
2 205 206
2 206 207
2 207 208
2 208 209
2 209 210
2 210 211
2 12 73
2 73 79
2 79 85
2 85 91
2 91 97
2 97 103
2 103 109
2 109 115
2 115 121
2 121 127
2 127 133
2 133 151
2 24 74
2 74 80
2 80 86
2 86 92
2 92 98
2 98 104
2 104 110
2 110 116
2 116 122
2 122 128
2 128 134
2 134 163
2 36 75
2 75 81
2 81 87
2 87 93
2 93 99
2 99 105
2 105 111
2 111 117
2 117 123
2 123 129
2 129 135
2 135 175
2 48 76
2 76 82
2 82 88
2 88 94
2 94 100
2 100 106
2 106 112
2 112 118
2 118 124
2 124 130
2 130 136
2 136 187
2 60 77
2 77 83
2 83 89
2 89 95
2 95 101
2 101 107
2 107 113
2 113 119
2 119 125
2 125 131
2 131 137
2 137 199
2 72 78
2 78 84
2 84 90
2 90 96
2 96 102
2 102 108
2 108 114
2 114 120
2 120 126
2 126 132
2 132 138
2 138 211

CELL_TYPES 216
3
3
3
3
3
3
3
3
3
3
3
3
3
3
3
3
3
3
3
3
3
3
3
3
3
3
3
3
3
3
3
3
3
3
3
3
3
3
3
3
3
3
3
3
3
3
3
3
3
3
3
3
3
3
3
3
3
3
3
3
3
3
3
3
3
3
3
3
3
3
3
3
3
3
3
3
3
3
3
3
3
3
3
3
3
3
3
3
3
3
3
3
3
3
3
3
3
3
3
3
3
3
3
3
3
3
3
3
3
3
3
3
3
3
3
3
3
3
3
3
3
3
3
3
3
3
3
3
3
3
3
3
3
3
3
3
3
3
3
3
3
3
3
3
3
3
3
3
3
3
3
3
3
3
3
3
3
3
3
3
3
3
3
3
3
3
3
3
3
3
3
3
3
3
3
3
3
3
3
3
3
3
3
3
3
3
3
3
3
3
3
3
3
3
3
3
3
3
3
3
3
3
3
3
3
3
3
3
3
3
3
3
3
3
3
3
POINT_DATA 212
FIELD FieldData 3
ADJOINT_DISPLACEMENT 3 212  float
0.0000000e+00 0.0000000e+00 0.0000000e+00 
-7.2430572e-03 0.0000000e+00 3.3021849e-16 
-1.4396750e-02 0.0000000e+00 6.6043699e-16 
-2.1371715e-02 0.0000000e+00 9.9065554e-16 
-2.8078588e-02 0.0000000e+00 1.3208740e-15 
-3.4428004e-02 0.0000000e+00 1.6510925e-15 
-4.0330600e-02 0.0000000e+00 1.9813111e-15 
-4.5697011e-02 0.0000000e+00 2.3115294e-15 
-5.0437875e-02 0.0000000e+00 2.6417480e-15 
-5.4463826e-02 0.0000000e+00 2.9719665e-15 
-5.7685502e-02 0.0000000e+00 3.3021850e-15 
-6.0013536e-02 0.0000000e+00 3.6324034e-15 
-6.1358564e-02 0.0000000e+00 3.9626221e-15 
-6.2228885e-02 0.0000000e+00 5.2195675e-05 
-6.3578710e-02 0.0000000e+00 1.0439135e-04 
-6.5987557e-02 0.0000000e+00 1.5658703e-04 
-7.0034951e-02 0.0000000e+00 2.0878270e-04 
-7.6300405e-02 0.0000000e+00 2.6097838e-04 
-8.5363433e-02 0.0000000e+00 3.1317407e-04 
-9.7803555e-02 0.0000000e+00 3.6536975e-04 
-1.1420029e-01 0.0000000e+00 4.1756540e-04 
-1.3513316e-01 0.0000000e+00 4.6976109e-04 
-1.6118167e-01 0.0000000e+00 5.2195677e-04 
-1.9292535e-01 0.0000000e+00 5.7415245e-04 
-2.3094371e-01 0.0000000e+00 6.2634813e-04 
-2.7925667e-01 0.0000000e+00 8.8782894e-04 
-3.4149837e-01 0.0000000e+00 1.1493098e-03 
-4.1766971e-01 0.0000000e+00 1.4107906e-03 
-5.0777161e-01 0.0000000e+00 1.6722714e-03 
-6.1180502e-01 0.0000000e+00 1.9337522e-03 
-7.2977078e-01 0.0000000e+00 2.1952330e-03 
-6.1166990e-01 0.0000000e+00 2.4567139e-03 
-5.0750315e-01 0.0000000e+00 2.7181949e-03 
-4.1727152e-01 0.0000000e+00 2.9796755e-03 
-3.4097591e-01 0.0000000e+00 3.2411565e-03 
-2.7861723e-01 0.0000000e+00 3.5026371e-03 
-2.3019639e-01 0.0000000e+00 3.7641181e-03 
-1.9211037e-01 0.0000000e+00 3.8185737e-03 
-1.6036573e-01 0.0000000e+00 3.8730293e-03 
-1.3437767e-01 0.0000000e+00 3.9274846e-03 
-1.1356142e-01 0.0000000e+00 3.9819404e-03 
-9.7332172e-02 0.0000000e+00 4.0363958e-03 
-8.5105143e-02 0.0000000e+00 4.0908516e-03 
-7.6295555e-02 0.0000000e+00 4.1453070e-03 
-7.0318609e-02 0.0000000e+00 4.1997628e-03 
-6.6589527e-02 0.0000000e+00 4.2542182e-03 
-6.4523511e-02 0.0000000e+00 4.3086740e-03 
-6.3535787e-02 0.0000000e+00 4.3631294e-03 
-6.3041553e-02 0.0000000e+00 4.4175852e-03 
-6.2196504e-02 0.0000000e+00 4.4289064e-03 
-6.0624242e-02 0.0000000e+00 4.4402275e-03 
-5.8441848e-02 0.0000000e+00 4.4515491e-03 
-5.5766419e-02 0.0000000e+00 4.4628703e-03 
-5.2715041e-02 0.0000000e+00 4.4741915e-03 
-4.9404800e-02 0.0000000e+00 4.4855131e-03 
-4.5952786e-02 0.0000000e+00 4.4968342e-03 
-4.2476092e-02 0.0000000e+00 4.5081554e-03 
-3.9091799e-02 0.0000000e+00 4.5194770e-03 
-3.5916999e-02 0.0000000e+00 4.5307982e-03 
-3.3068784e-02 0.0000000e+00 4.5421193e-03 
-3.0664241e-02 0.0000000e+00 4.5534410e-03 
-2.8645953e-02 0.0000000e+00 4.5557008e-03 
-2.6866309e-02 0.0000000e+00 4.5579607e-03 
-2.5307102e-02 0.0000000e+00 4.5602205e-03 
-2.3950122e-02 0.0000000e+00 4.5624804e-03 
-2.2777162e-02 0.0000000e+00 4.5647402e-03 
-2.1770015e-02 0.0000000e+00 4.5670001e-03 
-2.0910472e-02 0.0000000e+00 4.5692599e-03 
-2.0180322e-02 0.0000000e+00 4.5715198e-03 
-1.9561362e-02 0.0000000e+00 4.5737801e-03 
-1.9035380e-02 0.0000000e+00 4.5760400e-03 
-1.8584169e-02 0.0000000e+00 4.5782998e-03 
-1.8189522e-02 0.0000000e+00 4.5805597e-03 
-6.1976686e-02 0.0000000e+00 -1.4661797e-04 
-2.3040901e-01 0.0000000e+00 6.9780752e-02 
-2.2965513e-01 0.0000000e+00 -6.5711372e-02 
-6.3690163e-02 0.0000000e+00 4.9143196e-03 
-3.0539211e-02 0.0000000e+00 8.4774813e-04 
-1.8206347e-02 0.0000000e+00 3.9058763e-03 
-6.2594809e-02 0.0000000e+00 -3.2789528e-03 
-2.2987431e-01 0.0000000e+00 1.1426415e-01 
-2.2911389e-01 0.0000000e+00 -1.1072095e-01 
-6.4338773e-02 0.0000000e+00 7.6762862e-03 
-3.0414183e-02 0.0000000e+00 -1.7992040e-03 
-1.8223174e-02 0.0000000e+00 3.3454841e-03 
-6.3212931e-02 0.0000000e+00 -8.4932921e-03 
-2.2933961e-01 0.0000000e+00 1.3770010e-01 
-2.2857264e-01 0.0000000e+00 -1.3484904e-01 
-6.4987391e-02 0.0000000e+00 1.1956660e-02 
-3.0289153e-02 0.0000000e+00 -3.5443043e-03 
-1.8239999e-02 0.0000000e+00 2.8602553e-03 
-6.3831046e-02 0.0000000e+00 -1.4885923e-02 
-2.2880492e-01 0.0000000e+00 1.4371213e-01 
-2.2803138e-01 0.0000000e+00 -1.4168005e-01 
-6.5636002e-02 0.0000000e+00 1.7008618e-02 
-3.0164124e-02 0.0000000e+00 -4.5444407e-03 
-1.8256826e-02 0.0000000e+00 2.4110621e-03 
-6.4449169e-02 0.0000000e+00 -2.1553135e-02 
-2.2827022e-01 0.0000000e+00 1.3592382e-01 
-2.2749014e-01 0.0000000e+00 -1.3479841e-01 
-6.6284612e-02 0.0000000e+00 2.2085337e-02 
-3.0039094e-02 0.0000000e+00 -4.9565020e-03 
-1.8273653e-02 0.0000000e+00 1.9587763e-03 
-6.5067291e-02 0.0000000e+00 -2.7591212e-02 
-2.2773552e-01 0.0000000e+00 1.1795869e-01 
-2.2694889e-01 0.0000000e+00 -1.1778855e-01 
-6.6933222e-02 0.0000000e+00 2.6439989e-02 
-2.9914064e-02 0.0000000e+00 -4.9373759e-03 
-1.8290479e-02 0.0000000e+00 1.4642701e-03 
-6.5685414e-02 0.0000000e+00 -3.2096446e-02 
-2.2720082e-01 0.0000000e+00 9.3440294e-02 
-2.2640765e-01 0.0000000e+00 -9.4234876e-02 
-6.7581832e-02 0.0000000e+00 2.9325755e-02 
-2.9789036e-02 0.0000000e+00 -4.6439515e-03 
-1.8307306e-02 0.0000000e+00 8.8841544e-04 
-6.6303536e-02 0.0000000e+00 -3.4165122e-02 
-2.2666612e-01 0.0000000e+00 6.5992199e-02 
-2.2586639e-01 0.0000000e+00 -6.7721814e-02 
-6.8230450e-02 0.0000000e+00 2.9995808e-02 
-2.9664006e-02 0.0000000e+00 -4.2331163e-03 
-1.8324131e-02 0.0000000e+00 1.9208464e-04 
-6.6921651e-02 0.0000000e+00 -3.2893527e-02 
-2.2613142e-01 0.0000000e+00 3.9237931e-02 
-2.2532515e-01 0.0000000e+00 -4.1833788e-02 
-6.8879060e-02 0.0000000e+00 2.7703324e-02 
-2.9538978e-02 0.0000000e+00 -3.8617596e-03 
-1.8340958e-02 0.0000000e+00 -6.6385034e-04 
-6.7539774e-02 0.0000000e+00 -2.7377950e-02 
-2.2559673e-01 0.0000000e+00 1.6801054e-02 
-2.2478390e-01 0.0000000e+00 -2.0155217e-02 
-6.9527671e-02 0.0000000e+00 2.1701479e-02 
-2.9413948e-02 0.0000000e+00 -3.6867692e-03 
-1.8357784e-02 0.0000000e+00 -1.7185175e-03 
-6.8157896e-02 0.0000000e+00 -1.6714679e-02 
-2.2506203e-01 0.0000000e+00 2.3051111e-03 
-2.2424264e-01 0.0000000e+00 -6.2705195e-03 
-7.0176281e-02 0.0000000e+00 1.1243451e-02 
-2.9288918e-02 0.0000000e+00 -3.8650334e-03 
-1.8374611e-02 0.0000000e+00 -3.0110446e-03 
0.0000000e+00 0.0000000e+00 0.0000000e+00 
-3.6014915e-03 0.0000000e+00 -3.4525148e-16 
-7.2923470e-03 0.0000000e+00 -6.9037113e-16 
-1.1161931e-02 0.0000000e+00 -1.0356032e-15 
-1.5299607e-02 0.0000000e+00 -1.3808448e-15 
-1.9794738e-02 0.0000000e+00 -1.7261598e-15 
-2.4736691e-02 0.0000000e+00 -2.0715902e-15 
-3.0214828e-02 0.0000000e+00 -2.4169571e-15 
-3.6318514e-02 0.0000000e+00 -2.7626170e-15 
-4.3137111e-02 0.0000000e+00 -3.1080747e-15 
-5.0759986e-02 0.0000000e+00 -3.4534423e-15 
-5.9276499e-02 0.0000000e+00 -3.7987797e-15 
-6.8776019e-02 0.0000000e+00 -4.1440608e-15 
-8.0105819e-02 0.0000000e+00 -5.2195675e-05 
-9.3667246e-02 0.0000000e+00 -1.0439135e-04 
-1.0888079e-01 0.0000000e+00 -1.5658703e-04 
-1.2516692e-01 0.0000000e+00 -2.0878270e-04 
-1.4194614e-01 0.0000000e+00 -2.6097838e-04 
-1.5863891e-01 0.0000000e+00 -3.1317407e-04 
-1.7466573e-01 0.0000000e+00 -3.6536975e-04 
-1.8944708e-01 0.0000000e+00 -4.1756540e-04 
-2.0240341e-01 0.0000000e+00 -4.6976109e-04 
-2.1295525e-01 0.0000000e+00 -5.2195677e-04 
-2.2052306e-01 0.0000000e+00 -5.7415245e-04 
-2.2452733e-01 0.0000000e+00 -6.2634813e-04 
-2.2638346e-01 0.0000000e+00 -8.8782894e-04 
-2.2789264e-01 0.0000000e+00 -1.1493098e-03 
-2.2905393e-01 0.0000000e+00 -1.4107906e-03 
-2.2986645e-01 0.0000000e+00 -1.6722714e-03 
-2.3032928e-01 0.0000000e+00 -1.9337522e-03 
-2.3044150e-01 0.0000000e+00 -2.1952330e-03 
-2.3020223e-01 0.0000000e+00 -2.4567139e-03 
-2.2961052e-01 0.0000000e+00 -2.7181949e-03 
-2.2866550e-01 0.0000000e+00 -2.9796755e-03 
-2.2736625e-01 0.0000000e+00 -3.2411565e-03 
-2.2571185e-01 0.0000000e+00 -3.5026371e-03 
-2.2370140e-01 0.0000000e+00 -3.7641181e-03 
-2.1956126e-01 0.0000000e+00 -3.8185737e-03 
-2.1190828e-01 0.0000000e+00 -3.8730293e-03 
-2.0132723e-01 0.0000000e+00 -3.9274846e-03 
-1.8840292e-01 0.0000000e+00 -3.9819404e-03 
-1.7372011e-01 0.0000000e+00 -4.0363958e-03 
-1.5786359e-01 0.0000000e+00 -4.0908516e-03 
-1.4141817e-01 0.0000000e+00 -4.1453070e-03 
-1.2496862e-01 0.0000000e+00 -4.1997628e-03 
-1.0909972e-01 0.0000000e+00 -4.2542182e-03 
-9.4396286e-02 0.0000000e+00 -4.3086740e-03 
-8.1443079e-02 0.0000000e+00 -4.3631294e-03 
-7.0824891e-02 0.0000000e+00 -4.4175852e-03 
-6.2265813e-02 0.0000000e+00 -4.4289064e-03 
-5.5021998e-02 0.0000000e+00 -4.4402275e-03 
-4.8976362e-02 0.0000000e+00 -4.4515491e-03 
-4.4011809e-02 0.0000000e+00 -4.4628703e-03 
-4.0011253e-02 0.0000000e+00 -4.4741915e-03 
-3.6857612e-02 0.0000000e+00 -4.4855131e-03 
-3.4433790e-02 0.0000000e+00 -4.4968342e-03 
-3.2622699e-02 0.0000000e+00 -4.5081554e-03 
-3.1307250e-02 0.0000000e+00 -4.5194770e-03 
-3.0370360e-02 0.0000000e+00 -4.5307982e-03 
-2.9694935e-02 0.0000000e+00 -4.5421193e-03 
-2.9163890e-02 0.0000000e+00 -4.5534410e-03 
-2.8599301e-02 0.0000000e+00 -4.5557008e-03 
-2.7913455e-02 0.0000000e+00 -4.5579607e-03 
-2.7124554e-02 0.0000000e+00 -4.5602205e-03 
-2.6250809e-02 0.0000000e+00 -4.5624804e-03 
-2.5310429e-02 0.0000000e+00 -4.5647402e-03 
-2.4321621e-02 0.0000000e+00 -4.5670001e-03 
-2.3302592e-02 0.0000000e+00 -4.5692599e-03 
-2.2271551e-02 0.0000000e+00 -4.5715198e-03 
-2.1246709e-02 0.0000000e+00 -4.5737801e-03 
-2.0246269e-02 0.0000000e+00 -4.5760400e-03 
-1.9288443e-02 0.0000000e+00 -4.5782998e-03 
-1.8391438e-02 0.0000000e+00 -4.5805597e-03 
ADJOINT_ROTATION 3 212  float
0.0000000e+00 -2.9031804e-02 0.0000000e+00 
0.0000000e+00 -2.8853076e-02 0.0000000e+00 
0.0000000e+00 -2.8316891e-02 0.0000000e+00 
0.0000000e+00 -2.7423251e-02 0.0000000e+00 
0.0000000e+00 -2.6172154e-02 0.0000000e+00 
0.0000000e+00 -2.4563601e-02 0.0000000e+00 
0.0000000e+00 -2.2597592e-02 0.0000000e+00 
0.0000000e+00 -2.0274127e-02 0.0000000e+00 
0.0000000e+00 -1.7593205e-02 0.0000000e+00 
0.0000000e+00 -1.4554827e-02 0.0000000e+00 
0.0000000e+00 -1.1158993e-02 0.0000000e+00 
0.0000000e+00 -7.4057025e-03 0.0000000e+00 
0.0000000e+00 -3.2949557e-03 0.0000000e+00 
0.0000000e+00 -4.0539457e-03 0.0000000e+00 
0.0000000e+00 -7.1310066e-03 0.0000000e+00 
0.0000000e+00 -1.2526138e-02 0.0000000e+00 
0.0000000e+00 -2.0239340e-02 0.0000000e+00 
0.0000000e+00 -3.0270614e-02 0.0000000e+00 
0.0000000e+00 -4.2619959e-02 0.0000000e+00 
0.0000000e+00 -5.7287373e-02 0.0000000e+00 
0.0000000e+00 -7.4272856e-02 0.0000000e+00 
0.0000000e+00 -9.3576416e-02 0.0000000e+00 
0.0000000e+00 -1.1519805e-01 0.0000000e+00 
0.0000000e+00 -1.3913774e-01 0.0000000e+00 
0.0000000e+00 -1.6539551e-01 0.0000000e+00 
0.0000000e+00 -2.2110869e-01 0.0000000e+00 
0.0000000e+00 -2.7682549e-01 0.0000000e+00 
0.0000000e+00 -3.3254594e-01 0.0000000e+00 
0.0000000e+00 -3.8827002e-01 0.0000000e+00 
0.0000000e+00 -4.4399774e-01 0.0000000e+00 
0.0000000e+00 -4.9972910e-01 0.0000000e+00 
0.0000000e+00 4.4453594e-01 0.0000000e+00 
0.0000000e+00 3.8879731e-01 0.0000000e+00 
0.0000000e+00 3.3305508e-01 0.0000000e+00 
0.0000000e+00 2.7730918e-01 0.0000000e+00 
0.0000000e+00 2.2155966e-01 0.0000000e+00 
0.0000000e+00 1.6580650e-01 0.0000000e+00 
0.0000000e+00 1.3927144e-01 0.0000000e+00 
0.0000000e+00 1.1507553e-01 0.0000000e+00 
0.0000000e+00 9.3218766e-02 0.0000000e+00 
0.0000000e+00 7.3701151e-02 0.0000000e+00 
0.0000000e+00 5.6522690e-02 0.0000000e+00 
0.0000000e+00 4.1683376e-02 0.0000000e+00 
0.0000000e+00 2.9183213e-02 0.0000000e+00 
0.0000000e+00 1.9022200e-02 0.0000000e+00 
0.0000000e+00 1.1200336e-02 0.0000000e+00 
0.0000000e+00 5.7176226e-03 0.0000000e+00 
0.0000000e+00 2.5740589e-03 0.0000000e+00 
0.0000000e+00 1.7696454e-03 0.0000000e+00 
0.0000000e+00 4.9126851e-03 0.0000000e+00 
0.0000000e+00 7.5873709e-03 0.0000000e+00 
0.0000000e+00 9.7937016e-03 0.0000000e+00 
0.0000000e+00 1.1531677e-02 0.0000000e+00 
0.0000000e+00 1.2801299e-02 0.0000000e+00 
0.0000000e+00 1.3602565e-02 0.0000000e+00 
0.0000000e+00 1.3935477e-02 0.0000000e+00 
0.0000000e+00 1.3800035e-02 0.0000000e+00 
0.0000000e+00 1.3196237e-02 0.0000000e+00 
0.0000000e+00 1.2124086e-02 0.0000000e+00 
0.0000000e+00 1.0583579e-02 0.0000000e+00 
0.0000000e+00 8.5747177e-03 0.0000000e+00 
0.0000000e+00 7.5837243e-03 0.0000000e+00 
0.0000000e+00 6.6655632e-03 0.0000000e+00 
0.0000000e+00 5.8202348e-03 0.0000000e+00 
0.0000000e+00 5.0477386e-03 0.0000000e+00 
0.0000000e+00 4.3480755e-03 0.0000000e+00 
0.0000000e+00 3.7212446e-03 0.0000000e+00 
0.0000000e+00 3.1672462e-03 0.0000000e+00 
0.0000000e+00 2.6860805e-03 0.0000000e+00 
0.0000000e+00 2.2777475e-03 0.0000000e+00 
0.0000000e+00 1.9422469e-03 0.0000000e+00 
0.0000000e+00 1.6795789e-03 0.0000000e+00 
0.0000000e+00 1.4897434e-03 0.0000000e+00 
0.0000000e+00 3.5801902e-03 0.0000000e+00 
0.0000000e+00 -1.1242995e-01 0.0000000e+00 
0.0000000e+00 1.1329026e-01 0.0000000e+00 
0.0000000e+00 -3.5076423e-03 0.0000000e+00 
0.0000000e+00 6.3003488e-03 0.0000000e+00 
0.0000000e+00 1.2220329e-03 0.0000000e+00 
0.0000000e+00 8.6479113e-03 0.0000000e+00 
0.0000000e+00 -6.6711493e-02 0.0000000e+00 
0.0000000e+00 6.7942858e-02 0.0000000e+00 
0.0000000e+00 -7.2912821e-03 0.0000000e+00 
0.0000000e+00 4.3397564e-03 0.0000000e+00 
0.0000000e+00 1.0325783e-03 0.0000000e+00 
0.0000000e+00 1.1908208e-02 0.0000000e+00 
0.0000000e+00 -2.8240133e-02 0.0000000e+00 
0.0000000e+00 2.9764293e-02 0.0000000e+00 
0.0000000e+00 -9.5812734e-03 0.0000000e+00 
0.0000000e+00 2.6929404e-03 0.0000000e+00 
0.0000000e+00 9.2137943e-04 0.0000000e+00 
0.0000000e+00 1.3361080e-02 0.0000000e+00 
0.0000000e+00 2.9841317e-03 0.0000000e+00 
0.0000000e+00 -1.2454276e-03 0.0000000e+00 
0.0000000e+00 -1.0377618e-02 0.0000000e+00 
0.0000000e+00 1.3599015e-03 0.0000000e+00 
0.0000000e+00 8.8843651e-04 0.0000000e+00 
0.0000000e+00 1.3006526e-02 0.0000000e+00 
0.0000000e+00 2.6961299e-02 0.0000000e+00 
0.0000000e+00 -2.5086306e-02 0.0000000e+00 
0.0000000e+00 -9.6803131e-03 0.0000000e+00 
0.0000000e+00 3.4063912e-04 0.0000000e+00 
0.0000000e+00 9.3374937e-04 0.0000000e+00 
0.0000000e+00 1.0844548e-02 0.0000000e+00 
0.0000000e+00 4.3691367e-02 0.0000000e+00 
0.0000000e+00 -4.1758344e-02 0.0000000e+00 
0.0000000e+00 -7.4893599e-03 0.0000000e+00 
0.0000000e+00 -3.6484655e-04 0.0000000e+00 
0.0000000e+00 1.0573182e-03 0.0000000e+00 
0.0000000e+00 6.8751462e-03 0.0000000e+00 
0.0000000e+00 5.3174339e-02 0.0000000e+00 
0.0000000e+00 -5.1261541e-02 0.0000000e+00 
0.0000000e+00 -3.8047594e-03 0.0000000e+00 
0.0000000e+00 -7.5655553e-04 0.0000000e+00 
0.0000000e+00 1.2591428e-03 0.0000000e+00 
0.0000000e+00 1.0983186e-03 0.0000000e+00 
0.0000000e+00 5.5410214e-02 0.0000000e+00 
0.0000000e+00 -5.3595893e-02 0.0000000e+00 
0.0000000e+00 1.3734894e-03 0.0000000e+00 
0.0000000e+00 -8.3448784e-04 0.0000000e+00 
0.0000000e+00 1.5392231e-03 0.0000000e+00 
0.0000000e+00 -6.4859334e-03 0.0000000e+00 
0.0000000e+00 5.0398991e-02 0.0000000e+00 
0.0000000e+00 -4.8761405e-02 0.0000000e+00 
0.0000000e+00 8.0453865e-03 0.0000000e+00 
0.0000000e+00 -5.9864344e-04 0.0000000e+00 
0.0000000e+00 1.8975595e-03 0.0000000e+00 
0.0000000e+00 -1.5877610e-02 0.0000000e+00 
0.0000000e+00 3.8140669e-02 0.0000000e+00 
0.0000000e+00 -3.6758076e-02 0.0000000e+00 
0.0000000e+00 1.6210930e-02 0.0000000e+00 
0.0000000e+00 -4.9022336e-05 0.0000000e+00 
0.0000000e+00 2.3341516e-03 0.0000000e+00 
0.0000000e+00 -2.7076712e-02 0.0000000e+00 
0.0000000e+00 1.8635252e-02 0.0000000e+00 
0.0000000e+00 -1.7585905e-02 0.0000000e+00 
0.0000000e+00 2.5870124e-02 0.0000000e+00 
0.0000000e+00 8.1437547e-04 0.0000000e+00 
0.0000000e+00 2.8489996e-03 0.0000000e+00 
0.0000000e+00 -1.4346390e-02 0.0000000e+00 
0.0000000e+00 -1.4525118e-02 0.0000000e+00 
0.0000000e+00 -1.5061302e-02 0.0000000e+00 
0.0000000e+00 -1.5954943e-02 0.0000000e+00 
0.0000000e+00 -1.7206039e-02 0.0000000e+00 
0.0000000e+00 -1.8814594e-02 0.0000000e+00 
0.0000000e+00 -2.0780602e-02 0.0000000e+00 
0.0000000e+00 -2.3104068e-02 0.0000000e+00 
0.0000000e+00 -2.5784990e-02 0.0000000e+00 
0.0000000e+00 -2.8823366e-02 0.0000000e+00 
0.0000000e+00 -3.2219201e-02 0.0000000e+00 
0.0000000e+00 -3.5972491e-02 0.0000000e+00 
0.0000000e+00 -4.0083237e-02 0.0000000e+00 
0.0000000e+00 -5.0168797e-02 0.0000000e+00 
0.0000000e+00 -5.7936285e-02 0.0000000e+00 
0.0000000e+00 -6.3385703e-02 0.0000000e+00 
0.0000000e+00 -6.6517048e-02 0.0000000e+00 
0.0000000e+00 -6.7330323e-02 0.0000000e+00 
0.0000000e+00 -6.5825529e-02 0.0000000e+00 
0.0000000e+00 -6.2002659e-02 0.0000000e+00 
0.0000000e+00 -5.5861723e-02 0.0000000e+00 
0.0000000e+00 -4.7402713e-02 0.0000000e+00 
0.0000000e+00 -3.6625635e-02 0.0000000e+00 
0.0000000e+00 -2.3530485e-02 0.0000000e+00 
0.0000000e+00 -8.1172641e-03 0.0000000e+00 
0.0000000e+00 -6.7312228e-03 0.0000000e+00 
0.0000000e+00 -5.3415471e-03 0.0000000e+00 
0.0000000e+00 -3.9482368e-03 0.0000000e+00 
0.0000000e+00 -2.5512921e-03 0.0000000e+00 
0.0000000e+00 -1.1507130e-03 0.0000000e+00 
0.0000000e+00 2.5350077e-04 0.0000000e+00 
0.0000000e+00 1.6613490e-03 0.0000000e+00 
0.0000000e+00 3.0728315e-03 0.0000000e+00 
0.0000000e+00 4.4879490e-03 0.0000000e+00 
0.0000000e+00 5.9067002e-03 0.0000000e+00 
0.0000000e+00 7.3290863e-03 0.0000000e+00 
0.0000000e+00 8.7551074e-03 0.0000000e+00 
0.0000000e+00 2.3976088e-02 0.0000000e+00 
0.0000000e+00 3.6857918e-02 0.0000000e+00 
0.0000000e+00 4.7400597e-02 0.0000000e+00 
0.0000000e+00 5.5604126e-02 0.0000000e+00 
0.0000000e+00 6.1468504e-02 0.0000000e+00 
0.0000000e+00 6.4993739e-02 0.0000000e+00 
0.0000000e+00 6.6179812e-02 0.0000000e+00 
0.0000000e+00 6.5026745e-02 0.0000000e+00 
0.0000000e+00 6.1534524e-02 0.0000000e+00 
0.0000000e+00 5.5703156e-02 0.0000000e+00 
0.0000000e+00 4.7532637e-02 0.0000000e+00 
0.0000000e+00 3.7022963e-02 0.0000000e+00 
0.0000000e+00 3.1527732e-02 0.0000000e+00 
0.0000000e+00 2.6500849e-02 0.0000000e+00 
0.0000000e+00 2.1942323e-02 0.0000000e+00 
0.0000000e+00 1.7852152e-02 0.0000000e+00 
0.0000000e+00 1.4230335e-02 0.0000000e+00 
0.0000000e+00 1.1076873e-02 0.0000000e+00 
0.0000000e+00 8.3917659e-03 0.0000000e+00 
0.0000000e+00 6.1750137e-03 0.0000000e+00 
0.0000000e+00 4.4266158e-03 0.0000000e+00 
0.0000000e+00 3.1465725e-03 0.0000000e+00 
0.0000000e+00 2.3348839e-03 0.0000000e+00 
0.0000000e+00 1.9915500e-03 0.0000000e+00 
0.0000000e+00 2.5130084e-03 0.0000000e+00 
0.0000000e+00 2.9616344e-03 0.0000000e+00 
0.0000000e+00 3.3374277e-03 0.0000000e+00 
0.0000000e+00 3.6403886e-03 0.0000000e+00 