# vtk DataFile Version 4.0
vtk output
ASCII
DATASET UNSTRUCTURED_GRID
POINTS 18 float
0.0000000e+00 0.0000000e+00 0.0000000e+00 
0.0000000e+00 2.0000000e+00 0.0000000e+00 
0.0000000e+00 4.0000000e+00 0.0000000e+00 
2.0000000e+00 4.0000000e+00 0.0000000e+00 
2.0000000e+00 2.0000000e+00 0.0000000e+00 
2.0000000e+00 0.0000000e+00 0.0000000e+00 
0.0000000e+00 6.6666669e-01 0.0000000e+00 
0.0000000e+00 1.3333334e+00 0.0000000e+00 
0.0000000e+00 2.6666667e+00 0.0000000e+00 
0.0000000e+00 3.3333333e+00 0.0000000e+00 
6.6666669e-01 4.0000000e+00 0.0000000e+00 
1.3333334e+00 4.0000000e+00 0.0000000e+00 
2.0000000e+00 3.3333333e+00 0.0000000e+00 
2.0000000e+00 2.6666667e+00 0.0000000e+00 
2.0000000e+00 1.3333334e+00 0.0000000e+00 
2.0000000e+00 6.6666669e-01 0.0000000e+00 
6.6666669e-01 2.0000000e+00 0.0000000e+00 
1.3333334e+00 2.0000000e+00 0.0000000e+00 

CELLS 18 54
2 0 6
2 6 7
2 7 1
2 1 8
2 8 9
2 9 2
2 2 10
2 10 11
2 11 3
2 3 12
2 12 13
2 13 4
2 4 14
2 14 15
2 15 5
2 1 16
2 16 17
2 17 4

CELL_TYPES 18
3
3
3
3
3
3
3
3
3
3
3
3
3
3
3
3
3
3
POINT_DATA 18
FIELD FieldData 6
DISPLACEMENT 3 18  float
0.0000000e+00 0.0000000e+00 0.0000000e+00 
-2.6457110e-06 -6.6368011e-05 0.0000000e+00 
3.2386004e-06 -9.9552017e-05 0.0000000e+00 
-3.2386004e-06 -9.9552017e-05 0.0000000e+00 
2.6457110e-06 -6.6368011e-05 0.0000000e+00 
0.0000000e+00 0.0000000e+00 0.0000000e+00 
-1.3532871e-04 -2.2122671e-05 0.0000000e+00 
-1.6982232e-04 -4.4245342e-05 0.0000000e+00 
1.5489724e-05 -7.7429344e-05 0.0000000e+00 
-1.6614949e-04 -8.8490684e-05 0.0000000e+00 
1.0795335e-06 -7.6542801e-04 0.0000000e+00 
-1.0795335e-06 -7.6542801e-04 0.0000000e+00 
1.6614949e-04 -8.8490684e-05 0.0000000e+00 
-1.5489724e-05 -7.7429344e-05 0.0000000e+00 
1.6982232e-04 -4.4245342e-05 0.0000000e+00 
1.3532871e-04 -2.2122671e-05 0.0000000e+00 
-8.8190370e-07 -5.8099133e-04 0.0000000e+00 
8.8190370e-07 -5.8099133e-04 0.0000000e+00 
REACTION 3 18  float
3.5344098e+02 1.9988316e+04 0.0000000e+00 
-1.7897920e+02 1.9627258e+01 0.0000000e+00 
-2.9631775e+02 1.8165127e+01 0.0000000e+00 
2.9631775e+02 1.8165127e+01 0.0000000e+00 
1.7897920e+02 1.9627245e+01 0.0000000e+00 
-3.5344098e+02 1.9988316e+04 0.0000000e+00 
2.8805563e+00 1.1558208e+01 0.0000000e+00 
5.7613020e+00 -1.8253511e+01 0.0000000e+00 
-2.8497660e+00 -2.1563890e+01 0.0000000e+00 
5.0072088e+00 1.8883383e+00 0.0000000e+00 
2.9398032e+02 1.5915564e+00 0.0000000e+00 
-2.9398032e+02 1.5915564e+00 0.0000000e+00 
-5.0072088e+00 1.8883383e+00 0.0000000e+00 
2.8497660e+00 -2.1563890e+01 0.0000000e+00 
-5.7613020e+00 -1.8253511e+01 0.0000000e+00 
-2.8805563e+00 1.1558208e+01 0.0000000e+00 
1.7442130e+02 -1.3308446e+00 0.0000000e+00 
-1.7442130e+02 -1.3308324e+00 0.0000000e+00 
ROTATION 3 18  float
0.0000000e+00 0.0000000e+00 2.2820184e-04 
0.0000000e+00 0.0000000e+00 -4.5243514e-04 
0.0000000e+00 0.0000000e+00 -7.9275359e-04 
0.0000000e+00 0.0000000e+00 7.9275359e-04 
0.0000000e+00 0.0000000e+00 4.5243514e-04 
0.0000000e+00 0.0000000e+00 -2.2820184e-04 
0.0000000e+00 0.0000000e+00 1.5257552e-04 
0.0000000e+00 0.0000000e+00 -7.4303476e-05 
0.0000000e+00 0.0000000e+00 2.6032832e-04 
0.0000000e+00 0.0000000e+00 1.4688884e-04 
0.0000000e+00 0.0000000e+00 -7.3456281e-04 
0.0000000e+00 0.0000000e+00 7.3456281e-04 
0.0000000e+00 0.0000000e+00 -1.4688884e-04 
0.0000000e+00 0.0000000e+00 -2.6032832e-04 
0.0000000e+00 0.0000000e+00 7.4303476e-05 
0.0000000e+00 0.0000000e+00 -1.5257552e-04 
0.0000000e+00 0.0000000e+00 -6.2112330e-04 
0.0000000e+00 0.0000000e+00 6.2112330e-04 
REACTION_MOMENT 3 18  float
0.0000000e+00 0.0000000e+00 -1.3080692e-01 
0.0000000e+00 0.0000000e+00 9.2450863e-01 
0.0000000e+00 0.0000000e+00 5.8404070e-01 
0.0000000e+00 0.0000000e+00 -5.8404070e-01 
0.0000000e+00 0.0000000e+00 -9.2450458e-01 
0.0000000e+00 0.0000000e+00 1.3080692e-01 
0.0000000e+00 0.0000000e+00 -2.1434417e-01 
0.0000000e+00 0.0000000e+00 -7.1731851e-02 
0.0000000e+00 0.0000000e+00 -4.0552750e-01 
0.0000000e+00 0.0000000e+00 -3.6938390e-01 
0.0000000e+00 0.0000000e+00 1.5436126e-01 
0.0000000e+00 0.0000000e+00 -1.5436126e-01 
0.0000000e+00 0.0000000e+00 3.6938390e-01 
0.0000000e+00 0.0000000e+00 4.0552750e-01 
0.0000000e+00 0.0000000e+00 7.1731858e-02 
0.0000000e+00 0.0000000e+00 2.1434416e-01 
0.0000000e+00 0.0000000e+00 -1.2019034e-01 
0.0000000e+00 0.0000000e+00 1.2019441e-01 
FORCE 3 18  float
-1.9988244e+04 3.5749860e+02 0.0000000e+00 
-9.4023760e+03 -1.4526299e+03 0.0000000e+00 
-5.8159629e+03 -2.3575276e+03 0.0000000e+00 
-5.8159629e+03 2.3575276e+03 0.0000000e+00 
-9.4023760e+03 1.4526299e+03 0.0000000e+00 
-1.9988244e+04 -3.5749860e+02 0.0000000e+00 
-1.9994051e+04 3.5742749e+02 0.0000000e+00 
-1.9990785e+04 3.5721417e+02 0.0000000e+00 
-9.9888691e+03 1.9518892e+03 0.0000000e+00 
-9.9792529e+03 1.9518359e+03 0.0000000e+00 
-1.8015916e+03 -3.3333547e+03 0.0000000e+00 
-1.8015916e+03 3.3333547e+03 0.0000000e+00 
-9.9792529e+03 -1.9518359e+03 0.0000000e+00 
-9.9888691e+03 -1.9518892e+03 0.0000000e+00 
-1.9990785e+04 -3.5721417e+02 0.0000000e+00 
-1.9994051e+04 -3.5742749e+02 0.0000000e+00 
1.6843499e+03 -3.3333247e+03 0.0000000e+00 
1.6843499e+03 3.3333247e+03 0.0000000e+00 
MOMENT 3 18  float
0.0000000e+00 0.0000000e+00 9.3391808e+01 
0.0000000e+00 0.0000000e+00 3.4135162e+01 
0.0000000e+00 0.0000000e+00 1.0029562e+03 
0.0000000e+00 0.0000000e+00 1.0029562e+03 
0.0000000e+00 0.0000000e+00 3.4135162e+01 
0.0000000e+00 0.0000000e+00 9.3391808e+01 
0.0000000e+00 0.0000000e+00 2.3806792e+02 
0.0000000e+00 0.0000000e+00 4.7613596e+02 
0.0000000e+00 0.0000000e+00 -4.7181396e+02 
0.0000000e+00 0.0000000e+00 8.2903271e+02 
0.0000000e+00 0.0000000e+00 -1.4417568e+03 
0.0000000e+00 0.0000000e+00 -1.4417568e+03 
0.0000000e+00 0.0000000e+00 8.2903271e+02 
0.0000000e+00 0.0000000e+00 -4.7181396e+02 
0.0000000e+00 0.0000000e+00 4.7613596e+02 
0.0000000e+00 0.0000000e+00 2.3806792e+02 
0.0000000e+00 0.0000000e+00 -1.0845447e+03 
0.0000000e+00 0.0000000e+00 -1.0845447e+03 
CELL_DATA 18
FIELD FieldData 2
FORCE 3 18  float
-1.9988244e+04 3.5749860e+02 0.0000000e+00 
-1.9999857e+04 3.5735638e+02 0.0000000e+00 
-1.9981713e+04 3.5707199e+02 0.0000000e+00 
-9.9999434e+03 1.9518187e+03 0.0000000e+00 
-9.9777949e+03 1.9519597e+03 0.0000000e+00 
-9.9807109e+03 1.9517123e+03 0.0000000e+00 
-1.6512725e+03 -6.6667080e+03 0.0000000e+00 
-1.9519108e+03 0.0000000e+00 0.0000000e+00 
-1.6512725e+03 6.6667080e+03 0.0000000e+00 
-9.9807109e+03 -1.9517123e+03 0.0000000e+00 
-9.9777949e+03 -1.9519597e+03 0.0000000e+00 
-9.9999434e+03 -1.9518187e+03 0.0000000e+00 
-1.9981713e+04 -3.5707199e+02 0.0000000e+00 
-1.9999857e+04 -3.5735638e+02 0.0000000e+00 
-1.9988244e+04 -3.5749860e+02 0.0000000e+00 
1.7741339e+03 -6.6666484e+03 0.0000000e+00 
1.5945658e+03 0.0000000e+00 0.0000000e+00 
1.7741339e+03 6.6666484e+03 0.0000000e+00 
MOMENT 3 18  float
0.0000000e+00 0.0000000e+00 1.1903144e+02 
0.0000000e+00 0.0000000e+00 3.5709418e+02 
0.0000000e+00 0.0000000e+00 5.9515735e+02 
0.0000000e+00 0.0000000e+00 -1.1222251e+03 
0.0000000e+00 0.0000000e+00 1.7860728e+02 
0.0000000e+00 0.0000000e+00 1.4794403e+03 
0.0000000e+00 0.0000000e+00 -9.1645462e+01 
0.0000000e+00 0.0000000e+00 -2.3137209e+03 
0.0000000e+00 0.0000000e+00 -9.1645462e+01 
0.0000000e+00 0.0000000e+00 1.4794403e+03 
0.0000000e+00 0.0000000e+00 1.7860728e+02 
0.0000000e+00 0.0000000e+00 -1.1222251e+03 
0.0000000e+00 0.0000000e+00 5.9515735e+02 
0.0000000e+00 0.0000000e+00 3.5709418e+02 
0.0000000e+00 0.0000000e+00 1.1903144e+02 
0.0000000e+00 0.0000000e+00 2.6569971e+02 
0.0000000e+00 0.0000000e+00 -1.9566432e+03 
0.0000000e+00 0.0000000e+00 2.6569971e+02 
