# vtk DataFile Version 4.0
vtk output
ASCII
DATASET UNSTRUCTURED_GRID
POINTS 21 float
0.0000000e+00 0.0000000e+00 0.0000000e+00 
1.0000000e-01 0.0000000e+00 0.0000000e+00 
2.0000000e-01 0.0000000e+00 0.0000000e+00 
3.0000001e-01 0.0000000e+00 0.0000000e+00 
4.0000001e-01 0.0000000e+00 0.0000000e+00 
5.0000000e-01 0.0000000e+00 0.0000000e+00 
6.0000002e-01 0.0000000e+00 0.0000000e+00 
6.9999999e-01 0.0000000e+00 0.0000000e+00 
8.0000001e-01 0.0000000e+00 0.0000000e+00 
8.9999998e-01 0.0000000e+00 0.0000000e+00 
1.0000000e+00 0.0000000e+00 0.0000000e+00 
1.1000000e+00 0.0000000e+00 0.0000000e+00 
1.2000000e+00 0.0000000e+00 0.0000000e+00 
1.3000000e+00 0.0000000e+00 0.0000000e+00 
1.4000000e+00 0.0000000e+00 0.0000000e+00 
1.5000000e+00 0.0000000e+00 0.0000000e+00 
1.6000000e+00 0.0000000e+00 0.0000000e+00 
1.7000000e+00 0.0000000e+00 0.0000000e+00 
1.8000000e+00 0.0000000e+00 0.0000000e+00 
1.9000000e+00 0.0000000e+00 0.0000000e+00 
2.0000000e+00 0.0000000e+00 0.0000000e+00 

CELLS 20 60
2 0 1
2 1 2
2 2 3
2 3 4
2 4 5
2 5 6
2 6 7
2 7 8
2 8 9
2 9 10
2 10 11
2 11 12
2 12 13
2 13 14
2 14 15
2 15 16
2 16 17
2 17 18
2 18 19
2 19 20

CELL_TYPES 20
3
3
3
3
3
3
3
3
3
3
3
3
3
3
3
3
3
3
3
3
POINT_DATA 21
FIELD FieldData 6
DISPLACEMENT 3 21  float
0.0000000e+00 0.0000000e+00 0.0000000e+00 
0.0000000e+00 -1.4325396e-05 0.0000000e+00 
0.0000000e+00 -5.1428571e-05 0.0000000e+00 
0.0000000e+00 -1.0321428e-04 0.0000000e+00 
0.0000000e+00 -1.6253968e-04 0.0000000e+00 
0.0000000e+00 -2.2321429e-04 0.0000000e+00 
0.0000000e+00 -2.8000001e-04 0.0000000e+00 
0.0000000e+00 -3.2861112e-04 0.0000000e+00 
0.0000000e+00 -3.6571428e-04 0.0000000e+00 
0.0000000e+00 -3.8892857e-04 0.0000000e+00 
0.0000000e+00 -3.9682540e-04 0.0000000e+00 
0.0000000e+00 -3.8892857e-04 0.0000000e+00 
0.0000000e+00 -3.6571428e-04 0.0000000e+00 
0.0000000e+00 -3.2861112e-04 0.0000000e+00 
0.0000000e+00 -2.8000001e-04 0.0000000e+00 
0.0000000e+00 -2.2321429e-04 0.0000000e+00 
0.0000000e+00 -1.6253968e-04 0.0000000e+00 
0.0000000e+00 -1.0321428e-04 0.0000000e+00 
0.0000000e+00 -5.1428571e-05 0.0000000e+00 
0.0000000e+00 -1.4325396e-05 0.0000000e+00 
0.0000000e+00 0.0000000e+00 0.0000000e+00 
REACTION 3 21  float
-0.0000000e+00 1.0000000e+04 0.0000000e+00 
-0.0000000e+00 3.9546532e-05 0.0000000e+00 
-0.0000000e+00 1.0146031e-04 0.0000000e+00 
-0.0000000e+00 1.5503145e-04 0.0000000e+00 
-0.0000000e+00 1.8002326e-04 0.0000000e+00 
-0.0000000e+00 1.7265060e-04 0.0000000e+00 
-0.0000000e+00 1.3969131e-04 0.0000000e+00 
-0.0000000e+00 9.3491704e-05 0.0000000e+00 
-0.0000000e+00 4.7886475e-05 0.0000000e+00 
-0.0000000e+00 1.5031572e-05 0.0000000e+00 
-0.0000000e+00 3.1166105e-06 0.0000000e+00 
-0.0000000e+00 1.5031238e-05 0.0000000e+00 
-0.0000000e+00 4.7888745e-05 0.0000000e+00 
-0.0000000e+00 9.3491792e-05 0.0000000e+00 
-0.0000000e+00 1.3969114e-04 0.0000000e+00 
-0.0000000e+00 1.7265083e-04 0.0000000e+00 
-0.0000000e+00 1.8002233e-04 0.0000000e+00 
-0.0000000e+00 1.5503127e-04 0.0000000e+00 
-0.0000000e+00 1.0146054e-04 0.0000000e+00 
-0.0000000e+00 3.9546561e-05 0.0000000e+00 
-0.0000000e+00 1.0000000e+04 0.0000000e+00 
ROTATION 3 21  float
0.0000000e+00 0.0000000e+00 0.0000000e+00 
0.0000000e+00 0.0000000e+00 -2.7142858e-04 
0.0000000e+00 0.0000000e+00 -4.5714286e-04 
0.0000000e+00 0.0000000e+00 -5.6666665e-04 
0.0000000e+00 0.0000000e+00 -6.0952379e-04 
0.0000000e+00 0.0000000e+00 -5.9523812e-04 
0.0000000e+00 0.0000000e+00 -5.3333334e-04 
0.0000000e+00 0.0000000e+00 -4.3333333e-04 
0.0000000e+00 0.0000000e+00 -3.0476190e-04 
0.0000000e+00 0.0000000e+00 -1.5714286e-04 
0.0000000e+00 0.0000000e+00 1.1974147e-16 
0.0000000e+00 0.0000000e+00 1.5714286e-04 
0.0000000e+00 0.0000000e+00 3.0476190e-04 
0.0000000e+00 0.0000000e+00 4.3333333e-04 
0.0000000e+00 0.0000000e+00 5.3333334e-04 
0.0000000e+00 0.0000000e+00 5.9523812e-04 
0.0000000e+00 0.0000000e+00 6.0952379e-04 
0.0000000e+00 0.0000000e+00 5.6666665e-04 
0.0000000e+00 0.0000000e+00 4.5714286e-04 
0.0000000e+00 0.0000000e+00 2.7142858e-04 
0.0000000e+00 0.0000000e+00 0.0000000e+00 
REACTION_MOMENT 3 21  float
0.0000000e+00 0.0000000e+00 3.3250000e+03 
0.0000000e+00 0.0000000e+00 3.6379788e-12 
0.0000000e+00 0.0000000e+00 7.2759576e-12 
0.0000000e+00 0.0000000e+00 -1.7589628e-09 
0.0000000e+00 0.0000000e+00 -0.0000000e+00 
0.0000000e+00 0.0000000e+00 -2.3646862e-11 
0.0000000e+00 0.0000000e+00 1.2551027e-10 
0.0000000e+00 0.0000000e+00 5.2023097e-10 
0.0000000e+00 0.0000000e+00 -2.0918378e-10 
0.0000000e+00 0.0000000e+00 1.1709744e-10 
0.0000000e+00 0.0000000e+00 3.9108272e-10 
0.0000000e+00 0.0000000e+00 -4.9294613e-10 
0.0000000e+00 0.0000000e+00 2.6739144e-10 
0.0000000e+00 0.0000000e+00 1.4551915e-11 
0.0000000e+00 0.0000000e+00 -4.9112714e-11 
0.0000000e+00 0.0000000e+00 3.6379788e-12 
0.0000000e+00 0.0000000e+00 -3.0922820e-11 
0.0000000e+00 0.0000000e+00 -2.5465852e-11 
0.0000000e+00 0.0000000e+00 2.7284841e-12 
0.0000000e+00 0.0000000e+00 7.2759576e-12 
0.0000000e+00 0.0000000e+00 -3.3250000e+03 
FORCE 3 21  float
0.0000000e+00 -9.5000000e+03 0.0000000e+00 
0.0000000e+00 -9.0000000e+03 0.0000000e+00 
0.0000000e+00 -8.0000000e+03 0.0000000e+00 
0.0000000e+00 -7.0000000e+03 0.0000000e+00 
0.0000000e+00 -6.0000000e+03 0.0000000e+00 
0.0000000e+00 -5.0000000e+03 0.0000000e+00 
0.0000000e+00 -4.0000000e+03 0.0000000e+00 
0.0000000e+00 -3.0000000e+03 0.0000000e+00 
0.0000000e+00 -2.0000000e+03 0.0000000e+00 
0.0000000e+00 -1.0000000e+03 0.0000000e+00 
0.0000000e+00 6.9150730e-10 0.0000000e+00 
0.0000000e+00 1.0000000e+03 0.0000000e+00 
0.0000000e+00 2.0000000e+03 0.0000000e+00 
0.0000000e+00 3.0000000e+03 0.0000000e+00 
0.0000000e+00 4.0000000e+03 0.0000000e+00 
0.0000000e+00 5.0000000e+03 0.0000000e+00 
0.0000000e+00 6.0000000e+03 0.0000000e+00 
0.0000000e+00 7.0000000e+03 0.0000000e+00 
0.0000000e+00 8.0000000e+03 0.0000000e+00 
0.0000000e+00 9.0000000e+03 0.0000000e+00 
0.0000000e+00 9.5000000e+03 0.0000000e+00 
MOMENT 3 21  float
0.0000000e+00 0.0000000e+00 2.9522036e+03 
0.0000000e+00 0.0000000e+00 2.3946208e+03 
0.0000000e+00 0.0000000e+00 1.5446208e+03 
0.0000000e+00 0.0000000e+00 7.9462085e+02 
0.0000000e+00 0.0000000e+00 1.4462085e+02 
0.0000000e+00 0.0000000e+00 -4.0537915e+02 
0.0000000e+00 0.0000000e+00 -8.5537915e+02 
0.0000000e+00 0.0000000e+00 -1.2053792e+03 
0.0000000e+00 0.0000000e+00 -1.4553792e+03 
0.0000000e+00 0.0000000e+00 -1.6053792e+03 
0.0000000e+00 0.0000000e+00 -1.6553792e+03 
0.0000000e+00 0.0000000e+00 -1.6053792e+03 
0.0000000e+00 0.0000000e+00 -1.4553792e+03 
0.0000000e+00 0.0000000e+00 -1.2053792e+03 
0.0000000e+00 0.0000000e+00 -8.5537915e+02 
0.0000000e+00 0.0000000e+00 -4.0537915e+02 
0.0000000e+00 0.0000000e+00 1.4462085e+02 
0.0000000e+00 0.0000000e+00 7.9462085e+02 
0.0000000e+00 0.0000000e+00 1.5446208e+03 
0.0000000e+00 0.0000000e+00 2.3946208e+03 
0.0000000e+00 0.0000000e+00 2.9522036e+03 
CELL_DATA 20
FIELD FieldData 2
FORCE 3 20  float
0.0000000e+00 -9.5000000e+03 0.0000000e+00 
0.0000000e+00 -8.5000000e+03 0.0000000e+00 
0.0000000e+00 -7.5000000e+03 0.0000000e+00 
0.0000000e+00 -6.5000000e+03 0.0000000e+00 
0.0000000e+00 -5.5000000e+03 0.0000000e+00 
0.0000000e+00 -4.5000000e+03 0.0000000e+00 
0.0000000e+00 -3.5000000e+03 0.0000000e+00 
0.0000000e+00 -2.5000000e+03 0.0000000e+00 
0.0000000e+00 -1.5000000e+03 0.0000000e+00 
0.0000000e+00 -5.0000000e+02 0.0000000e+00 
0.0000000e+00 5.0000000e+02 0.0000000e+00 
0.0000000e+00 1.5000000e+03 0.0000000e+00 
0.0000000e+00 2.5000000e+03 0.0000000e+00 
0.0000000e+00 3.5000000e+03 0.0000000e+00 
0.0000000e+00 4.5000000e+03 0.0000000e+00 
0.0000000e+00 5.5000000e+03 0.0000000e+00 
0.0000000e+00 6.5000000e+03 0.0000000e+00 
0.0000000e+00 7.5000000e+03 0.0000000e+00 
0.0000000e+00 8.5000000e+03 0.0000000e+00 
0.0000000e+00 9.5000000e+03 0.0000000e+00 
MOMENT 3 20  float
0.0000000e+00 0.0000000e+00 2.8500000e+03 
0.0000000e+00 0.0000000e+00 1.9500000e+03 
0.0000000e+00 0.0000000e+00 1.1500000e+03 
0.0000000e+00 0.0000000e+00 4.5000000e+02 
0.0000000e+00 0.0000000e+00 -1.5000000e+02 
0.0000000e+00 0.0000000e+00 -6.5000000e+02 
0.0000000e+00 0.0000000e+00 -1.0500000e+03 
0.0000000e+00 0.0000000e+00 -1.3500000e+03 
0.0000000e+00 0.0000000e+00 -1.5500000e+03 
0.0000000e+00 0.0000000e+00 -1.6500000e+03 
0.0000000e+00 0.0000000e+00 -1.6500000e+03 
0.0000000e+00 0.0000000e+00 -1.5500000e+03 
0.0000000e+00 0.0000000e+00 -1.3500000e+03 
0.0000000e+00 0.0000000e+00 -1.0500000e+03 
0.0000000e+00 0.0000000e+00 -6.5000000e+02 
0.0000000e+00 0.0000000e+00 -1.5000000e+02 
0.0000000e+00 0.0000000e+00 4.5000000e+02 
0.0000000e+00 0.0000000e+00 1.1500000e+03 
0.0000000e+00 0.0000000e+00 1.9500000e+03 
0.0000000e+00 0.0000000e+00 2.8500000e+03 
