# vtk DataFile Version 4.0
vtk output
ASCII
DATASET UNSTRUCTURED_GRID
POINTS 30 float
0.0000000e+00 0.0000000e+00 0.0000000e+00 
0.0000000e+00 0.0000000e+00 8.0000001e-01 
0.0000000e+00 0.0000000e+00 1.6000000e+00 
0.0000000e+00 0.0000000e+00 2.4000001e+00 
0.0000000e+00 0.0000000e+00 3.2000000e+00 
0.0000000e+00 0.0000000e+00 4.0000000e+00 
0.0000000e+00 0.0000000e+00 4.8000002e+00 
0.0000000e+00 0.0000000e+00 5.5999999e+00 
0.0000000e+00 0.0000000e+00 6.4000001e+00 
0.0000000e+00 0.0000000e+00 7.1999998e+00 
0.0000000e+00 0.0000000e+00 8.0000000e+00 
1.0000000e+01 0.0000000e+00 0.0000000e+00 
1.0000000e+01 0.0000000e+00 8.0000001e-01 
1.0000000e+01 0.0000000e+00 1.6000000e+00 
1.0000000e+01 0.0000000e+00 2.4000001e+00 
1.0000000e+01 0.0000000e+00 3.2000000e+00 
1.0000000e+01 0.0000000e+00 4.0000000e+00 
1.0000000e+01 0.0000000e+00 4.8000002e+00 
1.0000000e+01 0.0000000e+00 5.5999999e+00 
1.0000000e+01 0.0000000e+00 6.4000001e+00 
1.0000000e+01 0.0000000e+00 7.1999998e+00 
1.0000000e+01 0.0000000e+00 8.0000000e+00 
2.0000000e+00 0.0000000e+00 4.0000000e+00 
4.0000000e+00 0.0000000e+00 4.0000000e+00 
6.0000000e+00 0.0000000e+00 4.0000000e+00 
8.0000000e+00 0.0000000e+00 4.0000000e+00 
2.0000000e+00 0.0000000e+00 8.0000000e+00 
4.0000000e+00 0.0000000e+00 8.0000000e+00 
6.0000000e+00 0.0000000e+00 8.0000000e+00 
8.0000000e+00 0.0000000e+00 8.0000000e+00 

CELLS 30 90
2 0 1
2 1 2
2 2 3
2 3 4
2 4 5
2 5 6
2 6 7
2 7 8
2 8 9
2 9 10
2 11 12
2 12 13
2 13 14
2 14 15
2 15 16
2 16 17
2 17 18
2 18 19
2 19 20
2 20 21
2 5 22
2 22 23
2 23 24
2 24 25
2 25 16
2 10 26
2 26 27
2 27 28
2 28 29
2 29 21

CELL_TYPES 30
3
3
3
3
3
3
3
3
3
3
3
3
3
3
3
3
3
3
3
3
3
3
3
3
3
3
3
3
3
3
POINT_DATA 30
FIELD FieldData 7
DISPLACEMENT 3 30  float
0.0000000e+00 0.0000000e+00 0.0000000e+00 
-8.8956375e-03 0.0000000e+00 -1.7699265e-05 
-1.7226763e-02 0.0000000e+00 -3.8138602e-05 
-2.4530023e-02 0.0000000e+00 -5.5713273e-05 
-3.0465184e-02 0.0000000e+00 -7.3287942e-05 
-3.4739308e-02 0.0000000e+00 -8.7938890e-05 
-3.7965860e-02 0.0000000e+00 -9.4962787e-05 
-4.0845711e-02 0.0000000e+00 -9.8692319e-05 
-4.3372005e-02 0.0000000e+00 -1.0242185e-04 
-4.5550190e-02 0.0000000e+00 -1.0459984e-04 
-4.7342647e-02 0.0000000e+00 -1.0677782e-04 
0.0000000e+00 0.0000000e+00 0.0000000e+00 
-8.4048733e-03 0.0000000e+00 1.9094205e-05 
-1.6449748e-02 0.0000000e+00 3.4724129e-05 
-2.3798320e-02 0.0000000e+00 5.2294887e-05 
-3.0027082e-02 0.0000000e+00 6.9865644e-05 
-3.4701563e-02 0.0000000e+00 8.9143527e-05 
-3.8343325e-02 0.0000000e+00 1.0194046e-04 
-4.1586198e-02 0.0000000e+00 1.1473739e-04 
-4.4234168e-02 0.0000000e+00 1.2606013e-04 
-4.6177138e-02 0.0000000e+00 1.3738286e-04 
-4.7333896e-02 0.0000000e+00 1.4632742e-04 
-3.4736149e-02 0.0000000e+00 3.9046912e-03 
-3.4727503e-02 0.0000000e+00 1.6499931e-03 
-3.4718856e-02 0.0000000e+00 -2.6179205e-03 
-3.4710210e-02 0.0000000e+00 -4.5784153e-03 
-4.7340028e-02 0.0000000e+00 2.6268032e-03 
-4.7337126e-02 0.0000000e+00 3.2526548e-03 
-4.7335353e-02 0.0000000e+00 1.9863776e-03 
-4.7333583e-02 0.0000000e+00 2.4237027e-04 
ROTATION 3 30  float
0.0000000e+00 -1.1241063e-02 0.0000000e+00 
0.0000000e+00 -1.0876515e-02 0.0000000e+00 
0.0000000e+00 -9.8532429e-03 0.0000000e+00 
0.0000000e+00 -8.3394581e-03 0.0000000e+00 
0.0000000e+00 -6.4330008e-03 0.0000000e+00 
0.0000000e+00 -4.2133615e-03 0.0000000e+00 
0.0000000e+00 -3.8275453e-03 0.0000000e+00 
0.0000000e+00 -3.3754618e-03 0.0000000e+00 
0.0000000e+00 -2.9436524e-03 0.0000000e+00 
0.0000000e+00 -2.4917342e-03 0.0000000e+00 
0.0000000e+00 -1.9793233e-03 0.0000000e+00 
0.0000000e+00 -1.0583620e-02 0.0000000e+00 
0.0000000e+00 -1.0351036e-02 0.0000000e+00 
0.0000000e+00 -9.6987877e-03 0.0000000e+00 
0.0000000e+00 -8.5792402e-03 0.0000000e+00 
0.0000000e+00 -6.8992549e-03 0.0000000e+00 
0.0000000e+00 -4.7108983e-03 0.0000000e+00 
0.0000000e+00 -4.3482040e-03 0.0000000e+00 
0.0000000e+00 -3.7136616e-03 0.0000000e+00 
0.0000000e+00 -2.8878031e-03 0.0000000e+00 
0.0000000e+00 -1.9511613e-03 0.0000000e+00 
0.0000000e+00 -9.3153049e-04 0.0000000e+00 
0.0000000e+00 -9.6060547e-05 0.0000000e+00 
0.0000000e+00 1.9907057e-03 0.0000000e+00 
0.0000000e+00 1.9171549e-03 0.0000000e+00 
0.0000000e+00 -3.1671312e-04 0.0000000e+00 
0.0000000e+00 -8.2004647e-04 0.0000000e+00 
0.0000000e+00 2.2036016e-04 0.0000000e+00 
0.0000000e+00 8.9924404e-04 0.0000000e+00 
0.0000000e+00 6.9809047e-04 0.0000000e+00 
REACTION 3 30  float
3.5885227e+04 -0.0000000e+00 4.6460570e+04 
5.0931703e-10 -0.0000000e+00 1.4551915e-11 
-1.5279511e-09 -0.0000000e+00 -2.1827873e-11 
6.9849193e-10 -0.0000000e+00 1.4551915e-11 
-3.1832315e-09 -0.0000000e+00 7.2759576e-12 
9.2495611e-09 -0.0000000e+00 1.4188117e-10 
-1.8901119e-08 -0.0000000e+00 8.7675289e-10 
1.0477379e-09 -0.0000000e+00 -2.9103830e-10 
-6.7630026e-09 -0.0000000e+00 1.8189894e-10 
4.6566129e-10 -0.0000000e+00 -0.0000000e+00 
-3.6334313e-09 -0.0000000e+00 -4.4565240e-11 
2.2894932e+04 -0.0000000e+00 -5.0122289e+04 
-1.9535946e-09 -0.0000000e+00 -5.0931703e-11 
-2.6411726e-09 -0.0000000e+00 -1.4551915e-10 
9.3132257e-10 -0.0000000e+00 2.0372681e-10 
8.1199687e-09 -0.0000000e+00 7.2759576e-12 
7.9162419e-09 -0.0000000e+00 7.1304385e-09 
-1.3969839e-09 -0.0000000e+00 -0.0000000e+00 
2.2882887e-09 -0.0000000e+00 -5.8207661e-11 
1.5133992e-09 -0.0000000e+00 4.8312359e-09 
6.8030204e-10 -0.0000000e+00 7.2759576e-12 
-1.1501015e-08 -0.0000000e+00 -3.9581209e-09 
-2.7321221e-09 -0.0000000e+00 -1.0113581e-09 
1.4901161e-08 -0.0000000e+00 -5.6752469e-10 
-0.0000000e+00 -0.0000000e+00 -3.1213858e-09 
-7.4505806e-09 -0.0000000e+00 -2.6921043e-10 
-2.5665940e-09 -0.0000000e+00 -1.1823431e-11 
6.2464096e-09 -0.0000000e+00 3.0922820e-11 
7.4505806e-09 -0.0000000e+00 2.5902409e-09 
1.8189894e-09 -0.0000000e+00 -2.5465852e-11 
REACTION_MOMENT 3 30  float
-0.0000000e+00 -1.0477379e-09 -0.0000000e+00 
-0.0000000e+00 8.1490725e-10 -0.0000000e+00 
-0.0000000e+00 -1.7462298e-09 -0.0000000e+00 
-0.0000000e+00 3.6670826e-09 -0.0000000e+00 
-0.0000000e+00 -9.5460564e-09 -0.0000000e+00 
-0.0000000e+00 -3.1577656e-09 -0.0000000e+00 
-0.0000000e+00 2.0954758e-09 -0.0000000e+00 
-0.0000000e+00 -3.6379788e-09 -0.0000000e+00 
-0.0000000e+00 -3.5797711e-09 -0.0000000e+00 
-0.0000000e+00 4.5401976e-09 -0.0000000e+00 
-0.0000000e+00 2.3101165e-09 -0.0000000e+00 
-0.0000000e+00 1.1641532e-10 -0.0000000e+00 
-0.0000000e+00 -4.6566129e-10 -0.0000000e+00 
-0.0000000e+00 -5.8207661e-10 -0.0000000e+00 
-0.0000000e+00 1.7462298e-09 -0.0000000e+00 
-0.0000000e+00 -5.8207661e-10 -0.0000000e+00 
-0.0000000e+00 -5.2386895e-10 -0.0000000e+00 
-0.0000000e+00 1.1641532e-10 -0.0000000e+00 
-0.0000000e+00 -4.5401976e-09 -0.0000000e+00 
-0.0000000e+00 1.0768417e-09 -0.0000000e+00 
-0.0000000e+00 -1.4697434e-09 -0.0000000e+00 
-0.0000000e+00 2.4156179e-09 -0.0000000e+00 
-0.0000000e+00 5.8207661e-11 -0.0000000e+00 
-0.0000000e+00 -2.6921043e-10 -0.0000000e+00 
-0.0000000e+00 -1.1641532e-10 -0.0000000e+00 
-0.0000000e+00 -0.0000000e+00 -0.0000000e+00 
-0.0000000e+00 -7.2759576e-12 -0.0000000e+00 
-0.0000000e+00 2.5465852e-11 -0.0000000e+00 
-0.0000000e+00 -2.9103830e-11 -0.0000000e+00 
-0.0000000e+00 -2.5465852e-11 -0.0000000e+00 
VOLUME_ACCELERATION 3 30  float
0.0000000e+00 0.0000000e+00 0.0000000e+00 
0.0000000e+00 0.0000000e+00 0.0000000e+00 
0.0000000e+00 0.0000000e+00 0.0000000e+00 
0.0000000e+00 0.0000000e+00 0.0000000e+00 
0.0000000e+00 0.0000000e+00 0.0000000e+00 
0.0000000e+00 0.0000000e+00 0.0000000e+00 
0.0000000e+00 0.0000000e+00 0.0000000e+00 
0.0000000e+00 0.0000000e+00 0.0000000e+00 
0.0000000e+00 0.0000000e+00 0.0000000e+00 
0.0000000e+00 0.0000000e+00 0.0000000e+00 
0.0000000e+00 0.0000000e+00 0.0000000e+00 
0.0000000e+00 0.0000000e+00 0.0000000e+00 
0.0000000e+00 0.0000000e+00 0.0000000e+00 
0.0000000e+00 0.0000000e+00 0.0000000e+00 
0.0000000e+00 0.0000000e+00 0.0000000e+00 
0.0000000e+00 0.0000000e+00 0.0000000e+00 
0.0000000e+00 0.0000000e+00 0.0000000e+00 
0.0000000e+00 0.0000000e+00 0.0000000e+00 
0.0000000e+00 0.0000000e+00 0.0000000e+00 
0.0000000e+00 0.0000000e+00 0.0000000e+00 
0.0000000e+00 0.0000000e+00 0.0000000e+00 
0.0000000e+00 0.0000000e+00 0.0000000e+00 
0.0000000e+00 0.0000000e+00 0.0000000e+00 
0.0000000e+00 0.0000000e+00 0.0000000e+00 
0.0000000e+00 0.0000000e+00 0.0000000e+00 
0.0000000e+00 0.0000000e+00 0.0000000e+00 
0.0000000e+00 0.0000000e+00 0.0000000e+00 
0.0000000e+00 0.0000000e+00 0.0000000e+00 
0.0000000e+00 0.0000000e+00 0.0000000e+00 
0.0000000e+00 0.0000000e+00 0.0000000e+00 
POINT_LOAD 3 30  float
0.0000000e+00 0.0000000e+00 0.0000000e+00 
-6.9273501e+03 0.0000000e+00 7.1926895e+03 
-9.6309590e+03 0.0000000e+00 -7.5197544e+03 
0.0000000e+00 0.0000000e+00 0.0000000e+00 
-7.8250913e+03 0.0000000e+00 -7.6747646e+03 
-7.2990439e+03 0.0000000e+00 -5.0525913e+03 
-8.5189414e+03 0.0000000e+00 -8.6476992e+03 
0.0000000e+00 0.0000000e+00 0.0000000e+00 
3.9752480e+03 0.0000000e+00 -4.0728176e+03 
0.0000000e+00 0.0000000e+00 0.0000000e+00 
-5.7274985e+03 0.0000000e+00 -2.6086919e+03 
0.0000000e+00 0.0000000e+00 0.0000000e+00 
-4.4791494e+03 0.0000000e+00 9.0937373e+03 
9.1682725e+03 0.0000000e+00 -5.0946899e+03 
0.0000000e+00 0.0000000e+00 0.0000000e+00 
-5.1253877e+03 0.0000000e+00 -4.4811987e+03 
0.0000000e+00 0.0000000e+00 0.0000000e+00 
0.0000000e+00 0.0000000e+00 0.0000000e+00 
-7.9273999e+03 0.0000000e+00 3.8697715e+03 
0.0000000e+00 0.0000000e+00 0.0000000e+00 
-2.7360369e+03 0.0000000e+00 6.2426909e+03 
-3.0452493e+03 0.0000000e+00 7.9114131e+03 
-5.7603613e+03 0.0000000e+00 2.0440730e+03 
0.0000000e+00 0.0000000e+00 0.0000000e+00 
0.0000000e+00 0.0000000e+00 0.0000000e+00 
0.0000000e+00 0.0000000e+00 0.0000000e+00 
-2.9844250e+02 0.0000000e+00 -4.3448286e+03 
1.1891028e+03 0.0000000e+00 8.1666060e+03 
0.0000000e+00 0.0000000e+00 0.0000000e+00 
2.1881289e+03 0.0000000e+00 8.6377725e+03 
POINT_MOMENT 3 30  float
0.0000000e+00 0.0000000e+00 0.0000000e+00 
0.0000000e+00 0.0000000e+00 0.0000000e+00 
0.0000000e+00 0.0000000e+00 0.0000000e+00 
0.0000000e+00 0.0000000e+00 0.0000000e+00 
0.0000000e+00 0.0000000e+00 0.0000000e+00 
0.0000000e+00 0.0000000e+00 0.0000000e+00 
0.0000000e+00 0.0000000e+00 0.0000000e+00 
0.0000000e+00 0.0000000e+00 0.0000000e+00 
0.0000000e+00 0.0000000e+00 0.0000000e+00 
0.0000000e+00 0.0000000e+00 0.0000000e+00 
0.0000000e+00 0.0000000e+00 0.0000000e+00 
0.0000000e+00 0.0000000e+00 0.0000000e+00 
0.0000000e+00 0.0000000e+00 0.0000000e+00 
0.0000000e+00 0.0000000e+00 0.0000000e+00 
0.0000000e+00 0.0000000e+00 0.0000000e+00 
0.0000000e+00 0.0000000e+00 0.0000000e+00 
0.0000000e+00 0.0000000e+00 0.0000000e+00 
0.0000000e+00 0.0000000e+00 0.0000000e+00 
0.0000000e+00 0.0000000e+00 0.0000000e+00 
0.0000000e+00 0.0000000e+00 0.0000000e+00 
0.0000000e+00 0.0000000e+00 0.0000000e+00 
0.0000000e+00 0.0000000e+00 0.0000000e+00 
0.0000000e+00 0.0000000e+00 0.0000000e+00 
0.0000000e+00 0.0000000e+00 0.0000000e+00 
0.0000000e+00 0.0000000e+00 0.0000000e+00 
0.0000000e+00 0.0000000e+00 0.0000000e+00 
0.0000000e+00 0.0000000e+00 0.0000000e+00 
0.0000000e+00 0.0000000e+00 0.0000000e+00 
0.0000000e+00 0.0000000e+00 0.0000000e+00 
0.0000000e+00 0.0000000e+00 0.0000000e+00 
CELL_DATA 30
FIELD FieldData 9
YOUNG_MODULUS 1 30  float
2.1000000e+11
2.1000000e+11
2.1000000e+11
2.1000000e+11
2.1000000e+11
2.1000000e+11
2.1000000e+11
2.1000000e+11
2.1000000e+11
2.1000000e+11
2.1000000e+11
2.1000000e+11
2.1000000e+11
2.1000000e+11
2.1000000e+11
2.1000000e+11
2.1000000e+11
2.1000000e+11
2.1000000e+11
2.1000000e+11
2.1000000e+11
2.1000000e+11
2.1000000e+11
2.1000000e+11
2.1000000e+11
2.1000000e+11
2.1000000e+11
2.1000000e+11
2.1000000e+11
2.1000000e+11
DENSITY 1 30  float
7.8500000e+03
7.8500000e+03
7.8500000e+03
7.8500000e+03
7.8500000e+03
7.8500000e+03
7.8500000e+03
7.8500000e+03
7.8500000e+03
7.8500000e+03
7.8500000e+03
7.8500000e+03
7.8500000e+03
7.8500000e+03
7.8500000e+03
7.8500000e+03
7.8500000e+03
7.8500000e+03
7.8500000e+03
7.8500000e+03
7.8500000e+03
7.8500000e+03
7.8500000e+03
7.8500000e+03
7.8500000e+03
7.8500000e+03
7.8500000e+03
7.8500000e+03
7.8500000e+03
7.8500000e+03
CROSS_AREA 1 30  float
9.9999998e-03
9.9999998e-03
9.9999998e-03
9.9999998e-03
9.9999998e-03
9.9999998e-03
9.9999998e-03
9.9999998e-03
9.9999998e-03
9.9999998e-03
9.9999998e-03
9.9999998e-03
9.9999998e-03
9.9999998e-03
9.9999998e-03
9.9999998e-03
9.9999998e-03
9.9999998e-03
9.9999998e-03
9.9999998e-03
9.9999998e-03
9.9999998e-03
9.9999998e-03
9.9999998e-03
9.9999998e-03
9.9999998e-03
9.9999998e-03
9.9999998e-03
9.9999998e-03
9.9999998e-03
I22 1 30  float
1.5000001e-04
1.5000001e-04
1.5000001e-04
1.5000001e-04
1.5000001e-04
1.5000001e-04
1.5000001e-04
1.5000001e-04
1.5000001e-04
1.5000001e-04
1.5000001e-04
1.5000001e-04
1.5000001e-04
1.5000001e-04
1.5000001e-04
1.5000001e-04
1.5000001e-04
1.5000001e-04
1.5000001e-04
1.5000001e-04
1.5000001e-04
1.5000001e-04
1.5000001e-04
1.5000001e-04
1.5000001e-04
1.5000001e-04
1.5000001e-04
1.5000001e-04
1.5000001e-04
1.5000001e-04
I33 1 30  float
1.5000001e-04
1.5000001e-04
1.5000001e-04
1.5000001e-04
1.5000001e-04
1.5000001e-04
1.5000001e-04
1.5000001e-04
1.5000001e-04
1.5000001e-04
1.5000001e-04
1.5000001e-04
1.5000001e-04
1.5000001e-04
1.5000001e-04
1.5000001e-04
1.5000001e-04
1.5000001e-04
1.5000001e-04
1.5000001e-04
1.5000001e-04
1.5000001e-04
1.5000001e-04
1.5000001e-04
1.5000001e-04
1.5000001e-04
1.5000001e-04
1.5000001e-04
1.5000001e-04
1.5000001e-04
TORSIONAL_INERTIA 1 30  float
3.0000001e-04
3.0000001e-04
3.0000001e-04
3.0000001e-04
3.0000001e-04
3.0000001e-04
3.0000001e-04
3.0000001e-04
3.0000001e-04
3.0000001e-04
3.0000001e-04
3.0000001e-04
3.0000001e-04
3.0000001e-04
3.0000001e-04
3.0000001e-04
3.0000001e-04
3.0000001e-04
3.0000001e-04
3.0000001e-04
3.0000001e-04
3.0000001e-04
3.0000001e-04
3.0000001e-04
3.0000001e-04
3.0000001e-04
3.0000001e-04
3.0000001e-04
3.0000001e-04
3.0000001e-04
POISSON_RATIO 1 30  float
3.0000001e-01
3.0000001e-01
3.0000001e-01
3.0000001e-01
3.0000001e-01
3.0000001e-01
3.0000001e-01
3.0000001e-01
3.0000001e-01
3.0000001e-01
3.0000001e-01
3.0000001e-01
3.0000001e-01
3.0000001e-01
3.0000001e-01
3.0000001e-01
3.0000001e-01
3.0000001e-01
3.0000001e-01
3.0000001e-01
3.0000001e-01
3.0000001e-01
3.0000001e-01
3.0000001e-01
3.0000001e-01
3.0000001e-01
3.0000001e-01
3.0000001e-01
3.0000001e-01
3.0000001e-01
MOMENT 3 30  float
0.0000000e+00 1.4354091e+04 0.0000000e+00 
0.0000000e+00 4.0291332e+04 0.0000000e+00 
0.0000000e+00 5.9605250e+04 0.0000000e+00 
0.0000000e+00 7.5066781e+04 0.0000000e+00 
0.0000000e+00 8.7398281e+04 0.0000000e+00 
0.0000000e+00 1.5191520e+04 0.0000000e+00 
0.0000000e+00 1.7800793e+04 0.0000000e+00 
0.0000000e+00 1.7002488e+04 0.0000000e+00 
0.0000000e+00 1.7794285e+04 0.0000000e+00 
0.0000000e+00 2.0176180e+04 0.0000000e+00 
0.0000000e+00 9.1579727e+03 0.0000000e+00 
0.0000000e+00 2.5682258e+04 0.0000000e+00 
0.0000000e+00 4.4082195e+04 0.0000000e+00 
0.0000000e+00 6.6149438e+04 0.0000000e+00 
0.0000000e+00 8.6166531e+04 0.0000000e+00 
0.0000000e+00 1.4281090e+04 0.0000000e+00 
0.0000000e+00 2.4985111e+04 0.0000000e+00 
0.0000000e+00 3.2518174e+04 0.0000000e+00 
0.0000000e+00 3.6880273e+04 0.0000000e+00 
0.0000000e+00 4.0147961e+04 0.0000000e+00 
0.0000000e+00 6.4847492e+04 0.0000000e+00 
0.0000000e+00 3.2866570e+04 0.0000000e+00 
0.0000000e+00 -1.1584260e+03 0.0000000e+00 
0.0000000e+00 -3.5183422e+04 0.0000000e+00 
0.0000000e+00 -6.9208414e+04 0.0000000e+00 
0.0000000e+00 1.8258609e+04 0.0000000e+00 
0.0000000e+00 1.6386404e+04 0.0000000e+00 
0.0000000e+00 1.0692421e+04 0.0000000e+00 
0.0000000e+00 -3.1681685e+03 0.0000000e+00 
0.0000000e+00 -2.5666529e+04 0.0000000e+00 
FORCE 3 30  float
-4.6460570e+04 0.0000000e+00 3.5885227e+04 
-5.3653262e+04 0.0000000e+00 2.8957877e+04 
-4.6133508e+04 0.0000000e+00 1.9326918e+04 
-4.6133508e+04 0.0000000e+00 1.9326918e+04 
-3.8458742e+04 0.0000000e+00 1.1501826e+04 
-1.8437727e+04 0.0000000e+00 7.5210620e+03 
-9.7900264e+03 0.0000000e+00 -9.9787946e+02 
-9.7900264e+03 0.0000000e+00 -9.9787946e+02 
-5.7172090e+03 0.0000000e+00 2.9773687e+03 
-5.7172090e+03 0.0000000e+00 2.9773687e+03 
5.0122289e+04 0.0000000e+00 2.2894932e+04 
4.1028551e+04 0.0000000e+00 1.8415783e+04 
4.6123242e+04 0.0000000e+00 2.7584055e+04 
4.6123242e+04 0.0000000e+00 2.7584055e+04 
5.0604441e+04 0.0000000e+00 2.2458668e+04 
3.3591941e+04 0.0000000e+00 1.3380027e+04 
3.3591941e+04 0.0000000e+00 1.3380027e+04 
2.9722172e+04 0.0000000e+00 5.4526270e+03 
2.9722172e+04 0.0000000e+00 5.4526270e+03 
2.3479480e+04 0.0000000e+00 2.7165901e+03 
3.3182795e+03 0.0000000e+00 -1.4968425e+04 
9.0786406e+03 0.0000000e+00 -1.7012498e+04 
9.0786406e+03 0.0000000e+00 -1.7012498e+04 
9.0786406e+03 0.0000000e+00 -1.7012498e+04 
9.0786406e+03 0.0000000e+00 -1.7012498e+04 
2.7501299e+03 0.0000000e+00 -3.1085171e+03 
3.0485723e+03 0.0000000e+00 1.2363114e+03 
1.8594695e+03 0.0000000e+00 -6.9302944e+03 
1.8594695e+03 0.0000000e+00 -6.9302944e+03 
-3.2865924e+02 0.0000000e+00 -1.5568067e+04 
