# vtk DataFile Version 4.0
vtk output
ASCII
DATASET UNSTRUCTURED_GRID
POINTS 212 float
0.0000000e+00 0.0000000e+00 0.0000000e+00 
0.0000000e+00 0.0000000e+00 2.5000000e-01 
0.0000000e+00 0.0000000e+00 5.0000000e-01 
0.0000000e+00 0.0000000e+00 7.5000000e-01 
0.0000000e+00 0.0000000e+00 1.0000000e+00 
0.0000000e+00 0.0000000e+00 1.2500000e+00 
0.0000000e+00 0.0000000e+00 1.5000000e+00 
0.0000000e+00 0.0000000e+00 1.7500000e+00 
0.0000000e+00 0.0000000e+00 2.0000000e+00 
0.0000000e+00 0.0000000e+00 2.2500000e+00 
0.0000000e+00 0.0000000e+00 2.5000000e+00 
0.0000000e+00 0.0000000e+00 2.7500000e+00 
0.0000000e+00 0.0000000e+00 3.0000000e+00 
0.0000000e+00 0.0000000e+00 3.2500000e+00 
0.0000000e+00 0.0000000e+00 3.5000000e+00 
0.0000000e+00 0.0000000e+00 3.7500000e+00 
0.0000000e+00 0.0000000e+00 4.0000000e+00 
0.0000000e+00 0.0000000e+00 4.2500000e+00 
0.0000000e+00 0.0000000e+00 4.5000000e+00 
0.0000000e+00 0.0000000e+00 4.7500000e+00 
0.0000000e+00 0.0000000e+00 5.0000000e+00 
0.0000000e+00 0.0000000e+00 5.2500000e+00 
0.0000000e+00 0.0000000e+00 5.5000000e+00 
0.0000000e+00 0.0000000e+00 5.7500000e+00 
0.0000000e+00 0.0000000e+00 6.0000000e+00 
0.0000000e+00 0.0000000e+00 6.2500000e+00 
0.0000000e+00 0.0000000e+00 6.5000000e+00 
0.0000000e+00 0.0000000e+00 6.7500000e+00 
0.0000000e+00 0.0000000e+00 7.0000000e+00 
0.0000000e+00 0.0000000e+00 7.2500000e+00 
0.0000000e+00 0.0000000e+00 7.5000000e+00 
0.0000000e+00 0.0000000e+00 7.7500000e+00 
0.0000000e+00 0.0000000e+00 8.0000000e+00 
0.0000000e+00 0.0000000e+00 8.2500000e+00 
0.0000000e+00 0.0000000e+00 8.5000000e+00 
0.0000000e+00 0.0000000e+00 8.7500000e+00 
0.0000000e+00 0.0000000e+00 9.0000000e+00 
0.0000000e+00 0.0000000e+00 9.2500000e+00 
0.0000000e+00 0.0000000e+00 9.5000000e+00 
0.0000000e+00 0.0000000e+00 9.7500000e+00 
0.0000000e+00 0.0000000e+00 1.0000000e+01 
0.0000000e+00 0.0000000e+00 1.0250000e+01 
0.0000000e+00 0.0000000e+00 1.0500000e+01 
0.0000000e+00 0.0000000e+00 1.0750000e+01 
0.0000000e+00 0.0000000e+00 1.1000000e+01 
0.0000000e+00 0.0000000e+00 1.1250000e+01 
0.0000000e+00 0.0000000e+00 1.1500000e+01 
0.0000000e+00 0.0000000e+00 1.1750000e+01 
0.0000000e+00 0.0000000e+00 1.2000000e+01 
0.0000000e+00 0.0000000e+00 1.2250000e+01 
0.0000000e+00 0.0000000e+00 1.2500000e+01 
0.0000000e+00 0.0000000e+00 1.2750000e+01 
0.0000000e+00 0.0000000e+00 1.3000000e+01 
0.0000000e+00 0.0000000e+00 1.3250000e+01 
0.0000000e+00 0.0000000e+00 1.3500000e+01 
0.0000000e+00 0.0000000e+00 1.3750000e+01 
0.0000000e+00 0.0000000e+00 1.4000000e+01 
0.0000000e+00 0.0000000e+00 1.4250000e+01 
0.0000000e+00 0.0000000e+00 1.4500000e+01 
0.0000000e+00 0.0000000e+00 1.4750000e+01 
0.0000000e+00 0.0000000e+00 1.5000000e+01 
0.0000000e+00 0.0000000e+00 1.5250000e+01 
0.0000000e+00 0.0000000e+00 1.5500000e+01 
0.0000000e+00 0.0000000e+00 1.5750000e+01 
0.0000000e+00 0.0000000e+00 1.6000000e+01 
0.0000000e+00 0.0000000e+00 1.6250000e+01 
0.0000000e+00 0.0000000e+00 1.6500000e+01 
0.0000000e+00 0.0000000e+00 1.6750000e+01 
0.0000000e+00 0.0000000e+00 1.7000000e+01 
0.0000000e+00 0.0000000e+00 1.7250000e+01 
0.0000000e+00 0.0000000e+00 1.7500000e+01 
0.0000000e+00 0.0000000e+00 1.7750000e+01 
0.0000000e+00 0.0000000e+00 1.8000000e+01 
5.0000000e-01 0.0000000e+00 3.0000000e+00 
5.0000000e-01 0.0000000e+00 6.0000000e+00 
5.0000000e-01 0.0000000e+00 9.0000000e+00 
5.0000000e-01 0.0000000e+00 1.2000000e+01 
5.0000000e-01 0.0000000e+00 1.5000000e+01 
5.0000000e-01 0.0000000e+00 1.8000000e+01 
1.0000000e+00 0.0000000e+00 3.0000000e+00 
1.0000000e+00 0.0000000e+00 6.0000000e+00 
1.0000000e+00 0.0000000e+00 9.0000000e+00 
1.0000000e+00 0.0000000e+00 1.2000000e+01 
1.0000000e+00 0.0000000e+00 1.5000000e+01 
1.0000000e+00 0.0000000e+00 1.8000000e+01 
1.5000000e+00 0.0000000e+00 3.0000000e+00 
1.5000000e+00 0.0000000e+00 6.0000000e+00 
1.5000000e+00 0.0000000e+00 9.0000000e+00 
1.5000000e+00 0.0000000e+00 1.2000000e+01 
1.5000000e+00 0.0000000e+00 1.5000000e+01 
1.5000000e+00 0.0000000e+00 1.8000000e+01 
2.0000000e+00 0.0000000e+00 3.0000000e+00 
2.0000000e+00 0.0000000e+00 6.0000000e+00 
2.0000000e+00 0.0000000e+00 9.0000000e+00 
2.0000000e+00 0.0000000e+00 1.2000000e+01 
2.0000000e+00 0.0000000e+00 1.5000000e+01 
2.0000000e+00 0.0000000e+00 1.8000000e+01 
2.5000000e+00 0.0000000e+00 3.0000000e+00 
2.5000000e+00 0.0000000e+00 6.0000000e+00 
2.5000000e+00 0.0000000e+00 9.0000000e+00 
2.5000000e+00 0.0000000e+00 1.2000000e+01 
2.5000000e+00 0.0000000e+00 1.5000000e+01 
2.5000000e+00 0.0000000e+00 1.8000000e+01 
3.0000000e+00 0.0000000e+00 3.0000000e+00 
3.0000000e+00 0.0000000e+00 6.0000000e+00 
3.0000000e+00 0.0000000e+00 9.0000000e+00 
3.0000000e+00 0.0000000e+00 1.2000000e+01 
3.0000000e+00 0.0000000e+00 1.5000000e+01 
3.0000000e+00 0.0000000e+00 1.8000000e+01 
3.5000000e+00 0.0000000e+00 3.0000000e+00 
3.5000000e+00 0.0000000e+00 6.0000000e+00 
3.5000000e+00 0.0000000e+00 9.0000000e+00 
3.5000000e+00 0.0000000e+00 1.2000000e+01 
3.5000000e+00 0.0000000e+00 1.5000000e+01 
3.5000000e+00 0.0000000e+00 1.8000000e+01 
4.0000000e+00 0.0000000e+00 3.0000000e+00 
4.0000000e+00 0.0000000e+00 6.0000000e+00 
4.0000000e+00 0.0000000e+00 9.0000000e+00 
4.0000000e+00 0.0000000e+00 1.2000000e+01 
4.0000000e+00 0.0000000e+00 1.5000000e+01 
4.0000000e+00 0.0000000e+00 1.8000000e+01 
4.5000000e+00 0.0000000e+00 3.0000000e+00 
4.5000000e+00 0.0000000e+00 6.0000000e+00 
4.5000000e+00 0.0000000e+00 9.0000000e+00 
4.5000000e+00 0.0000000e+00 1.2000000e+01 
4.5000000e+00 0.0000000e+00 1.5000000e+01 
4.5000000e+00 0.0000000e+00 1.8000000e+01 
5.0000000e+00 0.0000000e+00 3.0000000e+00 
5.0000000e+00 0.0000000e+00 6.0000000e+00 
5.0000000e+00 0.0000000e+00 9.0000000e+00 
5.0000000e+00 0.0000000e+00 1.2000000e+01 
5.0000000e+00 0.0000000e+00 1.5000000e+01 
5.0000000e+00 0.0000000e+00 1.8000000e+01 
5.5000000e+00 0.0000000e+00 3.0000000e+00 
5.5000000e+00 0.0000000e+00 6.0000000e+00 
5.5000000e+00 0.0000000e+00 9.0000000e+00 
5.5000000e+00 0.0000000e+00 1.2000000e+01 
5.5000000e+00 0.0000000e+00 1.5000000e+01 
5.5000000e+00 0.0000000e+00 1.8000000e+01 
6.0000000e+00 0.0000000e+00 0.0000000e+00 
6.0000000e+00 0.0000000e+00 2.5000000e-01 
6.0000000e+00 0.0000000e+00 5.0000000e-01 
6.0000000e+00 0.0000000e+00 7.5000000e-01 
6.0000000e+00 0.0000000e+00 1.0000000e+00 
6.0000000e+00 0.0000000e+00 1.2500000e+00 
6.0000000e+00 0.0000000e+00 1.5000000e+00 
6.0000000e+00 0.0000000e+00 1.7500000e+00 
6.0000000e+00 0.0000000e+00 2.0000000e+00 
6.0000000e+00 0.0000000e+00 2.2500000e+00 
6.0000000e+00 0.0000000e+00 2.5000000e+00 
6.0000000e+00 0.0000000e+00 2.7500000e+00 
6.0000000e+00 0.0000000e+00 3.0000000e+00 
6.0000000e+00 0.0000000e+00 3.2500000e+00 
6.0000000e+00 0.0000000e+00 3.5000000e+00 
6.0000000e+00 0.0000000e+00 3.7500000e+00 
6.0000000e+00 0.0000000e+00 4.0000000e+00 
6.0000000e+00 0.0000000e+00 4.2500000e+00 
6.0000000e+00 0.0000000e+00 4.5000000e+00 
6.0000000e+00 0.0000000e+00 4.7500000e+00 
6.0000000e+00 0.0000000e+00 5.0000000e+00 
6.0000000e+00 0.0000000e+00 5.2500000e+00 
6.0000000e+00 0.0000000e+00 5.5000000e+00 
6.0000000e+00 0.0000000e+00 5.7500000e+00 
6.0000000e+00 0.0000000e+00 6.0000000e+00 
6.0000000e+00 0.0000000e+00 6.2500000e+00 
6.0000000e+00 0.0000000e+00 6.5000000e+00 
6.0000000e+00 0.0000000e+00 6.7500000e+00 
6.0000000e+00 0.0000000e+00 7.0000000e+00 
6.0000000e+00 0.0000000e+00 7.2500000e+00 
6.0000000e+00 0.0000000e+00 7.5000000e+00 
6.0000000e+00 0.0000000e+00 7.7500000e+00 
6.0000000e+00 0.0000000e+00 8.0000000e+00 
6.0000000e+00 0.0000000e+00 8.2500000e+00 
6.0000000e+00 0.0000000e+00 8.5000000e+00 
6.0000000e+00 0.0000000e+00 8.7500000e+00 
6.0000000e+00 0.0000000e+00 9.0000000e+00 
6.0000000e+00 0.0000000e+00 9.2500000e+00 
6.0000000e+00 0.0000000e+00 9.5000000e+00 
6.0000000e+00 0.0000000e+00 9.7500000e+00 
6.0000000e+00 0.0000000e+00 1.0000000e+01 
6.0000000e+00 0.0000000e+00 1.0250000e+01 
6.0000000e+00 0.0000000e+00 1.0500000e+01 
6.0000000e+00 0.0000000e+00 1.0750000e+01 
6.0000000e+00 0.0000000e+00 1.1000000e+01 
6.0000000e+00 0.0000000e+00 1.1250000e+01 
6.0000000e+00 0.0000000e+00 1.1500000e+01 
6.0000000e+00 0.0000000e+00 1.1750000e+01 
6.0000000e+00 0.0000000e+00 1.2000000e+01 
6.0000000e+00 0.0000000e+00 1.2250000e+01 
6.0000000e+00 0.0000000e+00 1.2500000e+01 
6.0000000e+00 0.0000000e+00 1.2750000e+01 
6.0000000e+00 0.0000000e+00 1.3000000e+01 
6.0000000e+00 0.0000000e+00 1.3250000e+01 
6.0000000e+00 0.0000000e+00 1.3500000e+01 
6.0000000e+00 0.0000000e+00 1.3750000e+01 
6.0000000e+00 0.0000000e+00 1.4000000e+01 
6.0000000e+00 0.0000000e+00 1.4250000e+01 
6.0000000e+00 0.0000000e+00 1.4500000e+01 
6.0000000e+00 0.0000000e+00 1.4750000e+01 
6.0000000e+00 0.0000000e+00 1.5000000e+01 
6.0000000e+00 0.0000000e+00 1.5250000e+01 
6.0000000e+00 0.0000000e+00 1.5500000e+01 
6.0000000e+00 0.0000000e+00 1.5750000e+01 
6.0000000e+00 0.0000000e+00 1.6000000e+01 
6.0000000e+00 0.0000000e+00 1.6250000e+01 
6.0000000e+00 0.0000000e+00 1.6500000e+01 
6.0000000e+00 0.0000000e+00 1.6750000e+01 
6.0000000e+00 0.0000000e+00 1.7000000e+01 
6.0000000e+00 0.0000000e+00 1.7250000e+01 
6.0000000e+00 0.0000000e+00 1.7500000e+01 
6.0000000e+00 0.0000000e+00 1.7750000e+01 
6.0000000e+00 0.0000000e+00 1.8000000e+01 

CELLS 216 648
2 0 1
2 1 2
2 2 3
2 3 4
2 4 5
2 5 6
2 6 7
2 7 8
2 8 9
2 9 10
2 10 11
2 11 12
2 12 13
2 13 14
2 14 15
2 15 16
2 16 17
2 17 18
2 18 19
2 19 20
2 20 21
2 21 22
2 22 23
2 23 24
2 24 25
2 25 26
2 26 27
2 27 28
2 28 29
2 29 30
2 30 31
2 31 32
2 32 33
2 33 34
2 34 35
2 35 36
2 36 37
2 37 38
2 38 39
2 39 40
2 40 41
2 41 42
2 42 43
2 43 44
2 44 45
2 45 46
2 46 47
2 47 48
2 48 49
2 49 50
2 50 51
2 51 52
2 52 53
2 53 54
2 54 55
2 55 56
2 56 57
2 57 58
2 58 59
2 59 60
2 60 61
2 61 62
2 62 63
2 63 64
2 64 65
2 65 66
2 66 67
2 67 68
2 68 69
2 69 70
2 70 71
2 71 72
2 139 140
2 140 141
2 141 142
2 142 143
2 143 144
2 144 145
2 145 146
2 146 147
2 147 148
2 148 149
2 149 150
2 150 151
2 151 152
2 152 153
2 153 154
2 154 155
2 155 156
2 156 157
2 157 158
2 158 159
2 159 160
2 160 161
2 161 162
2 162 163
2 163 164
2 164 165
2 165 166
2 166 167
2 167 168
2 168 169
2 169 170
2 170 171
2 171 172
2 172 173
2 173 174
2 174 175
2 175 176
2 176 177
2 177 178
2 178 179
2 179 180
2 180 181
2 181 182
2 182 183
2 183 184
2 184 185
2 185 186
2 186 187
2 187 188
2 188 189
2 189 190
2 190 191
2 191 192
2 192 193
2 193 194
2 194 195
2 195 196
2 196 197
2 197 198
2 198 199
2 199 200
2 200 201
2 201 202
2 202 203
2 203 204
2 204 205
2 205 206
2 206 207
2 207 208
2 208 209
2 209 210
2 210 211
2 12 73
2 73 79
2 79 85
2 85 91
2 91 97
2 97 103
2 103 109
2 109 115
2 115 121
2 121 127
2 127 133
2 133 151
2 24 74
2 74 80
2 80 86
2 86 92
2 92 98
2 98 104
2 104 110
2 110 116
2 116 122
2 122 128
2 128 134
2 134 163
2 36 75
2 75 81
2 81 87
2 87 93
2 93 99
2 99 105
2 105 111
2 111 117
2 117 123
2 123 129
2 129 135
2 135 175
2 48 76
2 76 82
2 82 88
2 88 94
2 94 100
2 100 106
2 106 112
2 112 118
2 118 124
2 124 130
2 130 136
2 136 187
2 60 77
2 77 83
2 83 89
2 89 95
2 95 101
2 101 107
2 107 113
2 113 119
2 119 125
2 125 131
2 131 137
2 137 199
2 72 78
2 78 84
2 84 90
2 90 96
2 96 102
2 102 108
2 108 114
2 114 120
2 120 126
2 126 132
2 132 138
2 138 211

CELL_TYPES 216
3
3
3
3
3
3
3
3
3
3
3
3
3
3
3
3
3
3
3
3
3
3
3
3
3
3
3
3
3
3
3
3
3
3
3
3
3
3
3
3
3
3
3
3
3
3
3
3
3
3
3
3
3
3
3
3
3
3
3
3
3
3
3
3
3
3
3
3
3
3
3
3
3
3
3
3
3
3
3
3
3
3
3
3
3
3
3
3
3
3
3
3
3
3
3
3
3
3
3
3
3
3
3
3
3
3
3
3
3
3
3
3
3
3
3
3
3
3
3
3
3
3
3
3
3
3
3
3
3
3
3
3
3
3
3
3
3
3
3
3
3
3
3
3
3
3
3
3
3
3
3
3
3
3
3
3
3
3
3
3
3
3
3
3
3
3
3
3
3
3
3
3
3
3
3
3
3
3
3
3
3
3
3
3
3
3
3
3
3
3
3
3
3
3
3
3
3
3
3
3
3
3
3
3
3
3
3
3
3
3
3
3
3
3
3
3
POINT_DATA 212
FIELD FieldData 3
ADJOINT_DISPLACEMENT 3 212  float
0.0000000e+00 0.0000000e+00 0.0000000e+00 
-4.2341139e-02 0.0000000e+00 1.4090852e-16 
-8.3994478e-02 0.0000000e+00 2.8181705e-16 
-1.2427221e-01 0.0000000e+00 4.2272558e-16 
-1.6248654e-01 0.0000000e+00 5.6363409e-16 
-1.9794965e-01 0.0000000e+00 7.0454263e-16 
-2.2997375e-01 0.0000000e+00 8.4545117e-16 
-2.5787103e-01 0.0000000e+00 9.8635970e-16 
-2.8095371e-01 0.0000000e+00 1.1272682e-15 
-2.9853398e-01 0.0000000e+00 1.2681768e-15 
-3.0992401e-01 0.0000000e+00 1.4090853e-15 
-3.1443602e-01 0.0000000e+00 1.5499938e-15 
-3.1138220e-01 0.0000000e+00 1.6909023e-15 
-3.0217972e-01 0.0000000e+00 5.1712443e-05 
-2.8915080e-01 0.0000000e+00 1.0342489e-04 
-2.7296513e-01 0.0000000e+00 1.5513733e-04 
-2.5429240e-01 0.0000000e+00 2.0684977e-04 
-2.3380236e-01 0.0000000e+00 2.5856221e-04 
-2.1216470e-01 0.0000000e+00 3.1027466e-04 
-1.9004913e-01 0.0000000e+00 3.6198710e-04 
-1.6812536e-01 0.0000000e+00 4.1369954e-04 
-1.4706312e-01 0.0000000e+00 4.6541198e-04 
-1.2753209e-01 0.0000000e+00 5.1712443e-04 
-1.1020201e-01 0.0000000e+00 5.6883687e-04 
-9.5742583e-02 0.0000000e+00 6.2054931e-04 
-8.2502790e-02 0.0000000e+00 6.3133764e-04 
-6.8552688e-02 0.0000000e+00 6.4212596e-04 
-5.4143596e-02 0.0000000e+00 6.5291423e-04 
-3.9526839e-02 0.0000000e+00 6.6370255e-04 
-2.4953736e-02 0.0000000e+00 6.7449088e-04 
-1.0675612e-02 0.0000000e+00 6.8527920e-04 
3.0562156e-03 0.0000000e+00 6.9606747e-04 
1.5990425e-02 0.0000000e+00 7.0685579e-04 
2.7875694e-02 0.0000000e+00 7.1764411e-04 
3.8460702e-02 0.0000000e+00 7.2843244e-04 
4.7494132e-02 0.0000000e+00 7.3922070e-04 
5.4724656e-02 0.0000000e+00 7.5000903e-04 
6.0568869e-02 0.0000000e+00 7.5225951e-04 
6.5649375e-02 0.0000000e+00 7.5451005e-04 
7.0023879e-02 0.0000000e+00 7.5676054e-04 
7.3750094e-02 0.0000000e+00 7.5901102e-04 
7.6885715e-02 0.0000000e+00 7.6126156e-04 
7.9488456e-02 0.0000000e+00 7.6351204e-04 
8.1616014e-02 0.0000000e+00 7.6576252e-04 
8.3326101e-02 0.0000000e+00 7.6801307e-04 
8.4676422e-02 0.0000000e+00 7.7026355e-04 
8.5724682e-02 0.0000000e+00 7.7251403e-04 
8.6528592e-02 0.0000000e+00 7.7476451e-04 
8.7145843e-02 0.0000000e+00 7.7701506e-04 
8.7717220e-02 0.0000000e+00 7.7748368e-04 
8.8336498e-02 0.0000000e+00 7.7795231e-04 
8.8990912e-02 0.0000000e+00 7.7842100e-04 
8.9667685e-02 0.0000000e+00 7.7888963e-04 
9.0354040e-02 0.0000000e+00 7.7935832e-04 
9.1037199e-02 0.0000000e+00 7.7982695e-04 
9.1704391e-02 0.0000000e+00 7.8029558e-04 
9.2342839e-02 0.0000000e+00 7.8076427e-04 
9.2939772e-02 0.0000000e+00 7.8123290e-04 
9.3482412e-02 0.0000000e+00 7.8170159e-04 
9.3957983e-02 0.0000000e+00 7.8217022e-04 
9.4353713e-02 0.0000000e+00 7.8263885e-04 
9.4687037e-02 0.0000000e+00 7.8273256e-04 
9.4985493e-02 0.0000000e+00 7.8282628e-04 
9.5251456e-02 0.0000000e+00 7.8291993e-04 
9.5487297e-02 0.0000000e+00 7.8301365e-04 
9.5695406e-02 0.0000000e+00 7.8310736e-04 
9.5878147e-02 0.0000000e+00 7.8320102e-04 
9.6037894e-02 0.0000000e+00 7.8329473e-04 
9.6177034e-02 0.0000000e+00 7.8338844e-04 
9.6297927e-02 0.0000000e+00 7.8348210e-04 
9.6402958e-02 0.0000000e+00 7.8357582e-04 
9.6494503e-02 0.0000000e+00 7.8366947e-04 
9.6574932e-02 0.0000000e+00 7.8376319e-04 
-3.1164062e-01 0.0000000e+00 -2.0922525e-02 
-9.5662937e-02 0.0000000e+00 -1.6550466e-02 
5.4783486e-02 0.0000000e+00 -9.3945619e-03 
8.7132424e-02 0.0000000e+00 4.4982327e-05 
9.4356596e-02 0.0000000e+00 1.8503993e-04 
9.6574485e-02 0.0000000e+00 6.4859266e-04 
-3.1189907e-01 0.0000000e+00 -5.2528583e-02 
-9.5583290e-02 0.0000000e+00 -1.9153083e-02 
5.4842312e-02 0.0000000e+00 -1.5325462e-02 
8.7119006e-02 0.0000000e+00 -7.8301608e-05 
9.4359480e-02 0.0000000e+00 -2.2257332e-04 
9.6574031e-02 0.0000000e+00 5.4049713e-04 
-3.1215748e-01 0.0000000e+00 -9.0471886e-02 
-9.5503643e-02 0.0000000e+00 -1.0626857e-02 
5.4901142e-02 0.0000000e+00 -1.7760269e-02 
8.7105587e-02 0.0000000e+00 2.5740391e-04 
9.4362363e-02 0.0000000e+00 -4.7171515e-04 
9.6573576e-02 0.0000000e+00 4.5160184e-04 
-3.1241590e-01 0.0000000e+00 -1.3040614e-01 
-9.5423989e-02 0.0000000e+00 5.5886465e-03 
5.4959971e-02 0.0000000e+00 -1.7416565e-02 
8.7092176e-02 0.0000000e+00 9.0233947e-04 
9.4365247e-02 0.0000000e+00 -5.9389987e-04 
9.6573122e-02 0.0000000e+00 3.7403218e-04 
-3.1267434e-01 0.0000000e+00 -1.6798507e-01 
-9.5344342e-02 0.0000000e+00 2.6053870e-02 
5.5018801e-02 0.0000000e+00 -1.5011926e-02 
8.7078758e-02 0.0000000e+00 1.7067458e-03 
9.4368130e-02 0.0000000e+00 -6.2064180e-04 
9.6572675e-02 0.0000000e+00 2.9991352e-04 
-3.1293276e-01 0.0000000e+00 -1.9886237e-01 
-9.5264696e-02 0.0000000e+00 4.7329251e-02 
5.5077631e-02 0.0000000e+00 -1.1263935e-02 
8.7065339e-02 0.0000000e+00 2.5208634e-03 
9.4371013e-02 0.0000000e+00 -5.8345526e-04 
9.6572220e-02 0.0000000e+00 2.2137110e-04 
-3.1319121e-01 0.0000000e+00 -2.1869177e-01 
-9.5185049e-02 0.0000000e+00 6.5975226e-02 
5.5136461e-02 0.0000000e+00 -6.8901693e-03 
8.7051921e-02 0.0000000e+00 3.1949333e-03 
9.4373904e-02 0.0000000e+00 -5.1385455e-04 
9.6571766e-02 0.0000000e+00 1.3053029e-04 
-3.1344962e-01 0.0000000e+00 -2.2312696e-01 
-9.5105395e-02 0.0000000e+00 7.8552246e-02 
5.5195287e-02 0.0000000e+00 -2.6082089e-03 
8.7038502e-02 0.0000000e+00 3.5791956e-03 
9.4376788e-02 0.0000000e+00 -4.4335393e-04 
9.6571319e-02 0.0000000e+00 1.9516418e-05 
-3.1370807e-01 0.0000000e+00 -2.0782167e-01 
-9.5025748e-02 0.0000000e+00 8.1620730e-02 
5.5254117e-02 0.0000000e+00 8.6436659e-04 
8.7025084e-02 0.0000000e+00 3.5238913e-03 
9.4379671e-02 0.0000000e+00 -4.0346777e-04 
9.6570864e-02 0.0000000e+00 -1.1954519e-04 
-3.1396648e-01 0.0000000e+00 -1.6842961e-01 
-9.4946101e-02 0.0000000e+00 7.1741141e-02 
5.5312946e-02 0.0000000e+00 2.8099781e-03 
8.7011665e-02 0.0000000e+00 2.8792610e-03 
9.4382554e-02 0.0000000e+00 -4.2571031e-04 
9.6570410e-02 0.0000000e+00 -2.9452922e-04 
-3.1422490e-01 0.0000000e+00 -1.0060448e-01 
-9.4866455e-02 0.0000000e+00 4.5473896e-02 
5.5371776e-02 0.0000000e+00 2.5110459e-03 
8.6998254e-02 0.0000000e+00 1.4955454e-03 
9.4385438e-02 0.0000000e+00 -5.4159592e-04 
9.6569963e-02 0.0000000e+00 -5.1331031e-04 
0.0000000e+00 0.0000000e+00 0.0000000e+00 
-9.8143220e-03 0.0000000e+00 -1.4366870e-17 
-2.0316446e-02 0.0000000e+00 -2.8750829e-17 
-3.2194175e-02 0.0000000e+00 -4.3132979e-17 
-4.6135310e-02 0.0000000e+00 -5.7543309e-17 
-6.2827654e-02 0.0000000e+00 -7.1896454e-17 
-8.2959011e-02 0.0000000e+00 -8.6346281e-17 
-1.0721719e-01 0.0000000e+00 -1.0081682e-16 
-1.3628997e-01 0.0000000e+00 -1.1524961e-16 
-1.7086518e-01 0.0000000e+00 -1.2935801e-16 
-2.1163061e-01 0.0000000e+00 -1.4429722e-16 
-2.5927407e-01 0.0000000e+00 -1.5930146e-16 
-3.1448334e-01 0.0000000e+00 -1.7413168e-16 
-3.8236070e-01 0.0000000e+00 -5.1712443e-05 
-4.6710339e-01 0.0000000e+00 -1.0342489e-04 
-5.6804168e-01 0.0000000e+00 -1.5513733e-04 
-6.8450588e-01 0.0000000e+00 -2.0684977e-04 
-5.6582630e-01 0.0000000e+00 -2.5856221e-04 
-4.6133319e-01 0.0000000e+00 -3.1027466e-04 
-3.7035686e-01 0.0000000e+00 -3.6198710e-04 
-2.9222757e-01 0.0000000e+00 -4.1369954e-04 
-2.2627562e-01 0.0000000e+00 -4.6541198e-04 
-1.7183132e-01 0.0000000e+00 -5.1712443e-04 
-1.2822495e-01 0.0000000e+00 -5.6883687e-04 
-9.4786800e-02 0.0000000e+00 -6.2054931e-04 
-6.8008535e-02 0.0000000e+00 -6.3133764e-04 
-4.4660762e-02 0.0000000e+00 -6.4212596e-04 
-2.4492158e-02 0.0000000e+00 -6.5291423e-04 
-7.2514019e-03 0.0000000e+00 -6.6370255e-04 
7.3128259e-03 0.0000000e+00 -6.7449088e-04 
1.9451847e-02 0.0000000e+00 -6.8527920e-04 
2.9416982e-02 0.0000000e+00 -6.9606747e-04 
3.7459552e-02 0.0000000e+00 -7.0685579e-04 
4.3830879e-02 0.0000000e+00 -7.1764411e-04 
4.8782282e-02 0.0000000e+00 -7.2843244e-04 
5.2565083e-02 0.0000000e+00 -7.3922070e-04 
5.5430606e-02 0.0000000e+00 -7.5000903e-04 
5.8038626e-02 0.0000000e+00 -7.5225951e-04 
6.0842905e-02 0.0000000e+00 -7.5451005e-04 
6.3785739e-02 0.0000000e+00 -7.5676054e-04 
6.6809431e-02 0.0000000e+00 -7.5901102e-04 
6.9856256e-02 0.0000000e+00 -7.6126156e-04 
7.2868526e-02 0.0000000e+00 -7.6351204e-04 
7.5788528e-02 0.0000000e+00 -7.6576252e-04 
7.8558557e-02 0.0000000e+00 -7.6801307e-04 
8.1120908e-02 0.0000000e+00 -7.7026355e-04 
8.3417870e-02 0.0000000e+00 -7.7251403e-04 
8.5391752e-02 0.0000000e+00 -7.7476451e-04 
8.6984836e-02 0.0000000e+00 -7.7701506e-04 
8.8280991e-02 0.0000000e+00 -7.7748368e-04 
8.9411072e-02 0.0000000e+00 -7.7795231e-04 
9.0387858e-02 0.0000000e+00 -7.7842100e-04 
9.1224112e-02 0.0000000e+00 -7.7888963e-04 
9.1932625e-02 0.0000000e+00 -7.7935832e-04 
9.2526160e-02 0.0000000e+00 -7.7982695e-04 
9.3017496e-02 0.0000000e+00 -7.8029558e-04 
9.3419410e-02 0.0000000e+00 -7.8076427e-04 
9.3744673e-02 0.0000000e+00 -7.8123290e-04 
9.4006062e-02 0.0000000e+00 -7.8170159e-04 
9.4216354e-02 0.0000000e+00 -7.8217022e-04 
9.4388321e-02 0.0000000e+00 -7.8263885e-04 
9.4551802e-02 0.0000000e+00 -7.8273256e-04 
9.4726518e-02 0.0000000e+00 -7.8282628e-04 
9.4910108e-02 0.0000000e+00 -7.8291993e-04 
9.5100187e-02 0.0000000e+00 -7.8301365e-04 
9.5294386e-02 0.0000000e+00 -7.8310736e-04 
9.5490322e-02 0.0000000e+00 -7.8320102e-04 
9.5685631e-02 0.0000000e+00 -7.8329473e-04 
9.5877923e-02 0.0000000e+00 -7.8338844e-04 
9.6064836e-02 0.0000000e+00 -7.8348210e-04 
9.6243985e-02 0.0000000e+00 -7.8357582e-04 
9.6413001e-02 0.0000000e+00 -7.8366947e-04 
9.6569508e-02 0.0000000e+00 -7.8376319e-04 
ADJOINT_ROTATION 3 212  float
0.0000000e+00 -1.6982310e-01 0.0000000e+00 
0.0000000e+00 -1.6844749e-01 0.0000000e+00 
0.0000000e+00 -1.6432068e-01 0.0000000e+00 
0.0000000e+00 -1.5744264e-01 0.0000000e+00 
0.0000000e+00 -1.4781342e-01 0.0000000e+00 
0.0000000e+00 -1.3543297e-01 0.0000000e+00 
0.0000000e+00 -1.2030132e-01 0.0000000e+00 
0.0000000e+00 -1.0241846e-01 0.0000000e+00 
0.0000000e+00 -8.1784390e-02 0.0000000e+00 
0.0000000e+00 -5.8399107e-02 0.0000000e+00 
0.0000000e+00 -3.2262620e-02 0.0000000e+00 
0.0000000e+00 -3.3749186e-03 0.0000000e+00 
0.0000000e+00 2.8263992e-02 0.0000000e+00 
0.0000000e+00 4.4909261e-02 0.0000000e+00 
0.0000000e+00 5.8875687e-02 0.0000000e+00 
0.0000000e+00 7.0163265e-02 0.0000000e+00 
0.0000000e+00 7.8772001e-02 0.0000000e+00 
0.0000000e+00 8.4701896e-02 0.0000000e+00 
0.0000000e+00 8.7952942e-02 0.0000000e+00 
0.0000000e+00 8.8525139e-02 0.0000000e+00 
0.0000000e+00 8.6418495e-02 0.0000000e+00 
0.0000000e+00 8.1633009e-02 0.0000000e+00 
0.0000000e+00 7.4168675e-02 0.0000000e+00 
0.0000000e+00 6.4025499e-02 0.0000000e+00 
0.0000000e+00 5.1203474e-02 0.0000000e+00 
0.0000000e+00 5.4547347e-02 0.0000000e+00 
0.0000000e+00 5.6885935e-02 0.0000000e+00 
0.0000000e+00 5.8219243e-02 0.0000000e+00 
0.0000000e+00 5.8547262e-02 0.0000000e+00 
0.0000000e+00 5.7870001e-02 0.0000000e+00 
0.0000000e+00 5.6187451e-02 0.0000000e+00 
0.0000000e+00 5.3499620e-02 0.0000000e+00 
0.0000000e+00 4.9806505e-02 0.0000000e+00 
0.0000000e+00 4.5108106e-02 0.0000000e+00 
0.0000000e+00 3.9404422e-02 0.0000000e+00 
0.0000000e+00 3.2695450e-02 0.0000000e+00 
0.0000000e+00 2.4981199e-02 0.0000000e+00 
0.0000000e+00 2.1810966e-02 0.0000000e+00 
0.0000000e+00 1.8871555e-02 0.0000000e+00 
0.0000000e+00 1.6162965e-02 0.0000000e+00 
0.0000000e+00 1.3685199e-02 0.0000000e+00 
0.0000000e+00 1.1438253e-02 0.0000000e+00 
0.0000000e+00 9.4221300e-03 0.0000000e+00 
0.0000000e+00 7.6368288e-03 0.0000000e+00 
0.0000000e+00 6.0823499e-03 0.0000000e+00 
0.0000000e+00 4.7586928e-03 0.0000000e+00 
0.0000000e+00 3.6658577e-03 0.0000000e+00 
0.0000000e+00 2.8038449e-03 0.0000000e+00 
0.0000000e+00 2.1726538e-03 0.0000000e+00 
0.0000000e+00 2.3898319e-03 0.0000000e+00 
0.0000000e+00 2.5559100e-03 0.0000000e+00 
0.0000000e+00 2.6708883e-03 0.0000000e+00 
0.0000000e+00 2.7347666e-03 0.0000000e+00 
0.0000000e+00 2.7475448e-03 0.0000000e+00 
0.0000000e+00 2.7092232e-03 0.0000000e+00 
0.0000000e+00 2.6198013e-03 0.0000000e+00 
0.0000000e+00 2.4792796e-03 0.0000000e+00 
0.0000000e+00 2.2876579e-03 0.0000000e+00 
0.0000000e+00 2.0449364e-03 0.0000000e+00 
0.0000000e+00 1.7511147e-03 0.0000000e+00 
0.0000000e+00 1.4061931e-03 0.0000000e+00 
0.0000000e+00 1.2619725e-03 0.0000000e+00 
0.0000000e+00 1.1272536e-03 0.0000000e+00 
0.0000000e+00 1.0020366e-03 0.0000000e+00 
0.0000000e+00 8.8632142e-04 0.0000000e+00 
0.0000000e+00 7.8010809e-04 0.0000000e+00 
0.0000000e+00 6.8339659e-04 0.0000000e+00 
0.0000000e+00 5.9618684e-04 0.0000000e+00 
0.0000000e+00 5.1847898e-04 0.0000000e+00 
0.0000000e+00 4.5027296e-04 0.0000000e+00 
0.0000000e+00 3.9156876e-04 0.0000000e+00 
0.0000000e+00 3.4236637e-04 0.0000000e+00 
0.0000000e+00 3.0266581e-04 0.0000000e+00 
0.0000000e+00 5.3977344e-02 0.0000000e+00 
0.0000000e+00 1.8627111e-02 0.0000000e+00 
0.0000000e+00 1.5836276e-02 0.0000000e+00 
0.0000000e+00 8.0539688e-04 0.0000000e+00 
0.0000000e+00 9.9470746e-04 0.0000000e+00 
0.0000000e+00 2.4064119e-04 0.0000000e+00 
0.0000000e+00 7.0998125e-02 0.0000000e+00 
0.0000000e+00 -7.0701297e-03 0.0000000e+00 
0.0000000e+00 8.1265140e-03 0.0000000e+00 
0.0000000e+00 -2.6234135e-04 0.0000000e+00 
0.0000000e+00 6.4625032e-04 0.0000000e+00 
0.0000000e+00 1.9436593e-04 0.0000000e+00 
0.0000000e+00 7.9326324e-02 0.0000000e+00 
0.0000000e+00 -2.5888249e-02 0.0000000e+00 
0.0000000e+00 1.8519097e-03 0.0000000e+00 
0.0000000e+00 -1.0305608e-03 0.0000000e+00 
0.0000000e+00 3.6082178e-04 0.0000000e+00 
0.0000000e+00 1.6384001e-04 0.0000000e+00 
0.0000000e+00 7.8961946e-02 0.0000000e+00 
0.0000000e+00 -3.7827246e-02 0.0000000e+00 
0.0000000e+00 -2.9875357e-03 0.0000000e+00 
0.0000000e+00 -1.4992617e-03 0.0000000e+00 
0.0000000e+00 1.3842191e-04 0.0000000e+00 
0.0000000e+00 1.4906345e-04 0.0000000e+00 
0.0000000e+00 6.9904990e-02 0.0000000e+00 
0.0000000e+00 -4.2887125e-02 0.0000000e+00 
0.0000000e+00 -6.3918224e-03 0.0000000e+00 
0.0000000e+00 -1.6684438e-03 0.0000000e+00 
0.0000000e+00 -2.0949379e-05 0.0000000e+00 
0.0000000e+00 1.5003621e-04 0.0000000e+00 
0.0000000e+00 5.2155461e-02 0.0000000e+00 
0.0000000e+00 -4.1067880e-02 0.0000000e+00 
0.0000000e+00 -8.3609503e-03 0.0000000e+00 
0.0000000e+00 -1.5381072e-03 0.0000000e+00 
0.0000000e+00 -1.1729205e-04 0.0000000e+00 
0.0000000e+00 1.6675833e-04 0.0000000e+00 
0.0000000e+00 2.5713354e-02 0.0000000e+00 
0.0000000e+00 -3.2369513e-02 0.0000000e+00 
0.0000000e+00 -8.8949185e-03 0.0000000e+00 
0.0000000e+00 -1.1082519e-03 0.0000000e+00 
0.0000000e+00 -1.5060611e-04 0.0000000e+00 
0.0000000e+00 1.9922979e-04 0.0000000e+00 
0.0000000e+00 -9.4213299e-03 0.0000000e+00 
0.0000000e+00 -1.6792025e-02 0.0000000e+00 
0.0000000e+00 -7.9937289e-03 0.0000000e+00 
0.0000000e+00 -3.7887791e-04 0.0000000e+00 
0.0000000e+00 -1.2089155e-04 0.0000000e+00 
0.0000000e+00 2.4745060e-04 0.0000000e+00 
0.0000000e+00 -5.3248592e-02 0.0000000e+00 
0.0000000e+00 5.6645842e-03 0.0000000e+00 
0.0000000e+00 -5.6573800e-03 0.0000000e+00 
0.0000000e+00 6.5001479e-04 0.0000000e+00 
0.0000000e+00 -2.8148383e-05 0.0000000e+00 
0.0000000e+00 3.1142074e-04 0.0000000e+00 
0.0000000e+00 -1.0576843e-01 0.0000000e+00 
0.0000000e+00 3.5000317e-02 0.0000000e+00 
0.0000000e+00 -1.8858726e-03 0.0000000e+00 
0.0000000e+00 1.9784262e-03 0.0000000e+00 
0.0000000e+00 1.2762340e-04 0.0000000e+00 
0.0000000e+00 3.9114023e-04 0.0000000e+00 
0.0000000e+00 -1.6698085e-01 0.0000000e+00 
0.0000000e+00 7.1215168e-02 0.0000000e+00 
0.0000000e+00 3.3207939e-03 0.0000000e+00 
0.0000000e+00 3.6063562e-03 0.0000000e+00 
0.0000000e+00 3.4642380e-04 0.0000000e+00 
0.0000000e+00 4.8660909e-04 0.0000000e+00 
0.0000000e+00 -3.8798753e-02 0.0000000e+00 
0.0000000e+00 -4.0174358e-02 0.0000000e+00 
0.0000000e+00 -4.4301171e-02 0.0000000e+00 
0.0000000e+00 -5.1179197e-02 0.0000000e+00 
0.0000000e+00 -6.0808428e-02 0.0000000e+00 
0.0000000e+00 -7.3188871e-02 0.0000000e+00 
0.0000000e+00 -8.8320524e-02 0.0000000e+00 
0.0000000e+00 -1.0620338e-01 0.0000000e+00 
0.0000000e+00 -1.2683746e-01 0.0000000e+00 
0.0000000e+00 -1.5022273e-01 0.0000000e+00 
0.0000000e+00 -1.7635922e-01 0.0000000e+00 
0.0000000e+00 -2.0524693e-01 0.0000000e+00 
0.0000000e+00 -2.3688583e-01 0.0000000e+00 
0.0000000e+00 -3.0568656e-01 0.0000000e+00 
0.0000000e+00 -3.7180847e-01 0.0000000e+00 
0.0000000e+00 -4.3525150e-01 0.0000000e+00 
0.0000000e+00 -4.9601570e-01 0.0000000e+00 
0.0000000e+00 4.4589895e-01 0.0000000e+00 
0.0000000e+00 3.9049244e-01 0.0000000e+00 
0.0000000e+00 3.3776477e-01 0.0000000e+00 
0.0000000e+00 2.8771597e-01 0.0000000e+00 
0.0000000e+00 2.4034598e-01 0.0000000e+00 
0.0000000e+00 1.9565487e-01 0.0000000e+00 
0.0000000e+00 1.5364258e-01 0.0000000e+00 
0.0000000e+00 1.1430914e-01 0.0000000e+00 
0.0000000e+00 1.0008454e-01 0.0000000e+00 
0.0000000e+00 8.6865209e-02 0.0000000e+00 
0.0000000e+00 7.4651174e-02 0.0000000e+00 
0.0000000e+00 6.3442416e-02 0.0000000e+00 
0.0000000e+00 5.3238951e-02 0.0000000e+00 
0.0000000e+00 4.4040766e-02 0.0000000e+00 
0.0000000e+00 3.5847861e-02 0.0000000e+00 
0.0000000e+00 2.8660245e-02 0.0000000e+00 
0.0000000e+00 2.2477912e-02 0.0000000e+00 
0.0000000e+00 1.7300865e-02 0.0000000e+00 
0.0000000e+00 1.3129099e-02 0.0000000e+00 
0.0000000e+00 9.9626193e-03 0.0000000e+00 
0.0000000e+00 1.0863072e-02 0.0000000e+00 
0.0000000e+00 1.1532703e-02 0.0000000e+00 
0.0000000e+00 1.1971513e-02 0.0000000e+00 
0.0000000e+00 1.2179500e-02 0.0000000e+00 
0.0000000e+00 1.2156665e-02 0.0000000e+00 
0.0000000e+00 1.1903008e-02 0.0000000e+00 
0.0000000e+00 1.1418530e-02 0.0000000e+00 
0.0000000e+00 1.0703228e-02 0.0000000e+00 
0.0000000e+00 9.7571062e-03 0.0000000e+00 
0.0000000e+00 8.5801613e-03 0.0000000e+00 
0.0000000e+00 7.1723941e-03 0.0000000e+00 
0.0000000e+00 5.5338051e-03 0.0000000e+00 
0.0000000e+00 4.8439591e-03 0.0000000e+00 
0.0000000e+00 4.2052134e-03 0.0000000e+00 
0.0000000e+00 3.6175672e-03 0.0000000e+00 
0.0000000e+00 3.0810214e-03 0.0000000e+00 
0.0000000e+00 2.5955753e-03 0.0000000e+00 
0.0000000e+00 2.1612293e-03 0.0000000e+00 
0.0000000e+00 1.7779833e-03 0.0000000e+00 
0.0000000e+00 1.4458372e-03 0.0000000e+00 
0.0000000e+00 1.1647912e-03 0.0000000e+00 
0.0000000e+00 9.3484501e-04 0.0000000e+00 
0.0000000e+00 7.5599895e-04 0.0000000e+00 
0.0000000e+00 6.2825280e-04 0.0000000e+00 
0.0000000e+00 6.7797740e-04 0.0000000e+00 
0.0000000e+00 7.1820017e-04 0.0000000e+00 
0.0000000e+00 7.4892107e-04 0.0000000e+00 
0.0000000e+00 7.7014021e-04 0.0000000e+00 
0.0000000e+00 7.8185747e-04 0.0000000e+00 
0.0000000e+00 7.8407297e-04 0.0000000e+00 
0.0000000e+00 7.7678659e-04 0.0000000e+00 