# vtk DataFile Version 4.0
vtk output
ASCII
DATASET UNSTRUCTURED_GRID
POINTS 212 float
0.0000000e+00 0.0000000e+00 0.0000000e+00 
0.0000000e+00 0.0000000e+00 2.5000000e-01 
0.0000000e+00 0.0000000e+00 5.0000000e-01 
0.0000000e+00 0.0000000e+00 7.5000000e-01 
0.0000000e+00 0.0000000e+00 1.0000000e+00 
0.0000000e+00 0.0000000e+00 1.2500000e+00 
0.0000000e+00 0.0000000e+00 1.5000000e+00 
0.0000000e+00 0.0000000e+00 1.7500000e+00 
0.0000000e+00 0.0000000e+00 2.0000000e+00 
0.0000000e+00 0.0000000e+00 2.2500000e+00 
0.0000000e+00 0.0000000e+00 2.5000000e+00 
0.0000000e+00 0.0000000e+00 2.7500000e+00 
0.0000000e+00 0.0000000e+00 3.0000000e+00 
0.0000000e+00 0.0000000e+00 3.2500000e+00 
0.0000000e+00 0.0000000e+00 3.5000000e+00 
0.0000000e+00 0.0000000e+00 3.7500000e+00 
0.0000000e+00 0.0000000e+00 4.0000000e+00 
0.0000000e+00 0.0000000e+00 4.2500000e+00 
0.0000000e+00 0.0000000e+00 4.5000000e+00 
0.0000000e+00 0.0000000e+00 4.7500000e+00 
0.0000000e+00 0.0000000e+00 5.0000000e+00 
0.0000000e+00 0.0000000e+00 5.2500000e+00 
0.0000000e+00 0.0000000e+00 5.5000000e+00 
0.0000000e+00 0.0000000e+00 5.7500000e+00 
0.0000000e+00 0.0000000e+00 6.0000000e+00 
0.0000000e+00 0.0000000e+00 6.2500000e+00 
0.0000000e+00 0.0000000e+00 6.5000000e+00 
0.0000000e+00 0.0000000e+00 6.7500000e+00 
0.0000000e+00 0.0000000e+00 7.0000000e+00 
0.0000000e+00 0.0000000e+00 7.2500000e+00 
0.0000000e+00 0.0000000e+00 7.5000000e+00 
0.0000000e+00 0.0000000e+00 7.7500000e+00 
0.0000000e+00 0.0000000e+00 8.0000000e+00 
0.0000000e+00 0.0000000e+00 8.2500000e+00 
0.0000000e+00 0.0000000e+00 8.5000000e+00 
0.0000000e+00 0.0000000e+00 8.7500000e+00 
0.0000000e+00 0.0000000e+00 9.0000000e+00 
0.0000000e+00 0.0000000e+00 9.2500000e+00 
0.0000000e+00 0.0000000e+00 9.5000000e+00 
0.0000000e+00 0.0000000e+00 9.7500000e+00 
0.0000000e+00 0.0000000e+00 1.0000000e+01 
0.0000000e+00 0.0000000e+00 1.0250000e+01 
0.0000000e+00 0.0000000e+00 1.0500000e+01 
0.0000000e+00 0.0000000e+00 1.0750000e+01 
0.0000000e+00 0.0000000e+00 1.1000000e+01 
0.0000000e+00 0.0000000e+00 1.1250000e+01 
0.0000000e+00 0.0000000e+00 1.1500000e+01 
0.0000000e+00 0.0000000e+00 1.1750000e+01 
0.0000000e+00 0.0000000e+00 1.2000000e+01 
0.0000000e+00 0.0000000e+00 1.2250000e+01 
0.0000000e+00 0.0000000e+00 1.2500000e+01 
0.0000000e+00 0.0000000e+00 1.2750000e+01 
0.0000000e+00 0.0000000e+00 1.3000000e+01 
0.0000000e+00 0.0000000e+00 1.3250000e+01 
0.0000000e+00 0.0000000e+00 1.3500000e+01 
0.0000000e+00 0.0000000e+00 1.3750000e+01 
0.0000000e+00 0.0000000e+00 1.4000000e+01 
0.0000000e+00 0.0000000e+00 1.4250000e+01 
0.0000000e+00 0.0000000e+00 1.4500000e+01 
0.0000000e+00 0.0000000e+00 1.4750000e+01 
0.0000000e+00 0.0000000e+00 1.5000000e+01 
0.0000000e+00 0.0000000e+00 1.5250000e+01 
0.0000000e+00 0.0000000e+00 1.5500000e+01 
0.0000000e+00 0.0000000e+00 1.5750000e+01 
0.0000000e+00 0.0000000e+00 1.6000000e+01 
0.0000000e+00 0.0000000e+00 1.6250000e+01 
0.0000000e+00 0.0000000e+00 1.6500000e+01 
0.0000000e+00 0.0000000e+00 1.6750000e+01 
0.0000000e+00 0.0000000e+00 1.7000000e+01 
0.0000000e+00 0.0000000e+00 1.7250000e+01 
0.0000000e+00 0.0000000e+00 1.7500000e+01 
0.0000000e+00 0.0000000e+00 1.7750000e+01 
0.0000000e+00 0.0000000e+00 1.8000000e+01 
5.0000000e-01 0.0000000e+00 3.0000000e+00 
5.0000000e-01 0.0000000e+00 6.0000000e+00 
5.0000000e-01 0.0000000e+00 9.0000000e+00 
5.0000000e-01 0.0000000e+00 1.2000000e+01 
5.0000000e-01 0.0000000e+00 1.5000000e+01 
5.0000000e-01 0.0000000e+00 1.8000000e+01 
1.0000000e+00 0.0000000e+00 3.0000000e+00 
1.0000000e+00 0.0000000e+00 6.0000000e+00 
1.0000000e+00 0.0000000e+00 9.0000000e+00 
1.0000000e+00 0.0000000e+00 1.2000000e+01 
1.0000000e+00 0.0000000e+00 1.5000000e+01 
1.0000000e+00 0.0000000e+00 1.8000000e+01 
1.5000000e+00 0.0000000e+00 3.0000000e+00 
1.5000000e+00 0.0000000e+00 6.0000000e+00 
1.5000000e+00 0.0000000e+00 9.0000000e+00 
1.5000000e+00 0.0000000e+00 1.2000000e+01 
1.5000000e+00 0.0000000e+00 1.5000000e+01 
1.5000000e+00 0.0000000e+00 1.8000000e+01 
2.0000000e+00 0.0000000e+00 3.0000000e+00 
2.0000000e+00 0.0000000e+00 6.0000000e+00 
2.0000000e+00 0.0000000e+00 9.0000000e+00 
2.0000000e+00 0.0000000e+00 1.2000000e+01 
2.0000000e+00 0.0000000e+00 1.5000000e+01 
2.0000000e+00 0.0000000e+00 1.8000000e+01 
2.5000000e+00 0.0000000e+00 3.0000000e+00 
2.5000000e+00 0.0000000e+00 6.0000000e+00 
2.5000000e+00 0.0000000e+00 9.0000000e+00 
2.5000000e+00 0.0000000e+00 1.2000000e+01 
2.5000000e+00 0.0000000e+00 1.5000000e+01 
2.5000000e+00 0.0000000e+00 1.8000000e+01 
3.0000000e+00 0.0000000e+00 3.0000000e+00 
3.0000000e+00 0.0000000e+00 6.0000000e+00 
3.0000000e+00 0.0000000e+00 9.0000000e+00 
3.0000000e+00 0.0000000e+00 1.2000000e+01 
3.0000000e+00 0.0000000e+00 1.5000000e+01 
3.0000000e+00 0.0000000e+00 1.8000000e+01 
3.5000000e+00 0.0000000e+00 3.0000000e+00 
3.5000000e+00 0.0000000e+00 6.0000000e+00 
3.5000000e+00 0.0000000e+00 9.0000000e+00 
3.5000000e+00 0.0000000e+00 1.2000000e+01 
3.5000000e+00 0.0000000e+00 1.5000000e+01 
3.5000000e+00 0.0000000e+00 1.8000000e+01 
4.0000000e+00 0.0000000e+00 3.0000000e+00 
4.0000000e+00 0.0000000e+00 6.0000000e+00 
4.0000000e+00 0.0000000e+00 9.0000000e+00 
4.0000000e+00 0.0000000e+00 1.2000000e+01 
4.0000000e+00 0.0000000e+00 1.5000000e+01 
4.0000000e+00 0.0000000e+00 1.8000000e+01 
4.5000000e+00 0.0000000e+00 3.0000000e+00 
4.5000000e+00 0.0000000e+00 6.0000000e+00 
4.5000000e+00 0.0000000e+00 9.0000000e+00 
4.5000000e+00 0.0000000e+00 1.2000000e+01 
4.5000000e+00 0.0000000e+00 1.5000000e+01 
4.5000000e+00 0.0000000e+00 1.8000000e+01 
5.0000000e+00 0.0000000e+00 3.0000000e+00 
5.0000000e+00 0.0000000e+00 6.0000000e+00 
5.0000000e+00 0.0000000e+00 9.0000000e+00 
5.0000000e+00 0.0000000e+00 1.2000000e+01 
5.0000000e+00 0.0000000e+00 1.5000000e+01 
5.0000000e+00 0.0000000e+00 1.8000000e+01 
5.5000000e+00 0.0000000e+00 3.0000000e+00 
5.5000000e+00 0.0000000e+00 6.0000000e+00 
5.5000000e+00 0.0000000e+00 9.0000000e+00 
5.5000000e+00 0.0000000e+00 1.2000000e+01 
5.5000000e+00 0.0000000e+00 1.5000000e+01 
5.5000000e+00 0.0000000e+00 1.8000000e+01 
6.0000000e+00 0.0000000e+00 0.0000000e+00 
6.0000000e+00 0.0000000e+00 2.5000000e-01 
6.0000000e+00 0.0000000e+00 5.0000000e-01 
6.0000000e+00 0.0000000e+00 7.5000000e-01 
6.0000000e+00 0.0000000e+00 1.0000000e+00 
6.0000000e+00 0.0000000e+00 1.2500000e+00 
6.0000000e+00 0.0000000e+00 1.5000000e+00 
6.0000000e+00 0.0000000e+00 1.7500000e+00 
6.0000000e+00 0.0000000e+00 2.0000000e+00 
6.0000000e+00 0.0000000e+00 2.2500000e+00 
6.0000000e+00 0.0000000e+00 2.5000000e+00 
6.0000000e+00 0.0000000e+00 2.7500000e+00 
6.0000000e+00 0.0000000e+00 3.0000000e+00 
6.0000000e+00 0.0000000e+00 3.2500000e+00 
6.0000000e+00 0.0000000e+00 3.5000000e+00 
6.0000000e+00 0.0000000e+00 3.7500000e+00 
6.0000000e+00 0.0000000e+00 4.0000000e+00 
6.0000000e+00 0.0000000e+00 4.2500000e+00 
6.0000000e+00 0.0000000e+00 4.5000000e+00 
6.0000000e+00 0.0000000e+00 4.7500000e+00 
6.0000000e+00 0.0000000e+00 5.0000000e+00 
6.0000000e+00 0.0000000e+00 5.2500000e+00 
6.0000000e+00 0.0000000e+00 5.5000000e+00 
6.0000000e+00 0.0000000e+00 5.7500000e+00 
6.0000000e+00 0.0000000e+00 6.0000000e+00 
6.0000000e+00 0.0000000e+00 6.2500000e+00 
6.0000000e+00 0.0000000e+00 6.5000000e+00 
6.0000000e+00 0.0000000e+00 6.7500000e+00 
6.0000000e+00 0.0000000e+00 7.0000000e+00 
6.0000000e+00 0.0000000e+00 7.2500000e+00 
6.0000000e+00 0.0000000e+00 7.5000000e+00 
6.0000000e+00 0.0000000e+00 7.7500000e+00 
6.0000000e+00 0.0000000e+00 8.0000000e+00 
6.0000000e+00 0.0000000e+00 8.2500000e+00 
6.0000000e+00 0.0000000e+00 8.5000000e+00 
6.0000000e+00 0.0000000e+00 8.7500000e+00 
6.0000000e+00 0.0000000e+00 9.0000000e+00 
6.0000000e+00 0.0000000e+00 9.2500000e+00 
6.0000000e+00 0.0000000e+00 9.5000000e+00 
6.0000000e+00 0.0000000e+00 9.7500000e+00 
6.0000000e+00 0.0000000e+00 1.0000000e+01 
6.0000000e+00 0.0000000e+00 1.0250000e+01 
6.0000000e+00 0.0000000e+00 1.0500000e+01 
6.0000000e+00 0.0000000e+00 1.0750000e+01 
6.0000000e+00 0.0000000e+00 1.1000000e+01 
6.0000000e+00 0.0000000e+00 1.1250000e+01 
6.0000000e+00 0.0000000e+00 1.1500000e+01 
6.0000000e+00 0.0000000e+00 1.1750000e+01 
6.0000000e+00 0.0000000e+00 1.2000000e+01 
6.0000000e+00 0.0000000e+00 1.2250000e+01 
6.0000000e+00 0.0000000e+00 1.2500000e+01 
6.0000000e+00 0.0000000e+00 1.2750000e+01 
6.0000000e+00 0.0000000e+00 1.3000000e+01 
6.0000000e+00 0.0000000e+00 1.3250000e+01 
6.0000000e+00 0.0000000e+00 1.3500000e+01 
6.0000000e+00 0.0000000e+00 1.3750000e+01 
6.0000000e+00 0.0000000e+00 1.4000000e+01 
6.0000000e+00 0.0000000e+00 1.4250000e+01 
6.0000000e+00 0.0000000e+00 1.4500000e+01 
6.0000000e+00 0.0000000e+00 1.4750000e+01 
6.0000000e+00 0.0000000e+00 1.5000000e+01 
6.0000000e+00 0.0000000e+00 1.5250000e+01 
6.0000000e+00 0.0000000e+00 1.5500000e+01 
6.0000000e+00 0.0000000e+00 1.5750000e+01 
6.0000000e+00 0.0000000e+00 1.6000000e+01 
6.0000000e+00 0.0000000e+00 1.6250000e+01 
6.0000000e+00 0.0000000e+00 1.6500000e+01 
6.0000000e+00 0.0000000e+00 1.6750000e+01 
6.0000000e+00 0.0000000e+00 1.7000000e+01 
6.0000000e+00 0.0000000e+00 1.7250000e+01 
6.0000000e+00 0.0000000e+00 1.7500000e+01 
6.0000000e+00 0.0000000e+00 1.7750000e+01 
6.0000000e+00 0.0000000e+00 1.8000000e+01 

CELLS 216 648
2 0 1
2 1 2
2 2 3
2 3 4
2 4 5
2 5 6
2 6 7
2 7 8
2 8 9
2 9 10
2 10 11
2 11 12
2 12 13
2 13 14
2 14 15
2 15 16
2 16 17
2 17 18
2 18 19
2 19 20
2 20 21
2 21 22
2 22 23
2 23 24
2 24 25
2 25 26
2 26 27
2 27 28
2 28 29
2 29 30
2 30 31
2 31 32
2 32 33
2 33 34
2 34 35
2 35 36
2 36 37
2 37 38
2 38 39
2 39 40
2 40 41
2 41 42
2 42 43
2 43 44
2 44 45
2 45 46
2 46 47
2 47 48
2 48 49
2 49 50
2 50 51
2 51 52
2 52 53
2 53 54
2 54 55
2 55 56
2 56 57
2 57 58
2 58 59
2 59 60
2 60 61
2 61 62
2 62 63
2 63 64
2 64 65
2 65 66
2 66 67
2 67 68
2 68 69
2 69 70
2 70 71
2 71 72
2 139 140
2 140 141
2 141 142
2 142 143
2 143 144
2 144 145
2 145 146
2 146 147
2 147 148
2 148 149
2 149 150
2 150 151
2 151 152
2 152 153
2 153 154
2 154 155
2 155 156
2 156 157
2 157 158
2 158 159
2 159 160
2 160 161
2 161 162
2 162 163
2 163 164
2 164 165
2 165 166
2 166 167
2 167 168
2 168 169
2 169 170
2 170 171
2 171 172
2 172 173
2 173 174
2 174 175
2 175 176
2 176 177
2 177 178
2 178 179
2 179 180
2 180 181
2 181 182
2 182 183
2 183 184
2 184 185
2 185 186
2 186 187
2 187 188
2 188 189
2 189 190
2 190 191
2 191 192
2 192 193
2 193 194
2 194 195
2 195 196
2 196 197
2 197 198
2 198 199
2 199 200
2 200 201
2 201 202
2 202 203
2 203 204
2 204 205
2 205 206
2 206 207
2 207 208
2 208 209
2 209 210
2 210 211
2 12 73
2 73 79
2 79 85
2 85 91
2 91 97
2 97 103
2 103 109
2 109 115
2 115 121
2 121 127
2 127 133
2 133 151
2 24 74
2 74 80
2 80 86
2 86 92
2 92 98
2 98 104
2 104 110
2 110 116
2 116 122
2 122 128
2 128 134
2 134 163
2 36 75
2 75 81
2 81 87
2 87 93
2 93 99
2 99 105
2 105 111
2 111 117
2 117 123
2 123 129
2 129 135
2 135 175
2 48 76
2 76 82
2 82 88
2 88 94
2 94 100
2 100 106
2 106 112
2 112 118
2 118 124
2 124 130
2 130 136
2 136 187
2 60 77
2 77 83
2 83 89
2 89 95
2 95 101
2 101 107
2 107 113
2 113 119
2 119 125
2 125 131
2 131 137
2 137 199
2 72 78
2 78 84
2 84 90
2 90 96
2 96 102
2 102 108
2 108 114
2 114 120
2 120 126
2 126 132
2 132 138
2 138 211

CELL_TYPES 216
3
3
3
3
3
3
3
3
3
3
3
3
3
3
3
3
3
3
3
3
3
3
3
3
3
3
3
3
3
3
3
3
3
3
3
3
3
3
3
3
3
3
3
3
3
3
3
3
3
3
3
3
3
3
3
3
3
3
3
3
3
3
3
3
3
3
3
3
3
3
3
3
3
3
3
3
3
3
3
3
3
3
3
3
3
3
3
3
3
3
3
3
3
3
3
3
3
3
3
3
3
3
3
3
3
3
3
3
3
3
3
3
3
3
3
3
3
3
3
3
3
3
3
3
3
3
3
3
3
3
3
3
3
3
3
3
3
3
3
3
3
3
3
3
3
3
3
3
3
3
3
3
3
3
3
3
3
3
3
3
3
3
3
3
3
3
3
3
3
3
3
3
3
3
3
3
3
3
3
3
3
3
3
3
3
3
3
3
3
3
3
3
3
3
3
3
3
3
3
3
3
3
3
3
3
3
3
3
3
3
3
3
3
3
3
3
POINT_DATA 212
FIELD FieldData 7
DISPLACEMENT 3 212  float
0.0000000e+00 0.0000000e+00 0.0000000e+00 
-1.1889896e-06 0.0000000e+00 -3.6336164e-07 
-2.3287087e-06 0.0000000e+00 -7.2672327e-07 
-3.3698866e-06 0.0000000e+00 -1.0900849e-06 
-4.2632528e-06 0.0000000e+00 -1.4534465e-06 
-4.9595369e-06 0.0000000e+00 -1.8168082e-06 
-5.4094685e-06 0.0000000e+00 -2.1801698e-06 
-5.5637770e-06 0.0000000e+00 -2.5435315e-06 
-5.3731915e-06 0.0000000e+00 -2.9068931e-06 
-4.7884414e-06 0.0000000e+00 -3.2702549e-06 
-3.7602567e-06 0.0000000e+00 -3.6336164e-06 
-2.2393667e-06 0.0000000e+00 -3.9969782e-06 
-1.7650075e-07 0.0000000e+00 -4.3603395e-06 
1.6853862e-06 0.0000000e+00 -4.6631412e-06 
2.6774173e-06 0.0000000e+00 -4.9659425e-06 
2.9599807e-06 0.0000000e+00 -5.2687437e-06 
2.6934640e-06 0.0000000e+00 -5.5715450e-06 
2.0382549e-06 0.0000000e+00 -5.8743467e-06 
1.1547414e-06 0.0000000e+00 -6.1771480e-06 
2.0331144e-07 0.0000000e+00 -6.4799492e-06 
-6.5564728e-07 0.0000000e+00 -6.7827505e-06 
-1.2617469e-06 0.0000000e+00 -7.0855522e-06 
-1.4545996e-06 0.0000000e+00 -7.3883534e-06 
-1.0738174e-06 0.0000000e+00 -7.6911547e-06 
4.0987370e-08 0.0000000e+00 -7.9939564e-06 
1.2011986e-06 0.0000000e+00 -8.2361976e-06 
1.7009977e-06 0.0000000e+00 -8.4784388e-06 
1.6749685e-06 0.0000000e+00 -8.7206790e-06 
1.2576951e-06 0.0000000e+00 -8.9629202e-06 
5.8376128e-07 0.0000000e+00 -9.2051614e-06 
-2.1224895e-07 0.0000000e+00 -9.4474026e-06 
-9.9575163e-07 0.0000000e+00 -9.6896438e-06 
-1.6321628e-06 0.0000000e+00 -9.9318850e-06 
-1.9868985e-06 0.0000000e+00 -1.0174126e-05 
-1.9253748e-06 0.0000000e+00 -1.0416367e-05 
-1.3130078e-06 0.0000000e+00 -1.0658609e-05 
-1.5213546e-08 0.0000000e+00 -1.0900850e-05 
1.2657388e-06 0.0000000e+00 -1.1082530e-05 
1.8339650e-06 0.0000000e+00 -1.1264211e-05 
1.8336269e-06 0.0000000e+00 -1.1445892e-05 
1.4088862e-06 0.0000000e+00 -1.1627572e-05 
7.0390467e-07 0.0000000e+00 -1.1809253e-05 
-1.3715592e-07 0.0000000e+00 -1.1990935e-05 
-9.7013390e-07 0.0000000e+00 -1.2172615e-05 
-1.6508675e-06 0.0000000e+00 -1.2354296e-05 
-2.0351949e-06 0.0000000e+00 -1.2535977e-05 
-1.9789545e-06 0.0000000e+00 -1.2717657e-05 
-1.3379844e-06 0.0000000e+00 -1.2899338e-05 
3.1877036e-08 0.0000000e+00 -1.3081019e-05 
1.4370387e-06 0.0000000e+00 -1.3202140e-05 
2.1705303e-06 0.0000000e+00 -1.3323261e-05 
2.3564453e-06 0.0000000e+00 -1.3444381e-05 
2.1188771e-06 0.0000000e+00 -1.3565501e-05 
1.5819188e-06 0.0000000e+00 -1.3686622e-05 
8.6966389e-07 0.0000000e+00 -1.3807742e-05 
1.0620565e-07 0.0000000e+00 -1.3928863e-05 
-5.8436257e-07 0.0000000e+00 -1.4049983e-05 
-1.0779474e-06 0.0000000e+00 -1.4171104e-05 
-1.2504555e-06 0.0000000e+00 -1.4292224e-05 
-9.7779366e-07 0.0000000e+00 -1.4413346e-05 
-1.3586852e-07 0.0000000e+00 -1.4534466e-05 
5.5365967e-07 0.0000000e+00 -1.4595026e-05 
4.2615508e-07 0.0000000e+00 -1.4655586e-05 
-3.0875188e-07 0.0000000e+00 -1.4716146e-05 
-1.4414310e-06 0.0000000e+00 -1.4776707e-05 
-2.7622518e-06 0.0000000e+00 -1.4837267e-05 
-4.0615841e-06 0.0000000e+00 -1.4897827e-05 
-5.1297975e-06 0.0000000e+00 -1.4958388e-05 
-5.7572615e-06 0.0000000e+00 -1.5018948e-05 
-5.7343459e-06 0.0000000e+00 -1.5079509e-05 
-4.8514207e-06 0.0000000e+00 -1.5140068e-05 
-2.8988554e-06 0.0000000e+00 -1.5200629e-05 
3.3298065e-07 0.0000000e+00 -1.5261188e-05 
-1.4708395e-07 0.0000000e+00 -1.1744692e-05 
3.4156141e-08 0.0000000e+00 -1.3884143e-05 
-1.2677956e-08 0.0000000e+00 -1.7066202e-05 
2.6564196e-08 0.0000000e+00 -1.9424191e-05 
-1.1322377e-07 0.0000000e+00 -1.9751164e-05 
2.7748385e-07 0.0000000e+00 -2.5562504e-05 
-1.1766716e-07 0.0000000e+00 -2.2361572e-05 
2.7324912e-08 0.0000000e+00 -2.3278526e-05 
-1.0142364e-08 0.0000000e+00 -2.6685721e-05 
2.1251356e-08 0.0000000e+00 -2.9189196e-05 
-9.0579015e-08 0.0000000e+00 -2.8594510e-05 
2.2198709e-07 0.0000000e+00 -3.8565988e-05 
-8.8250374e-08 0.0000000e+00 -3.3465898e-05 
2.0493685e-08 0.0000000e+00 -3.3432021e-05 
-7.6067730e-09 0.0000000e+00 -3.7014321e-05 
1.5938518e-08 0.0000000e+00 -3.9630952e-05 
-6.7934259e-08 0.0000000e+00 -3.8319420e-05 
1.6649032e-07 0.0000000e+00 -5.1526564e-05 
-5.8833582e-08 0.0000000e+00 -4.2922606e-05 
1.3662456e-08 0.0000000e+00 -4.2209562e-05 
-5.0711821e-09 0.0000000e+00 -4.5916939e-05 
1.0625678e-08 0.0000000e+00 -4.8614398e-05 
-4.5289507e-08 0.0000000e+00 -4.6790832e-05 
1.1099355e-07 0.0000000e+00 -6.2309162e-05 
-2.9416791e-08 0.0000000e+00 -4.9206647e-05 
6.8312280e-09 0.0000000e+00 -4.8086105e-05 
-2.5355911e-09 0.0000000e+00 -5.1868526e-05 
5.3128391e-09 0.0000000e+00 -5.4614480e-05 
-2.2644754e-08 0.0000000e+00 -5.2483698e-05 
5.5496773e-08 0.0000000e+00 -6.9388741e-05 
-1.9987369e-17 0.0000000e+00 -5.1403000e-05 
-2.9929558e-17 0.0000000e+00 -5.0146624e-05 
-3.2886511e-17 0.0000000e+00 -5.3954060e-05 
-2.8812494e-17 0.0000000e+00 -5.6716181e-05 
-2.1411789e-17 0.0000000e+00 -5.4482989e-05 
-1.4544439e-17 0.0000000e+00 -7.1850271e-05 
2.9416791e-08 0.0000000e+00 -4.9206647e-05 
-6.8312280e-09 0.0000000e+00 -4.8086105e-05 
2.5355911e-09 0.0000000e+00 -5.1868526e-05 
-5.3128391e-09 0.0000000e+00 -5.4614480e-05 
2.2644754e-08 0.0000000e+00 -5.2483698e-05 
-5.5496773e-08 0.0000000e+00 -6.9388741e-05 
5.8833582e-08 0.0000000e+00 -4.2922606e-05 
-1.3662456e-08 0.0000000e+00 -4.2209562e-05 
5.0711821e-09 0.0000000e+00 -4.5916939e-05 
-1.0625678e-08 0.0000000e+00 -4.8614398e-05 
4.5289507e-08 0.0000000e+00 -4.6790832e-05 
-1.1099355e-07 0.0000000e+00 -6.2309162e-05 
8.8250374e-08 0.0000000e+00 -3.3465898e-05 
-2.0493685e-08 0.0000000e+00 -3.3432021e-05 
7.6067730e-09 0.0000000e+00 -3.7014321e-05 
-1.5938518e-08 0.0000000e+00 -3.9630952e-05 
6.7934259e-08 0.0000000e+00 -3.8319420e-05 
-1.6649032e-07 0.0000000e+00 -5.1526564e-05 
1.1766716e-07 0.0000000e+00 -2.2361572e-05 
-2.7324912e-08 0.0000000e+00 -2.3278526e-05 
1.0142364e-08 0.0000000e+00 -2.6685721e-05 
-2.1251356e-08 0.0000000e+00 -2.9189196e-05 
9.0579015e-08 0.0000000e+00 -2.8594510e-05 
-2.2198709e-07 0.0000000e+00 -3.8565988e-05 
1.4708395e-07 0.0000000e+00 -1.1744692e-05 
-3.4156141e-08 0.0000000e+00 -1.3884143e-05 
1.2677955e-08 0.0000000e+00 -1.7066202e-05 
-2.6564196e-08 0.0000000e+00 -1.9424191e-05 
1.1322377e-07 0.0000000e+00 -1.9751164e-05 
-2.7748385e-07 0.0000000e+00 -2.5562504e-05 
0.0000000e+00 0.0000000e+00 0.0000000e+00 
1.1889896e-06 0.0000000e+00 -3.6336164e-07 
2.3287087e-06 0.0000000e+00 -7.2672327e-07 
3.3698866e-06 0.0000000e+00 -1.0900849e-06 
4.2632528e-06 0.0000000e+00 -1.4534465e-06 
4.9595369e-06 0.0000000e+00 -1.8168082e-06 
5.4094685e-06 0.0000000e+00 -2.1801698e-06 
5.5637770e-06 0.0000000e+00 -2.5435315e-06 
5.3731915e-06 0.0000000e+00 -2.9068931e-06 
4.7884414e-06 0.0000000e+00 -3.2702549e-06 
3.7602567e-06 0.0000000e+00 -3.6336164e-06 
2.2393667e-06 0.0000000e+00 -3.9969782e-06 
1.7650075e-07 0.0000000e+00 -4.3603395e-06 
-1.6853862e-06 0.0000000e+00 -4.6631412e-06 
-2.6774173e-06 0.0000000e+00 -4.9659425e-06 
-2.9599807e-06 0.0000000e+00 -5.2687437e-06 
-2.6934640e-06 0.0000000e+00 -5.5715450e-06 
-2.0382549e-06 0.0000000e+00 -5.8743467e-06 
-1.1547414e-06 0.0000000e+00 -6.1771480e-06 
-2.0331144e-07 0.0000000e+00 -6.4799492e-06 
6.5564728e-07 0.0000000e+00 -6.7827505e-06 
1.2617469e-06 0.0000000e+00 -7.0855522e-06 
1.4545996e-06 0.0000000e+00 -7.3883534e-06 
1.0738174e-06 0.0000000e+00 -7.6911547e-06 
-4.0987370e-08 0.0000000e+00 -7.9939564e-06 
-1.2011986e-06 0.0000000e+00 -8.2361976e-06 
-1.7009977e-06 0.0000000e+00 -8.4784388e-06 
-1.6749685e-06 0.0000000e+00 -8.7206790e-06 
-1.2576951e-06 0.0000000e+00 -8.9629202e-06 
-5.8376128e-07 0.0000000e+00 -9.2051614e-06 
2.1224895e-07 0.0000000e+00 -9.4474026e-06 
9.9575163e-07 0.0000000e+00 -9.6896438e-06 
1.6321628e-06 0.0000000e+00 -9.9318850e-06 
1.9868985e-06 0.0000000e+00 -1.0174126e-05 
1.9253748e-06 0.0000000e+00 -1.0416367e-05 
1.3130078e-06 0.0000000e+00 -1.0658609e-05 
1.5213546e-08 0.0000000e+00 -1.0900850e-05 
-1.2657388e-06 0.0000000e+00 -1.1082530e-05 
-1.8339650e-06 0.0000000e+00 -1.1264211e-05 
-1.8336269e-06 0.0000000e+00 -1.1445892e-05 
-1.4088862e-06 0.0000000e+00 -1.1627572e-05 
-7.0390467e-07 0.0000000e+00 -1.1809253e-05 
1.3715592e-07 0.0000000e+00 -1.1990935e-05 
9.7013390e-07 0.0000000e+00 -1.2172615e-05 
1.6508675e-06 0.0000000e+00 -1.2354296e-05 
2.0351949e-06 0.0000000e+00 -1.2535977e-05 
1.9789545e-06 0.0000000e+00 -1.2717657e-05 
1.3379844e-06 0.0000000e+00 -1.2899338e-05 
-3.1877036e-08 0.0000000e+00 -1.3081019e-05 
-1.4370387e-06 0.0000000e+00 -1.3202140e-05 
-2.1705303e-06 0.0000000e+00 -1.3323261e-05 
-2.3564453e-06 0.0000000e+00 -1.3444381e-05 
-2.1188771e-06 0.0000000e+00 -1.3565501e-05 
-1.5819188e-06 0.0000000e+00 -1.3686622e-05 
-8.6966389e-07 0.0000000e+00 -1.3807742e-05 
-1.0620565e-07 0.0000000e+00 -1.3928863e-05 
5.8436257e-07 0.0000000e+00 -1.4049983e-05 
1.0779474e-06 0.0000000e+00 -1.4171104e-05 
1.2504555e-06 0.0000000e+00 -1.4292224e-05 
9.7779366e-07 0.0000000e+00 -1.4413346e-05 
1.3586852e-07 0.0000000e+00 -1.4534466e-05 
-5.5365967e-07 0.0000000e+00 -1.4595026e-05 
-4.2615508e-07 0.0000000e+00 -1.4655586e-05 
3.0875188e-07 0.0000000e+00 -1.4716146e-05 
1.4414310e-06 0.0000000e+00 -1.4776707e-05 
2.7622518e-06 0.0000000e+00 -1.4837267e-05 
4.0615841e-06 0.0000000e+00 -1.4897827e-05 
5.1297975e-06 0.0000000e+00 -1.4958388e-05 
5.7572615e-06 0.0000000e+00 -1.5018948e-05 
5.7343459e-06 0.0000000e+00 -1.5079509e-05 
4.8514207e-06 0.0000000e+00 -1.5140068e-05 
2.8988554e-06 0.0000000e+00 -1.5200629e-05 
-3.3298065e-07 0.0000000e+00 -1.5261188e-05 
ROTATION 3 212  float
0.0000000e+00 -4.7888052e-06 0.0000000e+00 
0.0000000e+00 -4.6902642e-06 0.0000000e+00 
0.0000000e+00 -4.3946411e-06 0.0000000e+00 
0.0000000e+00 -3.9019355e-06 0.0000000e+00 
0.0000000e+00 -3.2121482e-06 0.0000000e+00 
0.0000000e+00 -2.3252783e-06 0.0000000e+00 
0.0000000e+00 -1.2413265e-06 0.0000000e+00 
0.0000000e+00 3.9707494e-08 0.0000000e+00 
0.0000000e+00 1.5178236e-06 0.0000000e+00 
0.0000000e+00 3.1930219e-06 0.0000000e+00 
0.0000000e+00 5.0653025e-06 0.0000000e+00 
0.0000000e+00 7.1346649e-06 0.0000000e+00 
0.0000000e+00 9.4011102e-06 0.0000000e+00 
0.0000000e+00 5.6009112e-06 0.0000000e+00 
0.0000000e+00 2.4422638e-06 0.0000000e+00 
0.0000000e+00 -7.4832244e-08 0.0000000e+00 
0.0000000e+00 -1.9503768e-06 0.0000000e+00 
0.0000000e+00 -3.1843701e-06 0.0000000e+00 
0.0000000e+00 -3.7768120e-06 0.0000000e+00 
0.0000000e+00 -3.7277027e-06 0.0000000e+00 
0.0000000e+00 -3.0370418e-06 0.0000000e+00 
0.0000000e+00 -1.7048297e-06 0.0000000e+00 
0.0000000e+00 2.6893375e-07 0.0000000e+00 
0.0000000e+00 2.8842485e-06 0.0000000e+00 
0.0000000e+00 6.1411147e-06 0.0000000e+00 
0.0000000e+00 3.2302980e-06 0.0000000e+00 
0.0000000e+00 8.5781721e-07 0.0000000e+00 
0.0000000e+00 -9.7632790e-07 0.0000000e+00 
0.0000000e+00 -2.2721372e-06 0.0000000e+00 
0.0000000e+00 -3.0296108e-06 0.0000000e+00 
0.0000000e+00 -3.2487485e-06 0.0000000e+00 
0.0000000e+00 -2.9295504e-06 0.0000000e+00 
0.0000000e+00 -2.0720165e-06 0.0000000e+00 
0.0000000e+00 -6.7614678e-07 0.0000000e+00 
0.0000000e+00 1.2580588e-06 0.0000000e+00 
0.0000000e+00 3.7305999e-06 0.0000000e+00 
0.0000000e+00 6.7414771e-06 0.0000000e+00 
0.0000000e+00 3.6022493e-06 0.0000000e+00 
0.0000000e+00 1.0396684e-06 0.0000000e+00 
0.0000000e+00 -9.4626540e-07 0.0000000e+00 
0.0000000e+00 -2.3555522e-06 0.0000000e+00 
0.0000000e+00 -3.1881921e-06 0.0000000e+00 
0.0000000e+00 -3.4441850e-06 0.0000000e+00 
0.0000000e+00 -3.1235309e-06 0.0000000e+00 
0.0000000e+00 -2.2262300e-06 0.0000000e+00 
0.0000000e+00 -7.5228184e-07 0.0000000e+00 
0.0000000e+00 1.2983132e-06 0.0000000e+00 
0.0000000e+00 3.9255551e-06 0.0000000e+00 
0.0000000e+00 7.1294444e-06 0.0000000e+00 
0.0000000e+00 4.1945777e-06 0.0000000e+00 
0.0000000e+00 1.7560844e-06 0.0000000e+00 
0.0000000e+00 -1.8603544e-07 0.0000000e+00 
0.0000000e+00 -1.6317820e-06 0.0000000e+00 
0.0000000e+00 -2.5811553e-06 0.0000000e+00 
0.0000000e+00 -3.0341550e-06 0.0000000e+00 
0.0000000e+00 -2.9907817e-06 0.0000000e+00 
0.0000000e+00 -2.4510350e-06 0.0000000e+00 
0.0000000e+00 -1.4149149e-06 0.0000000e+00 
0.0000000e+00 1.1757847e-07 0.0000000e+00 
0.0000000e+00 2.1464452e-06 0.0000000e+00 
0.0000000e+00 4.6716850e-06 0.0000000e+00 
0.0000000e+00 9.8429371e-07 0.0000000e+00 
0.0000000e+00 -1.8645766e-06 0.0000000e+00 
0.0000000e+00 -3.8749258e-06 0.0000000e+00 
0.0000000e+00 -5.0467534e-06 0.0000000e+00 
0.0000000e+00 -5.3800595e-06 0.0000000e+00 
0.0000000e+00 -4.8748448e-06 0.0000000e+00 
0.0000000e+00 -3.5311086e-06 0.0000000e+00 
0.0000000e+00 -1.3488510e-06 0.0000000e+00 
0.0000000e+00 1.6719279e-06 0.0000000e+00 
0.0000000e+00 5.5312280e-06 0.0000000e+00 
0.0000000e+00 1.0229050e-05 0.0000000e+00 
0.0000000e+00 1.5765392e-05 0.0000000e+00 
0.0000000e+00 1.9017929e-05 0.0000000e+00 
0.0000000e+00 1.6301266e-05 0.0000000e+00 
0.0000000e+00 1.6801569e-05 0.0000000e+00 
0.0000000e+00 1.7124874e-05 0.0000000e+00 
0.0000000e+00 1.5076742e-05 0.0000000e+00 
0.0000000e+00 2.4321498e-05 0.0000000e+00 
0.0000000e+00 2.2534565e-05 0.0000000e+00 
0.0000000e+00 2.0361234e-05 0.0000000e+00 
0.0000000e+00 2.0761476e-05 0.0000000e+00 
0.0000000e+00 2.1020120e-05 0.0000000e+00 
0.0000000e+00 1.9381614e-05 0.0000000e+00 
0.0000000e+00 2.6777419e-05 0.0000000e+00 
0.0000000e+00 2.1171052e-05 0.0000000e+00 
0.0000000e+00 1.9541054e-05 0.0000000e+00 
0.0000000e+00 1.9841236e-05 0.0000000e+00 
0.0000000e+00 2.0035219e-05 0.0000000e+00 
0.0000000e+00 1.8806340e-05 0.0000000e+00 
0.0000000e+00 2.4353192e-05 0.0000000e+00 
0.0000000e+00 1.6147429e-05 0.0000000e+00 
0.0000000e+00 1.5060765e-05 0.0000000e+00 
0.0000000e+00 1.5260885e-05 0.0000000e+00 
0.0000000e+00 1.5390207e-05 0.0000000e+00 
0.0000000e+00 1.4570955e-05 0.0000000e+00 
0.0000000e+00 1.8268856e-05 0.0000000e+00 
0.0000000e+00 8.6837326e-06 0.0000000e+00 
0.0000000e+00 8.1404005e-06 0.0000000e+00 
0.0000000e+00 8.2404613e-06 0.0000000e+00 
0.0000000e+00 8.3051218e-06 0.0000000e+00 
0.0000000e+00 7.8954954e-06 0.0000000e+00 
0.0000000e+00 9.7444472e-06 0.0000000e+00 
0.0000000e+00 1.5818013e-18 0.0000000e+00 
0.0000000e+00 8.2740374e-19 0.0000000e+00 
0.0000000e+00 -2.1901863e-19 0.0000000e+00 
0.0000000e+00 -1.4601242e-18 0.0000000e+00 
0.0000000e+00 -9.4908077e-19 0.0000000e+00 
0.0000000e+00 -1.6773199e-18 0.0000000e+00 
0.0000000e+00 -8.6837326e-06 0.0000000e+00 
0.0000000e+00 -8.1404005e-06 0.0000000e+00 
0.0000000e+00 -8.2404613e-06 0.0000000e+00 
0.0000000e+00 -8.3051218e-06 0.0000000e+00 
0.0000000e+00 -7.8954954e-06 0.0000000e+00 
0.0000000e+00 -9.7444472e-06 0.0000000e+00 
0.0000000e+00 -1.6147429e-05 0.0000000e+00 
0.0000000e+00 -1.5060765e-05 0.0000000e+00 
0.0000000e+00 -1.5260885e-05 0.0000000e+00 
0.0000000e+00 -1.5390207e-05 0.0000000e+00 
0.0000000e+00 -1.4570955e-05 0.0000000e+00 
0.0000000e+00 -1.8268856e-05 0.0000000e+00 
0.0000000e+00 -2.1171052e-05 0.0000000e+00 
0.0000000e+00 -1.9541054e-05 0.0000000e+00 
0.0000000e+00 -1.9841236e-05 0.0000000e+00 
0.0000000e+00 -2.0035219e-05 0.0000000e+00 
0.0000000e+00 -1.8806340e-05 0.0000000e+00 
0.0000000e+00 -2.4353192e-05 0.0000000e+00 
0.0000000e+00 -2.2534565e-05 0.0000000e+00 
0.0000000e+00 -2.0361234e-05 0.0000000e+00 
0.0000000e+00 -2.0761476e-05 0.0000000e+00 
0.0000000e+00 -2.1020120e-05 0.0000000e+00 
0.0000000e+00 -1.9381614e-05 0.0000000e+00 
0.0000000e+00 -2.6777419e-05 0.0000000e+00 
0.0000000e+00 -1.9017929e-05 0.0000000e+00 
0.0000000e+00 -1.6301266e-05 0.0000000e+00 
0.0000000e+00 -1.6801569e-05 0.0000000e+00 
0.0000000e+00 -1.7124874e-05 0.0000000e+00 
0.0000000e+00 -1.5076742e-05 0.0000000e+00 
0.0000000e+00 -2.4321498e-05 0.0000000e+00 
0.0000000e+00 4.7888052e-06 0.0000000e+00 
0.0000000e+00 4.6902642e-06 0.0000000e+00 
0.0000000e+00 4.3946411e-06 0.0000000e+00 
0.0000000e+00 3.9019355e-06 0.0000000e+00 
0.0000000e+00 3.2121482e-06 0.0000000e+00 
0.0000000e+00 2.3252783e-06 0.0000000e+00 
0.0000000e+00 1.2413265e-06 0.0000000e+00 
0.0000000e+00 -3.9707494e-08 0.0000000e+00 
0.0000000e+00 -1.5178236e-06 0.0000000e+00 
0.0000000e+00 -3.1930219e-06 0.0000000e+00 
0.0000000e+00 -5.0653025e-06 0.0000000e+00 
0.0000000e+00 -7.1346649e-06 0.0000000e+00 
0.0000000e+00 -9.4011102e-06 0.0000000e+00 
0.0000000e+00 -5.6009112e-06 0.0000000e+00 
0.0000000e+00 -2.4422638e-06 0.0000000e+00 
0.0000000e+00 7.4832244e-08 0.0000000e+00 
0.0000000e+00 1.9503768e-06 0.0000000e+00 
0.0000000e+00 3.1843701e-06 0.0000000e+00 
0.0000000e+00 3.7768120e-06 0.0000000e+00 
0.0000000e+00 3.7277027e-06 0.0000000e+00 
0.0000000e+00 3.0370418e-06 0.0000000e+00 
0.0000000e+00 1.7048297e-06 0.0000000e+00 
0.0000000e+00 -2.6893375e-07 0.0000000e+00 
0.0000000e+00 -2.8842485e-06 0.0000000e+00 
0.0000000e+00 -6.1411147e-06 0.0000000e+00 
0.0000000e+00 -3.2302980e-06 0.0000000e+00 
0.0000000e+00 -8.5781721e-07 0.0000000e+00 
0.0000000e+00 9.7632790e-07 0.0000000e+00 
0.0000000e+00 2.2721372e-06 0.0000000e+00 
0.0000000e+00 3.0296108e-06 0.0000000e+00 
0.0000000e+00 3.2487485e-06 0.0000000e+00 
0.0000000e+00 2.9295504e-06 0.0000000e+00 
0.0000000e+00 2.0720165e-06 0.0000000e+00 
0.0000000e+00 6.7614678e-07 0.0000000e+00 
0.0000000e+00 -1.2580588e-06 0.0000000e+00 
0.0000000e+00 -3.7305999e-06 0.0000000e+00 
0.0000000e+00 -6.7414771e-06 0.0000000e+00 
0.0000000e+00 -3.6022493e-06 0.0000000e+00 
0.0000000e+00 -1.0396684e-06 0.0000000e+00 
0.0000000e+00 9.4626540e-07 0.0000000e+00 
0.0000000e+00 2.3555522e-06 0.0000000e+00 
0.0000000e+00 3.1881921e-06 0.0000000e+00 
0.0000000e+00 3.4441850e-06 0.0000000e+00 
0.0000000e+00 3.1235309e-06 0.0000000e+00 
0.0000000e+00 2.2262300e-06 0.0000000e+00 
0.0000000e+00 7.5228184e-07 0.0000000e+00 
0.0000000e+00 -1.2983132e-06 0.0000000e+00 
0.0000000e+00 -3.9255551e-06 0.0000000e+00 
0.0000000e+00 -7.1294444e-06 0.0000000e+00 
0.0000000e+00 -4.1945777e-06 0.0000000e+00 
0.0000000e+00 -1.7560844e-06 0.0000000e+00 
0.0000000e+00 1.8603544e-07 0.0000000e+00 
0.0000000e+00 1.6317820e-06 0.0000000e+00 
0.0000000e+00 2.5811553e-06 0.0000000e+00 
0.0000000e+00 3.0341550e-06 0.0000000e+00 
0.0000000e+00 2.9907817e-06 0.0000000e+00 
0.0000000e+00 2.4510350e-06 0.0000000e+00 
0.0000000e+00 1.4149149e-06 0.0000000e+00 
0.0000000e+00 -1.1757847e-07 0.0000000e+00 
0.0000000e+00 -2.1464452e-06 0.0000000e+00 
0.0000000e+00 -4.6716850e-06 0.0000000e+00 
0.0000000e+00 -9.8429371e-07 0.0000000e+00 
0.0000000e+00 1.8645766e-06 0.0000000e+00 
0.0000000e+00 3.8749258e-06 0.0000000e+00 
0.0000000e+00 5.0467534e-06 0.0000000e+00 