# vtk DataFile Version 4.0
vtk output
ASCII
DATASET UNSTRUCTURED_GRID
POINTS 30 float
0.0000000e+00 0.0000000e+00 0.0000000e+00 
0.0000000e+00 0.0000000e+00 8.0000001e-01 
0.0000000e+00 0.0000000e+00 1.6000000e+00 
0.0000000e+00 0.0000000e+00 2.4000001e+00 
0.0000000e+00 0.0000000e+00 3.2000000e+00 
0.0000000e+00 0.0000000e+00 4.0000000e+00 
0.0000000e+00 0.0000000e+00 4.8000002e+00 
0.0000000e+00 0.0000000e+00 5.5999999e+00 
0.0000000e+00 0.0000000e+00 6.4000001e+00 
0.0000000e+00 0.0000000e+00 7.1999998e+00 
0.0000000e+00 0.0000000e+00 8.0000000e+00 
1.0000000e+01 0.0000000e+00 0.0000000e+00 
1.0000000e+01 0.0000000e+00 8.0000001e-01 
1.0000000e+01 0.0000000e+00 1.6000000e+00 
1.0000000e+01 0.0000000e+00 2.4000001e+00 
1.0000000e+01 0.0000000e+00 3.2000000e+00 
1.0000000e+01 0.0000000e+00 4.0000000e+00 
1.0000000e+01 0.0000000e+00 4.8000002e+00 
1.0000000e+01 0.0000000e+00 5.5999999e+00 
1.0000000e+01 0.0000000e+00 6.4000001e+00 
1.0000000e+01 0.0000000e+00 7.1999998e+00 
1.0000000e+01 0.0000000e+00 8.0000000e+00 
2.0000000e+00 0.0000000e+00 4.0000000e+00 
4.0000000e+00 0.0000000e+00 4.0000000e+00 
6.0000000e+00 0.0000000e+00 4.0000000e+00 
8.0000000e+00 0.0000000e+00 4.0000000e+00 
2.0000000e+00 0.0000000e+00 8.0000000e+00 
4.0000000e+00 0.0000000e+00 8.0000000e+00 
6.0000000e+00 0.0000000e+00 8.0000000e+00 
8.0000000e+00 0.0000000e+00 8.0000000e+00 

CELLS 30 90
2 0 1
2 1 2
2 2 3
2 3 4
2 4 5
2 5 6
2 6 7
2 7 8
2 8 9
2 9 10
2 11 12
2 12 13
2 13 14
2 14 15
2 15 16
2 16 17
2 17 18
2 18 19
2 19 20
2 20 21
2 5 22
2 22 23
2 23 24
2 24 25
2 25 16
2 10 26
2 26 27
2 27 28
2 28 29
2 29 21

CELL_TYPES 30
3
3
3
3
3
3
3
3
3
3
3
3
3
3
3
3
3
3
3
3
3
3
3
3
3
3
3
3
3
3
POINT_DATA 30
FIELD FieldData 7
DISPLACEMENT 3 30  float
0.0000000e+00 0.0000000e+00 0.0000000e+00 
5.3400206e-03 0.0000000e+00 2.6820792e-06 
1.0475000e-02 0.0000000e+00 2.3471093e-06 
1.5160451e-02 0.0000000e+00 5.0038570e-06 
1.9215669e-02 0.0000000e+00 7.6606048e-06 
2.2479596e-02 0.0000000e+00 1.0317352e-05 
2.5296351e-02 0.0000000e+00 9.2636983e-06 
2.7943907e-02 0.0000000e+00 1.1274520e-05 
3.0207945e-02 0.0000000e+00 1.1720999e-05 
3.1952698e-02 0.0000000e+00 9.4671823e-06 
3.3109345e-02 0.0000000e+00 8.7007820e-06 
0.0000000e+00 0.0000000e+00 0.0000000e+00 
5.4103527e-03 0.0000000e+00 -2.5357228e-06 
1.0572812e-02 0.0000000e+00 -3.4312166e-06 
1.5286873e-02 0.0000000e+00 -4.3267105e-06 
1.9338019e-02 0.0000000e+00 -2.1036108e-06 
2.2421611e-02 0.0000000e+00 -1.7587895e-06 
2.4915140e-02 0.0000000e+00 1.9009832e-06 
2.7334573e-02 0.0000000e+00 5.5607561e-06 
2.9586269e-02 0.0000000e+00 7.7001223e-06 
3.1529009e-02 0.0000000e+00 8.5598531e-06 
3.3068370e-02 0.0000000e+00 7.9169304e-06 
2.2470795e-02 0.0000000e+00 -4.0281736e-03 
2.2462076e-02 0.0000000e+00 -3.2092168e-03 
2.2444051e-02 0.0000000e+00 2.9057043e-04 
2.2432612e-02 0.0000000e+00 2.7335226e-03 
3.3103481e-02 0.0000000e+00 -6.7294866e-04 
3.3097614e-02 0.0000000e+00 3.2293543e-04 
3.3085864e-02 0.0000000e+00 1.3545733e-03 
3.3081152e-02 0.0000000e+00 1.6820750e-03 
ROTATION 3 30  float
0.0000000e+00 6.7146653e-03 0.0000000e+00 
0.0000000e+00 6.5957466e-03 0.0000000e+00 
0.0000000e+00 6.1835982e-03 0.0000000e+00 
0.0000000e+00 5.4964740e-03 0.0000000e+00 
0.0000000e+00 4.6080197e-03 0.0000000e+00 
0.0000000e+00 3.5182363e-03 0.0000000e+00 
0.0000000e+00 3.4666928e-03 0.0000000e+00 
0.0000000e+00 3.1061666e-03 0.0000000e+00 
0.0000000e+00 2.5271159e-03 0.0000000e+00 
0.0000000e+00 1.8183348e-03 0.0000000e+00 
0.0000000e+00 1.0797917e-03 0.0000000e+00 
0.0000000e+00 6.8170540e-03 0.0000000e+00 
0.0000000e+00 6.6547152e-03 0.0000000e+00 
0.0000000e+00 6.2121279e-03 0.0000000e+00 
0.0000000e+00 5.5337232e-03 0.0000000e+00 
0.0000000e+00 4.5225113e-03 0.0000000e+00 
0.0000000e+00 3.1315051e-03 0.0000000e+00 
0.0000000e+00 3.0864566e-03 0.0000000e+00 
0.0000000e+00 2.9462692e-03 0.0000000e+00 
0.0000000e+00 2.6451992e-03 0.0000000e+00 
0.0000000e+00 2.2020750e-03 0.0000000e+00 
0.0000000e+00 1.6043779e-03 0.0000000e+00 
0.0000000e+00 6.5850693e-04 0.0000000e+00 
0.0000000e+00 -1.3229629e-03 0.0000000e+00 
0.0000000e+00 -1.8447714e-03 0.0000000e+00 
0.0000000e+00 -2.1205997e-04 0.0000000e+00 
0.0000000e+00 -2.3835046e-04 0.0000000e+00 
0.0000000e+00 -5.9774186e-04 0.0000000e+00 
0.0000000e+00 -4.1196510e-04 0.0000000e+00 
0.0000000e+00 2.0689298e-04 0.0000000e+00 
REACTION 3 30  float
-1.1706062e+04 -0.0000000e+00 -7.0404580e+03 
-1.7826096e-10 -0.0000000e+00 9.0949470e-13 
9.9680619e-10 -0.0000000e+00 -9.0949470e-13 
-1.1641532e-09 -0.0000000e+00 -1.8189894e-12 
-5.8207661e-09 -0.0000000e+00 -3.6379788e-12 
-3.9090082e-09 -0.0000000e+00 2.9103830e-11 
-2.3937901e-09 -0.0000000e+00 -1.7826096e-09 
5.8535079e-09 -0.0000000e+00 -3.6379788e-12 
7.5960997e-09 -0.0000000e+00 -1.9099389e-11 
4.0381565e-10 -0.0000000e+00 3.2741809e-11 
-2.2282620e-09 -0.0000000e+00 -2.0008883e-11 
-1.5980248e+04 -0.0000000e+00 6.6562725e+03 
1.5279511e-10 -0.0000000e+00 4.9112714e-11 
3.4924597e-09 -0.0000000e+00 1.2460077e-10 
-1.8808350e-09 -0.0000000e+00 -1.3915269e-10 
-4.1072781e-09 -0.0000000e+00 -2.5556801e-10 
-1.3853423e-08 -0.0000000e+00 -1.6570993e-09 
1.9790605e-09 -0.0000000e+00 -0.0000000e+00 
2.7430360e-09 -0.0000000e+00 1.8189894e-12 
1.1459633e-09 -0.0000000e+00 -3.2905518e-09 
-2.1373125e-09 -0.0000000e+00 1.8189894e-12 
6.1500032e-09 -0.0000000e+00 -3.5415724e-09 
1.0859367e-09 -0.0000000e+00 2.4101610e-09 
1.2878445e-09 -0.0000000e+00 1.0913936e-10 
-6.3664629e-10 -0.0000000e+00 -6.0754246e-10 
1.0089934e-08 -0.0000000e+00 -1.8189894e-11 
-0.0000000e+00 -0.0000000e+00 4.1836756e-11 
-8.3127816e-09 -0.0000000e+00 -2.5465852e-11 
5.0758899e-09 -0.0000000e+00 7.7625373e-09 
-3.1541276e-09 -0.0000000e+00 -3.6379788e-12 
REACTION_MOMENT 3 30  float
-0.0000000e+00 -0.0000000e+00 -0.0000000e+00 
-0.0000000e+00 2.9103830e-10 -0.0000000e+00 
-0.0000000e+00 2.8521754e-09 -0.0000000e+00 
-0.0000000e+00 -6.4028427e-10 -0.0000000e+00 
-0.0000000e+00 4.7730282e-09 -0.0000000e+00 
-0.0000000e+00 2.8376235e-09 -0.0000000e+00 
-0.0000000e+00 1.6298145e-09 -0.0000000e+00 
-0.0000000e+00 -1.6007107e-09 -0.0000000e+00 
-0.0000000e+00 1.2805685e-09 -0.0000000e+00 
-0.0000000e+00 1.5279511e-09 -0.0000000e+00 
-0.0000000e+00 -1.3606041e-09 -0.0000000e+00 
-0.0000000e+00 1.1641532e-10 -0.0000000e+00 
-0.0000000e+00 -4.0745363e-10 -0.0000000e+00 
-0.0000000e+00 2.3283064e-10 -0.0000000e+00 
-0.0000000e+00 1.1641532e-10 -0.0000000e+00 
-0.0000000e+00 5.2386895e-10 -0.0000000e+00 
-0.0000000e+00 2.3283064e-10 -0.0000000e+00 
-0.0000000e+00 -5.2386895e-10 -0.0000000e+00 
-0.0000000e+00 1.1350494e-09 -0.0000000e+00 
-0.0000000e+00 2.7939677e-09 -0.0000000e+00 
-0.0000000e+00 6.6938810e-10 -0.0000000e+00 
-0.0000000e+00 -4.5110937e-10 -0.0000000e+00 
-0.0000000e+00 6.7666406e-10 -0.0000000e+00 
-0.0000000e+00 1.1641532e-10 -0.0000000e+00 
-0.0000000e+00 -2.2737368e-11 -0.0000000e+00 
-0.0000000e+00 2.9103830e-11 -0.0000000e+00 
-0.0000000e+00 5.4569682e-12 -0.0000000e+00 
-0.0000000e+00 -2.1827873e-11 -0.0000000e+00 
-0.0000000e+00 7.2759576e-12 -0.0000000e+00 
-0.0000000e+00 -0.0000000e+00 -0.0000000e+00 
VOLUME_ACCELERATION 3 30  float
0.0000000e+00 0.0000000e+00 0.0000000e+00 
0.0000000e+00 0.0000000e+00 0.0000000e+00 
0.0000000e+00 0.0000000e+00 0.0000000e+00 
0.0000000e+00 0.0000000e+00 0.0000000e+00 
0.0000000e+00 0.0000000e+00 0.0000000e+00 
0.0000000e+00 0.0000000e+00 0.0000000e+00 
0.0000000e+00 0.0000000e+00 0.0000000e+00 
0.0000000e+00 0.0000000e+00 0.0000000e+00 
0.0000000e+00 0.0000000e+00 0.0000000e+00 
0.0000000e+00 0.0000000e+00 0.0000000e+00 
0.0000000e+00 0.0000000e+00 0.0000000e+00 
0.0000000e+00 0.0000000e+00 0.0000000e+00 
0.0000000e+00 0.0000000e+00 0.0000000e+00 
0.0000000e+00 0.0000000e+00 0.0000000e+00 
0.0000000e+00 0.0000000e+00 0.0000000e+00 
0.0000000e+00 0.0000000e+00 0.0000000e+00 
0.0000000e+00 0.0000000e+00 0.0000000e+00 
0.0000000e+00 0.0000000e+00 0.0000000e+00 
0.0000000e+00 0.0000000e+00 0.0000000e+00 
0.0000000e+00 0.0000000e+00 0.0000000e+00 
0.0000000e+00 0.0000000e+00 0.0000000e+00 
0.0000000e+00 0.0000000e+00 0.0000000e+00 
0.0000000e+00 0.0000000e+00 0.0000000e+00 
0.0000000e+00 0.0000000e+00 0.0000000e+00 
0.0000000e+00 0.0000000e+00 0.0000000e+00 
0.0000000e+00 0.0000000e+00 0.0000000e+00 
0.0000000e+00 0.0000000e+00 0.0000000e+00 
0.0000000e+00 0.0000000e+00 0.0000000e+00 
0.0000000e+00 0.0000000e+00 0.0000000e+00 
0.0000000e+00 0.0000000e+00 0.0000000e+00 
POINT_LOAD 3 30  float
0.0000000e+00 0.0000000e+00 0.0000000e+00 
-5.4526895e+03 0.0000000e+00 7.9197539e+03 
7.2495649e+03 0.0000000e+00 -7.8532583e+03 
0.0000000e+00 0.0000000e+00 0.0000000e+00 
0.0000000e+00 0.0000000e+00 0.0000000e+00 
2.3268552e+03 0.0000000e+00 3.2073870e+03 
3.2285129e+03 0.0000000e+00 -8.0442490e+03 
5.6759067e+03 0.0000000e+00 4.1063989e+03 
3.0647764e+03 0.0000000e+00 7.0882778e+03 
6.7758677e+03 0.0000000e+00 -3.9044688e+03 
4.2348696e+03 0.0000000e+00 -9.5619629e+03 
0.0000000e+00 0.0000000e+00 0.0000000e+00 
4.3735874e+03 0.0000000e+00 -4.3056016e+03 
0.0000000e+00 0.0000000e+00 0.0000000e+00 
-9.5473721e+03 0.0000000e+00 -8.1863076e+03 
4.9220889e+03 0.0000000e+00 4.9304805e+03 
0.0000000e+00 0.0000000e+00 0.0000000e+00 
0.0000000e+00 0.0000000e+00 0.0000000e+00 
-6.4716333e+03 0.0000000e+00 3.9910669e+03 
8.3250518e+03 0.0000000e+00 3.3590435e+03 
-9.5573896e+03 0.0000000e+00 3.9444651e+03 
-1.0352823e+03 0.0000000e+00 4.7909062e+03 
-8.3287064e+01 0.0000000e+00 -7.6775482e+02 
9.7692754e+03 0.0000000e+00 -8.3893223e+03 
-6.9150381e+03 0.0000000e+00 -2.5547041e+03 
-4.6127191e+02 0.0000000e+00 9.5424502e+03 
0.0000000e+00 0.0000000e+00 0.0000000e+00 
6.1805024e+03 0.0000000e+00 6.5139253e+03 
-7.3905718e+03 0.0000000e+00 -4.7485571e+03 
8.4739863e+03 0.0000000e+00 -6.9378412e+02 
POINT_MOMENT 3 30  float
0.0000000e+00 0.0000000e+00 0.0000000e+00 
0.0000000e+00 0.0000000e+00 0.0000000e+00 
0.0000000e+00 0.0000000e+00 0.0000000e+00 
0.0000000e+00 0.0000000e+00 0.0000000e+00 
0.0000000e+00 0.0000000e+00 0.0000000e+00 
0.0000000e+00 0.0000000e+00 0.0000000e+00 
0.0000000e+00 0.0000000e+00 0.0000000e+00 
0.0000000e+00 0.0000000e+00 0.0000000e+00 
0.0000000e+00 0.0000000e+00 0.0000000e+00 
0.0000000e+00 0.0000000e+00 0.0000000e+00 
0.0000000e+00 0.0000000e+00 0.0000000e+00 
0.0000000e+00 0.0000000e+00 0.0000000e+00 
0.0000000e+00 0.0000000e+00 0.0000000e+00 
0.0000000e+00 0.0000000e+00 0.0000000e+00 
0.0000000e+00 0.0000000e+00 0.0000000e+00 
0.0000000e+00 0.0000000e+00 0.0000000e+00 
0.0000000e+00 0.0000000e+00 0.0000000e+00 
0.0000000e+00 0.0000000e+00 0.0000000e+00 
0.0000000e+00 0.0000000e+00 0.0000000e+00 
0.0000000e+00 0.0000000e+00 0.0000000e+00 
0.0000000e+00 0.0000000e+00 0.0000000e+00 
0.0000000e+00 0.0000000e+00 0.0000000e+00 
0.0000000e+00 0.0000000e+00 0.0000000e+00 
0.0000000e+00 0.0000000e+00 0.0000000e+00 
0.0000000e+00 0.0000000e+00 0.0000000e+00 
0.0000000e+00 0.0000000e+00 0.0000000e+00 
0.0000000e+00 0.0000000e+00 0.0000000e+00 
0.0000000e+00 0.0000000e+00 0.0000000e+00 
0.0000000e+00 0.0000000e+00 0.0000000e+00 
0.0000000e+00 0.0000000e+00 0.0000000e+00 
CELL_DATA 30
FIELD FieldData 9
YOUNG_MODULUS 1 30  float
2.1000000e+11
2.1000000e+11
2.1000000e+11
2.1000000e+11
2.1000000e+11
2.1000000e+11
2.1000000e+11
2.1000000e+11
2.1000000e+11
2.1000000e+11
2.1000000e+11
2.1000000e+11
2.1000000e+11
2.1000000e+11
2.1000000e+11
2.1000000e+11
2.1000000e+11
2.1000000e+11
2.1000000e+11
2.1000000e+11
2.1000000e+11
2.1000000e+11
2.1000000e+11
2.1000000e+11
2.1000000e+11
2.1000000e+11
2.1000000e+11
2.1000000e+11
2.1000000e+11
2.1000000e+11
DENSITY 1 30  float
7.8500000e+03
7.8500000e+03
7.8500000e+03
7.8500000e+03
7.8500000e+03
7.8500000e+03
7.8500000e+03
7.8500000e+03
7.8500000e+03
7.8500000e+03
7.8500000e+03
7.8500000e+03
7.8500000e+03
7.8500000e+03
7.8500000e+03
7.8500000e+03
7.8500000e+03
7.8500000e+03
7.8500000e+03
7.8500000e+03
7.8500000e+03
7.8500000e+03
7.8500000e+03
7.8500000e+03
7.8500000e+03
7.8500000e+03
7.8500000e+03
7.8500000e+03
7.8500000e+03
7.8500000e+03
CROSS_AREA 1 30  float
9.9999998e-03
9.9999998e-03
9.9999998e-03
9.9999998e-03
9.9999998e-03
9.9999998e-03
9.9999998e-03
9.9999998e-03
9.9999998e-03
9.9999998e-03
9.9999998e-03
9.9999998e-03
9.9999998e-03
9.9999998e-03
9.9999998e-03
9.9999998e-03
9.9999998e-03
9.9999998e-03
9.9999998e-03
9.9999998e-03
9.9999998e-03
9.9999998e-03
9.9999998e-03
9.9999998e-03
9.9999998e-03
9.9999998e-03
9.9999998e-03
9.9999998e-03
9.9999998e-03
9.9999998e-03
I22 1 30  float
1.5000001e-04
1.5000001e-04
1.5000001e-04
1.5000001e-04
1.5000001e-04
1.5000001e-04
1.5000001e-04
1.5000001e-04
1.5000001e-04
1.5000001e-04
1.5000001e-04
1.5000001e-04
1.5000001e-04
1.5000001e-04
1.5000001e-04
1.5000001e-04
1.5000001e-04
1.5000001e-04
1.5000001e-04
1.5000001e-04
1.5000001e-04
1.5000001e-04
1.5000001e-04
1.5000001e-04
1.5000001e-04
1.5000001e-04
1.5000001e-04
1.5000001e-04
1.5000001e-04
1.5000001e-04
I33 1 30  float
1.5000001e-04
1.5000001e-04
1.5000001e-04
1.5000001e-04
1.5000001e-04
1.5000001e-04
1.5000001e-04
1.5000001e-04
1.5000001e-04
1.5000001e-04
1.5000001e-04
1.5000001e-04
1.5000001e-04
1.5000001e-04
1.5000001e-04
1.5000001e-04
1.5000001e-04
1.5000001e-04
1.5000001e-04
1.5000001e-04
1.5000001e-04
1.5000001e-04
1.5000001e-04
1.5000001e-04
1.5000001e-04
1.5000001e-04
1.5000001e-04
1.5000001e-04
1.5000001e-04
1.5000001e-04
TORSIONAL_INERTIA 1 30  float
3.0000001e-04
3.0000001e-04
3.0000001e-04
3.0000001e-04
3.0000001e-04
3.0000001e-04
3.0000001e-04
3.0000001e-04
3.0000001e-04
3.0000001e-04
3.0000001e-04
3.0000001e-04
3.0000001e-04
3.0000001e-04
3.0000001e-04
3.0000001e-04
3.0000001e-04
3.0000001e-04
3.0000001e-04
3.0000001e-04
3.0000001e-04
3.0000001e-04
3.0000001e-04
3.0000001e-04
3.0000001e-04
3.0000001e-04
3.0000001e-04
3.0000001e-04
3.0000001e-04
3.0000001e-04
POISSON_RATIO 1 30  float
3.0000001e-01
3.0000001e-01
3.0000001e-01
3.0000001e-01
3.0000001e-01
3.0000001e-01
3.0000001e-01
3.0000001e-01
3.0000001e-01
3.0000001e-01
3.0000001e-01
3.0000001e-01
3.0000001e-01
3.0000001e-01
3.0000001e-01
3.0000001e-01
3.0000001e-01
3.0000001e-01
3.0000001e-01
3.0000001e-01
3.0000001e-01
3.0000001e-01
3.0000001e-01
3.0000001e-01
3.0000001e-01
3.0000001e-01
3.0000001e-01
3.0000001e-01
3.0000001e-01
3.0000001e-01
MOMENT 3 30  float
0.0000000e+00 -4.6824248e+03 0.0000000e+00 
0.0000000e+00 -1.6228350e+04 0.0000000e+00 
0.0000000e+00 -2.7055525e+04 0.0000000e+00 
0.0000000e+00 -3.4982875e+04 0.0000000e+00 
0.0000000e+00 -4.2910223e+04 0.0000000e+00 
0.0000000e+00 -2.0295342e+03 0.0000000e+00 
0.0000000e+00 -1.4195712e+04 0.0000000e+00 
0.0000000e+00 -2.2800121e+04 0.0000000e+00 
0.0000000e+00 -2.7908256e+04 0.0000000e+00 
0.0000000e+00 -2.9080135e+04 0.0000000e+00 
0.0000000e+00 -6.3920996e+03 0.0000000e+00 
0.0000000e+00 -1.7426863e+04 0.0000000e+00 
0.0000000e+00 -2.6712191e+04 0.0000000e+00 
0.0000000e+00 -3.9816469e+04 0.0000000e+00 
0.0000000e+00 -5.4770859e+04 0.0000000e+00 
0.0000000e+00 -1.7737872e+03 0.0000000e+00 
0.0000000e+00 -5.5198823e+03 0.0000000e+00 
0.0000000e+00 -1.1854631e+04 0.0000000e+00 
0.0000000e+00 -1.7448012e+04 0.0000000e+00 
0.0000000e+00 -2.3534328e+04 0.0000000e+00 
0.0000000e+00 -4.5040738e+04 0.0000000e+00 
0.0000000e+00 -3.1208150e+04 0.0000000e+00 
0.0000000e+00 -8.2184854e+03 0.0000000e+00 
0.0000000e+00 2.5715207e+04 0.0000000e+00 
0.0000000e+00 5.2661152e+04 0.0000000e+00 
0.0000000e+00 -2.0760738e+04 0.0000000e+00 
0.0000000e+00 -5.6604146e+03 0.0000000e+00 
0.0000000e+00 2.9259841e+03 0.0000000e+00 
0.0000000e+00 9.7470146e+03 0.0000000e+00 
0.0000000e+00 2.2010387e+04 0.0000000e+00 
FORCE 3 30  float
7.0404580e+03 0.0000000e+00 -1.1706062e+04 
-8.7929602e+02 0.0000000e+00 -1.7158752e+04 
6.9739619e+03 0.0000000e+00 -9.9091865e+03 
6.9739619e+03 0.0000000e+00 -9.9091865e+03 
6.9739619e+03 0.0000000e+00 -9.9091865e+03 
-2.7658416e+03 0.0000000e+00 -1.6821979e+04 
5.2784072e+03 0.0000000e+00 -1.3593465e+04 
1.1720084e+03 0.0000000e+00 -7.9175581e+03 
-5.9162695e+03 0.0000000e+00 -4.8527817e+03 
-2.0118009e+03 0.0000000e+00 1.9230856e+03 
-6.6562725e+03 0.0000000e+00 -1.5980248e+04 
-2.3506711e+03 0.0000000e+00 -1.1606661e+04 
-2.3506711e+03 0.0000000e+00 -1.1606661e+04 
5.8356362e+03 0.0000000e+00 -2.1154033e+04 
9.0515601e+02 0.0000000e+00 -1.6231944e+04 
9.6069033e+03 0.0000000e+00 -4.6826191e+03 
9.6069033e+03 0.0000000e+00 -4.6826191e+03 
5.6158364e+03 0.0000000e+00 -1.1154252e+04 
2.2567930e+03 0.0000000e+00 -2.8292007e+03 
-1.6876720e+03 0.0000000e+00 -1.2386590e+04 
-9.2396465e+03 0.0000000e+00 6.5324165e+03 
-9.1563594e+03 0.0000000e+00 7.3001714e+03 
-1.8925635e+04 0.0000000e+00 1.5689494e+04 
-1.2010597e+04 0.0000000e+00 1.8244197e+04 
-1.1549325e+04 0.0000000e+00 8.7017471e+03 
-6.1579556e+03 0.0000000e+00 7.5501621e+03 
-6.1579556e+03 0.0000000e+00 7.5501621e+03 
-1.2338458e+04 0.0000000e+00 1.0362367e+03 
-4.9478862e+03 0.0000000e+00 5.7847939e+03 
-1.3421872e+04 0.0000000e+00 6.4785781e+03 
