# vtk DataFile Version 4.0
vtk output
ASCII
DATASET UNSTRUCTURED_GRID
POINTS 60 float
0.0000000e+00 0.0000000e+00 0.0000000e+00 
0.0000000e+00 2.0000000e+00 0.0000000e+00 
0.0000000e+00 4.0000000e+00 0.0000000e+00 
2.0000000e+00 4.0000000e+00 0.0000000e+00 
2.0000000e+00 2.0000000e+00 0.0000000e+00 
2.0000000e+00 0.0000000e+00 0.0000000e+00 
0.0000000e+00 2.0000000e-01 0.0000000e+00 
0.0000000e+00 4.0000001e-01 0.0000000e+00 
0.0000000e+00 6.0000002e-01 0.0000000e+00 
0.0000000e+00 8.0000001e-01 0.0000000e+00 
0.0000000e+00 1.0000000e+00 0.0000000e+00 
0.0000000e+00 1.2000000e+00 0.0000000e+00 
0.0000000e+00 1.4000000e+00 0.0000000e+00 
0.0000000e+00 1.6000000e+00 0.0000000e+00 
0.0000000e+00 1.8000000e+00 0.0000000e+00 
0.0000000e+00 2.2000000e+00 0.0000000e+00 
0.0000000e+00 2.4000001e+00 0.0000000e+00 
0.0000000e+00 2.5999999e+00 0.0000000e+00 
0.0000000e+00 2.8000000e+00 0.0000000e+00 
0.0000000e+00 3.0000000e+00 0.0000000e+00 
0.0000000e+00 3.2000000e+00 0.0000000e+00 
0.0000000e+00 3.4000001e+00 0.0000000e+00 
0.0000000e+00 3.5999999e+00 0.0000000e+00 
0.0000000e+00 3.8000000e+00 0.0000000e+00 
2.0000000e-01 4.0000000e+00 0.0000000e+00 
4.0000001e-01 4.0000000e+00 0.0000000e+00 
6.0000002e-01 4.0000000e+00 0.0000000e+00 
8.0000001e-01 4.0000000e+00 0.0000000e+00 
1.0000000e+00 4.0000000e+00 0.0000000e+00 
1.2000000e+00 4.0000000e+00 0.0000000e+00 
1.4000000e+00 4.0000000e+00 0.0000000e+00 
1.6000000e+00 4.0000000e+00 0.0000000e+00 
1.8000000e+00 4.0000000e+00 0.0000000e+00 
2.0000000e+00 3.8000000e+00 0.0000000e+00 
2.0000000e+00 3.5999999e+00 0.0000000e+00 
2.0000000e+00 3.4000001e+00 0.0000000e+00 
2.0000000e+00 3.2000000e+00 0.0000000e+00 
2.0000000e+00 3.0000000e+00 0.0000000e+00 
2.0000000e+00 2.8000000e+00 0.0000000e+00 
2.0000000e+00 2.5999999e+00 0.0000000e+00 
2.0000000e+00 2.4000001e+00 0.0000000e+00 
2.0000000e+00 2.2000000e+00 0.0000000e+00 
2.0000000e+00 1.8000000e+00 0.0000000e+00 
2.0000000e+00 1.6000000e+00 0.0000000e+00 
2.0000000e+00 1.4000000e+00 0.0000000e+00 
2.0000000e+00 1.2000000e+00 0.0000000e+00 
2.0000000e+00 1.0000000e+00 0.0000000e+00 
2.0000000e+00 8.0000001e-01 0.0000000e+00 
2.0000000e+00 6.0000002e-01 0.0000000e+00 
2.0000000e+00 4.0000001e-01 0.0000000e+00 
2.0000000e+00 2.0000000e-01 0.0000000e+00 
2.0000000e-01 2.0000000e+00 0.0000000e+00 
4.0000001e-01 2.0000000e+00 0.0000000e+00 
6.0000002e-01 2.0000000e+00 0.0000000e+00 
8.0000001e-01 2.0000000e+00 0.0000000e+00 
1.0000000e+00 2.0000000e+00 0.0000000e+00 
1.2000000e+00 2.0000000e+00 0.0000000e+00 
1.4000000e+00 2.0000000e+00 0.0000000e+00 
1.6000000e+00 2.0000000e+00 0.0000000e+00 
1.8000000e+00 2.0000000e+00 0.0000000e+00 

CELLS 60 180
2 0 6
2 6 7
2 7 8
2 8 9
2 9 10
2 10 11
2 11 12
2 12 13
2 13 14
2 14 1
2 1 15
2 15 16
2 16 17
2 17 18
2 18 19
2 19 20
2 20 21
2 21 22
2 22 23
2 23 2
2 2 24
2 24 25
2 25 26
2 26 27
2 27 28
2 28 29
2 29 30
2 30 31
2 31 32
2 32 3
2 3 33
2 33 34
2 34 35
2 35 36
2 36 37
2 37 38
2 38 39
2 39 40
2 40 41
2 41 4
2 4 42
2 42 43
2 43 44
2 44 45
2 45 46
2 46 47
2 47 48
2 48 49
2 49 50
2 50 5
2 1 51
2 51 52
2 52 53
2 53 54
2 54 55
2 55 56
2 56 57
2 57 58
2 58 59
2 59 4

CELL_TYPES 60
3
3
3
3
3
3
3
3
3
3
3
3
3
3
3
3
3
3
3
3
3
3
3
3
3
3
3
3
3
3
3
3
3
3
3
3
3
3
3
3
3
3
3
3
3
3
3
3
3
3
3
3
3
3
3
3
3
3
3
3
POINT_DATA 60
FIELD FieldData 6
DISPLACEMENT 3 60  float
0.0000000e+00 0.0000000e+00 0.0000000e+00 
-8.4856309e-09 -1.9047619e-07 0.0000000e+00 
1.0371373e-08 -2.8571429e-07 0.0000000e+00 
-1.0371372e-08 -2.8571429e-07 0.0000000e+00 
8.4856318e-09 -1.9047619e-07 0.0000000e+00 
0.0000000e+00 0.0000000e+00 0.0000000e+00 
-4.9784423e-05 -1.9047619e-08 0.0000000e+00 
-9.6551659e-05 -3.8095237e-08 0.0000000e+00 
-1.3728453e-04 -5.7142856e-08 0.0000000e+00 
-1.6896582e-04 -7.6190474e-08 0.0000000e+00 
-1.8857839e-04 -9.5238093e-08 0.0000000e+00 
-1.9310502e-04 -1.1428571e-07 0.0000000e+00 
-1.7952852e-04 -1.3333333e-07 0.0000000e+00 
-1.4483173e-04 -1.5238095e-07 0.0000000e+00 
-8.5997446e-05 -1.7142857e-07 0.0000000e+00 
6.5615233e-05 -2.0000000e-07 0.0000000e+00 
7.2405135e-05 -2.0952380e-07 0.0000000e+00 
3.6955407e-05 -2.1904762e-07 0.0000000e+00 
-2.4139747e-05 -2.2857142e-07 0.0000000e+00 
-9.4286130e-05 -2.3809524e-07 0.0000000e+00 
-1.5688955e-04 -2.4761906e-07 0.0000000e+00 
-1.9535579e-04 -2.5714286e-07 0.0000000e+00 
-1.9309070e-04 -2.6666666e-07 0.0000000e+00 
-1.3350004e-04 -2.7619046e-07 0.0000000e+00 
8.2970990e-09 -2.1011580e-04 0.0000000e+00 
6.2228240e-09 -4.4442809e-04 0.0000000e+00 
4.1485495e-09 -6.4988923e-04 0.0000000e+00 
2.0742750e-09 -7.8840402e-04 0.0000000e+00 
3.3442031e-16 -8.3711534e-04 0.0000000e+00 
-2.0742743e-09 -7.8840402e-04 0.0000000e+00 
-4.1485486e-09 -6.4988923e-04 0.0000000e+00 
-6.2228236e-09 -4.4442809e-04 0.0000000e+00 
-8.2970981e-09 -2.1011580e-04 0.0000000e+00 
1.3350004e-04 -2.7619046e-07 0.0000000e+00 
1.9309070e-04 -2.6666666e-07 0.0000000e+00 
1.9535579e-04 -2.5714286e-07 0.0000000e+00 
1.5688955e-04 -2.4761906e-07 0.0000000e+00 
9.4286130e-05 -2.3809524e-07 0.0000000e+00 
2.4139747e-05 -2.2857142e-07 0.0000000e+00 
-3.6955407e-05 -2.1904762e-07 0.0000000e+00 
-7.2405135e-05 -2.0952380e-07 0.0000000e+00 
-6.5615233e-05 -2.0000000e-07 0.0000000e+00 
8.5997446e-05 -1.7142857e-07 0.0000000e+00 
1.4483173e-04 -1.5238095e-07 0.0000000e+00 
1.7952852e-04 -1.3333333e-07 0.0000000e+00 
1.9310502e-04 -1.1428571e-07 0.0000000e+00 
1.8857839e-04 -9.5238093e-08 0.0000000e+00 
1.6896582e-04 -7.6190474e-08 0.0000000e+00 
1.3728453e-04 -5.7142856e-08 0.0000000e+00 
9.6551659e-05 -3.8095237e-08 0.0000000e+00 
4.9784423e-05 -1.9047619e-08 0.0000000e+00 
-6.7885049e-09 -1.4213387e-04 0.0000000e+00 
-5.0913784e-09 -3.2364539e-04 0.0000000e+00 
-3.3942522e-09 -4.9139175e-04 0.0000000e+00 
-1.6971260e-09 -6.0727762e-04 0.0000000e+00 
3.2992868e-16 -6.4844592e-04 0.0000000e+00 
1.6971267e-09 -6.0727762e-04 0.0000000e+00 
3.3942529e-09 -4.9139175e-04 0.0000000e+00 
5.0913793e-09 -3.2364539e-04 0.0000000e+00 
6.7885053e-09 -1.4213387e-04 0.0000000e+00 
REACTION 3 60  float
3.9264926e+02 1.3494065e+04 0.0000000e+00 
-5.2882566e+04 8.1435488e+03 0.0000000e+00 
-1.1554116e+05 4.6911625e+04 0.0000000e+00 
1.1554116e+05 4.6911625e+04 0.0000000e+00 
5.2882566e+04 8.1435488e+03 0.0000000e+00 
-3.9264926e+02 1.3494065e+04 0.0000000e+00 
2.4390802e-02 7.6469440e+02 0.0000000e+00 
1.4713719e-01 1.3860099e+03 0.0000000e+00 
4.3418118e-01 1.7205680e+03 0.0000000e+00 
8.8664067e-01 1.6249897e+03 0.0000000e+00 
1.4083955e+00 9.5589600e+02 0.0000000e+00 
1.7736746e+00 -4.3009158e+02 0.0000000e+00 
1.5946444e+00 -2.6763521e+03 0.0000000e+00 
2.8899571e-01 -5.9262637e+03 0.0000000e+00 
-2.9524682e+00 -1.0323204e+04 0.0000000e+00 
7.4900436e-01 1.1184112e+04 0.0000000e+00 
-1.5162915e+00 -3.1773137e+03 0.0000000e+00 
1.1344113e+00 -6.4990493e+03 0.0000000e+00 
1.0878835e+00 -3.1181318e+03 0.0000000e+00 
-9.3555886e-01 2.6284016e+03 0.0000000e+00 
-1.2743821e+00 6.4035171e+03 0.0000000e+00 
1.2818440e+00 3.8701775e+03 0.0000000e+00 
1.0011915e-01 -9.3086543e+03 0.0000000e+00 
-2.4688299e+01 -3.7469992e+04 0.0000000e+00 
-2.8544311e+04 4.7258247e+01 0.0000000e+00 
3.3302734e+04 -5.4914703e+01 0.0000000e+00 
6.0445172e+04 -7.8397057e+01 0.0000000e+00 
4.4133730e+04 -3.2440681e+01 0.0000000e+00 
-0.0000000e+00 -1.9770519e+00 0.0000000e+00 
-4.4133730e+04 -3.2440681e+01 0.0000000e+00 
-6.0445172e+04 -7.8397057e+01 0.0000000e+00 
-3.3302734e+04 -5.4914703e+01 0.0000000e+00 
2.8544311e+04 4.7258331e+01 0.0000000e+00 
2.4688297e+01 -3.7469992e+04 0.0000000e+00 
-1.0011768e-01 -9.3086543e+03 0.0000000e+00 
-1.2818450e+00 3.8701775e+03 0.0000000e+00 
1.2743818e+00 6.4035171e+03 0.0000000e+00 
9.3555969e-01 2.6284016e+03 0.0000000e+00 
-1.0878845e+00 -3.1181318e+03 0.0000000e+00 
-1.1344109e+00 -6.4990493e+03 0.0000000e+00 
1.5162915e+00 -3.1773137e+03 0.0000000e+00 
-7.4900395e-01 1.1184112e+04 0.0000000e+00 
2.9524684e+00 -1.0323204e+04 0.0000000e+00 
-2.8899592e-01 -5.9262637e+03 0.0000000e+00 
-1.5946448e+00 -2.6763521e+03 0.0000000e+00 
-1.7736744e+00 -4.3009158e+02 0.0000000e+00 
-1.4083954e+00 9.5589600e+02 0.0000000e+00 
-8.8664043e-01 1.6249897e+03 0.0000000e+00 
-4.3418154e-01 1.7205680e+03 0.0000000e+00 
-1.4713769e-01 1.3860099e+03 0.0000000e+00 
-2.4390241e-02 7.6469440e+02 0.0000000e+00 
-3.3596062e+04 4.1343613e+01 0.0000000e+00 
1.2617776e+04 -1.6790987e+01 0.0000000e+00 
3.8609383e+04 -4.2111053e+01 0.0000000e+00 
3.0802066e+04 -2.0220669e+01 0.0000000e+00 
-0.0000000e+00 -2.5701644e+00 0.0000000e+00 
-3.0802066e+04 -2.0220518e+01 0.0000000e+00 
-3.8609383e+04 -4.2111206e+01 0.0000000e+00 
-1.2617776e+04 -1.6790987e+01 0.0000000e+00 
3.3596062e+04 4.1343613e+01 0.0000000e+00 
ROTATION 3 60  float
0.0000000e+00 0.0000000e+00 2.5143643e-04 
0.0000000e+00 0.0000000e+00 -5.0286012e-04 
0.0000000e+00 0.0000000e+00 -8.8000845e-04 
0.0000000e+00 0.0000000e+00 8.8000845e-04 
0.0000000e+00 0.0000000e+00 5.0286012e-04 
0.0000000e+00 0.0000000e+00 -2.5143643e-04 
0.0000000e+00 0.0000000e+00 2.4389348e-04 
0.0000000e+00 0.0000000e+00 2.2126458e-04 
0.0000000e+00 0.0000000e+00 1.8354974e-04 
0.0000000e+00 0.0000000e+00 1.3074899e-04 
0.0000000e+00 0.0000000e+00 6.2862287e-05 
0.0000000e+00 0.0000000e+00 -2.0110332e-05 
0.0000000e+00 0.0000000e+00 -1.1816889e-04 
0.0000000e+00 0.0000000e+00 -2.3131337e-04 
0.0000000e+00 0.0000000e+00 -3.5954380e-04 
0.0000000e+00 0.0000000e+00 -1.6720555e-04 
0.0000000e+00 0.0000000e+00 8.5478066e-05 
0.0000000e+00 0.0000000e+00 2.5519068e-04 
0.0000000e+00 0.0000000e+00 3.4193235e-04 
0.0000000e+00 0.0000000e+00 3.4570301e-04 
0.0000000e+00 0.0000000e+00 2.6650267e-04 
0.0000000e+00 0.0000000e+00 1.0433138e-04 
0.0000000e+00 0.0000000e+00 -1.4081091e-04 
0.0000000e+00 0.0000000e+00 -4.6892418e-04 
0.0000000e+00 0.0000000e+00 -1.1611496e-03 
0.0000000e+00 0.0000000e+00 -1.1375289e-03 
0.0000000e+00 0.0000000e+00 -8.8533672e-04 
0.0000000e+00 0.0000000e+00 -4.8076359e-04 
0.0000000e+00 0.0000000e+00 -2.5130927e-17 
0.0000000e+00 0.0000000e+00 4.8076359e-04 
0.0000000e+00 0.0000000e+00 8.8533672e-04 
0.0000000e+00 0.0000000e+00 1.1375289e-03 
0.0000000e+00 0.0000000e+00 1.1611496e-03 
0.0000000e+00 0.0000000e+00 4.6892418e-04 
0.0000000e+00 0.0000000e+00 1.4081091e-04 
0.0000000e+00 0.0000000e+00 -1.0433138e-04 
0.0000000e+00 0.0000000e+00 -2.6650267e-04 
0.0000000e+00 0.0000000e+00 -3.4570301e-04 
0.0000000e+00 0.0000000e+00 -3.4193235e-04 
0.0000000e+00 0.0000000e+00 -2.5519068e-04 
0.0000000e+00 0.0000000e+00 -8.5478066e-05 
0.0000000e+00 0.0000000e+00 1.6720555e-04 
0.0000000e+00 0.0000000e+00 3.5954380e-04 
0.0000000e+00 0.0000000e+00 2.3131337e-04 
0.0000000e+00 0.0000000e+00 1.1816889e-04 
0.0000000e+00 0.0000000e+00 2.0110332e-05 
0.0000000e+00 0.0000000e+00 -6.2862287e-05 
0.0000000e+00 0.0000000e+00 -1.3074899e-04 
0.0000000e+00 0.0000000e+00 -1.8354974e-04 
0.0000000e+00 0.0000000e+00 -2.2126458e-04 
0.0000000e+00 0.0000000e+00 -2.4389348e-04 
0.0000000e+00 0.0000000e+00 -8.5943099e-04 
0.0000000e+00 0.0000000e+00 -9.1123988e-04 
0.0000000e+00 0.0000000e+00 -7.3447736e-04 
0.0000000e+00 0.0000000e+00 -4.0533394e-04 
0.0000000e+00 0.0000000e+00 1.0348029e-17 
0.0000000e+00 0.0000000e+00 4.0533394e-04 
0.0000000e+00 0.0000000e+00 7.3447736e-04 
0.0000000e+00 0.0000000e+00 9.1123988e-04 
0.0000000e+00 0.0000000e+00 8.5943099e-04 
REACTION_MOMENT 3 60  float
0.0000000e+00 0.0000000e+00 -1.9419431e-03 
0.0000000e+00 0.0000000e+00 3.4600511e-01 
0.0000000e+00 0.0000000e+00 3.2421887e-01 
0.0000000e+00 0.0000000e+00 -3.2421052e-01 
0.0000000e+00 0.0000000e+00 -3.4600508e-01 
0.0000000e+00 0.0000000e+00 1.9419499e-03 
0.0000000e+00 0.0000000e+00 -4.1352059e-03 
0.0000000e+00 0.0000000e+00 -4.7929403e-03 
0.0000000e+00 0.0000000e+00 -5.5715698e-03 
0.0000000e+00 0.0000000e+00 -6.0060215e-03 
0.0000000e+00 0.0000000e+00 -5.4679671e-03 
0.0000000e+00 0.0000000e+00 -3.1884564e-03 
0.0000000e+00 0.0000000e+00 1.7128626e-03 
0.0000000e+00 0.0000000e+00 1.0192036e-02 
0.0000000e+00 0.0000000e+00 2.3238650e-02 
0.0000000e+00 0.0000000e+00 5.0177161e-02 
0.0000000e+00 0.0000000e+00 -2.0496933e-02 
0.0000000e+00 0.0000000e+00 -1.8053686e-02 
0.0000000e+00 0.0000000e+00 -1.0789658e-03 
0.0000000e+00 0.0000000e+00 -9.7937322e-05 
0.0000000e+00 0.0000000e+00 -1.6446454e-02 
0.0000000e+00 0.0000000e+00 -2.2221990e-02 
0.0000000e+00 0.0000000e+00 3.8685869e-02 
0.0000000e+00 0.0000000e+00 2.4848534e-01 
0.0000000e+00 0.0000000e+00 -4.8770103e-01 
0.0000000e+00 0.0000000e+00 -3.3084750e-01 
0.0000000e+00 0.0000000e+00 1.6052081e-01 
0.0000000e+00 0.0000000e+00 2.9806522e-01 
0.0000000e+00 0.0000000e+00 -1.7280399e-11 
0.0000000e+00 0.0000000e+00 -2.9806522e-01 
0.0000000e+00 0.0000000e+00 -1.6052081e-01 
0.0000000e+00 0.0000000e+00 3.3084750e-01 
0.0000000e+00 0.0000000e+00 4.8770937e-01 
0.0000000e+00 0.0000000e+00 -2.4848539e-01 
0.0000000e+00 0.0000000e+00 -3.8685836e-02 
0.0000000e+00 0.0000000e+00 2.2222081e-02 
0.0000000e+00 0.0000000e+00 1.6446413e-02 
0.0000000e+00 0.0000000e+00 9.7937329e-05 
0.0000000e+00 0.0000000e+00 1.0789449e-03 
0.0000000e+00 0.0000000e+00 1.8053610e-02 
0.0000000e+00 0.0000000e+00 2.0496897e-02 
0.0000000e+00 0.0000000e+00 -5.0177161e-02 
0.0000000e+00 0.0000000e+00 -2.3238616e-02 
0.0000000e+00 0.0000000e+00 -1.0192000e-02 
0.0000000e+00 0.0000000e+00 -1.7128837e-03 
0.0000000e+00 0.0000000e+00 3.1884213e-03 
0.0000000e+00 0.0000000e+00 5.4679671e-03 
0.0000000e+00 0.0000000e+00 6.0060634e-03 
0.0000000e+00 0.0000000e+00 5.5716047e-03 
0.0000000e+00 0.0000000e+00 4.7928914e-03 
0.0000000e+00 0.0000000e+00 4.1351640e-03 
0.0000000e+00 0.0000000e+00 -1.9040343e-01 
0.0000000e+00 0.0000000e+00 -2.5036731e-01 
0.0000000e+00 0.0000000e+00 4.1895106e-02 
0.0000000e+00 0.0000000e+00 1.6589779e-01 
0.0000000e+00 0.0000000e+00 -1.0913936e-11 
0.0000000e+00 0.0000000e+00 -1.6588271e-01 
0.0000000e+00 0.0000000e+00 -4.1880019e-02 
0.0000000e+00 0.0000000e+00 2.5036731e-01 
0.0000000e+00 0.0000000e+00 1.9040343e-01 
FORCE 3 60  float
-1.3493968e+04 3.9600821e+02 0.0000000e+00 
1.8461430e+04 -2.1420935e+03 0.0000000e+00 
7.5093938e+04 -3.4112314e+03 0.0000000e+00 
7.5093938e+04 3.4112314e+03 0.0000000e+00 
1.8461430e+04 2.1420935e+03 0.0000000e+00 
-1.3493968e+04 -3.9600821e+02 0.0000000e+00 
-1.3876317e+04 3.9600803e+02 0.0000000e+00 
-1.4951679e+04 3.9600745e+02 0.0000000e+00 
-1.6504982e+04 3.9600641e+02 0.0000000e+00 
-1.8177781e+04 3.9600479e+02 0.0000000e+00 
-1.9468252e+04 3.9600266e+02 0.0000000e+00 
-1.9731188e+04 3.9600015e+02 0.0000000e+00 
-1.8178004e+04 3.9599786e+02 0.0000000e+00 
-1.3876741e+04 3.9599686e+02 0.0000000e+00 
-5.7520581e+03 3.9599893e+02 0.0000000e+00 
-4.2872451e+03 2.1779817e+03 0.0000000e+00 
-8.2900938e+03 2.1779778e+03 0.0000000e+00 
-3.4515427e+03 2.1779854e+03 0.0000000e+00 
1.3572369e+03 2.1779912e+03 0.0000000e+00 
1.6021105e+03 2.1779917e+03 0.0000000e+00 
-2.9140215e+03 2.1779861e+03 0.0000000e+00 
-8.0512217e+03 2.1779783e+03 0.0000000e+00 
-5.3325171e+03 2.1779802e+03 0.0000000e+00 
1.8056098e+04 2.1780227e+03 0.0000000e+00 
1.2766872e+05 -8.0004883e+03 0.0000000e+00 
1.2528735e+05 -6.0003428e+03 0.0000000e+00 
7.8410297e+04 -4.0001436e+03 0.0000000e+00 
2.6118371e+04 -2.0000300e+03 0.0000000e+00 
4.0505820e+03 -8.1357143e-13 0.0000000e+00 
2.6118371e+04 2.0000300e+03 0.0000000e+00 
7.8410297e+04 4.0001436e+03 0.0000000e+00 
1.2528735e+05 6.0003428e+03 0.0000000e+00 
1.2766872e+05 8.0004883e+03 0.0000000e+00 
1.8056098e+04 -2.1780227e+03 0.0000000e+00 
-5.3325171e+03 -2.1779802e+03 0.0000000e+00 
-8.0512217e+03 -2.1779783e+03 0.0000000e+00 
-2.9140215e+03 -2.1779861e+03 0.0000000e+00 
1.6021105e+03 -2.1779917e+03 0.0000000e+00 
1.3572369e+03 -2.1779912e+03 0.0000000e+00 
-3.4515427e+03 -2.1779854e+03 0.0000000e+00 
-8.2900938e+03 -2.1779778e+03 0.0000000e+00 
-4.2872451e+03 -2.1779817e+03 0.0000000e+00 
-5.7520581e+03 -3.9599893e+02 0.0000000e+00 
-1.3876741e+04 -3.9599686e+02 0.0000000e+00 
-1.8178004e+04 -3.9599786e+02 0.0000000e+00 
-1.9731188e+04 -3.9600015e+02 0.0000000e+00 
-1.9468252e+04 -3.9600266e+02 0.0000000e+00 
-1.8177781e+04 -3.9600479e+02 0.0000000e+00 
-1.6504982e+04 -3.9600641e+02 0.0000000e+00 
-1.4951679e+04 -3.9600745e+02 0.0000000e+00 
-1.3876317e+04 -3.9600803e+02 0.0000000e+00 
7.1468297e+04 -8.0002866e+03 0.0000000e+00 
8.1956352e+04 -6.0002388e+03 0.0000000e+00 
5.6340449e+04 -4.0001101e+03 0.0000000e+00 
2.1632715e+04 -2.0000251e+03 0.0000000e+00 
6.2309111e+03 5.6843419e-13 0.0000000e+00 
2.1632715e+04 2.0000250e+03 0.0000000e+00 
5.6340449e+04 4.0001101e+03 0.0000000e+00 
8.1956352e+04 6.0002388e+03 0.0000000e+00 
7.1468297e+04 8.0002866e+03 0.0000000e+00 
MOMENT 3 60  float
0.0000000e+00 0.0000000e+00 3.1078136e+01 
0.0000000e+00 0.0000000e+00 3.3928333e+02 
0.0000000e+00 0.0000000e+00 1.9377452e+03 
0.0000000e+00 0.0000000e+00 1.9377452e+03 
0.0000000e+00 0.0000000e+00 3.3928333e+02 
0.0000000e+00 0.0000000e+00 3.1078136e+01 
0.0000000e+00 0.0000000e+00 7.9197609e+01 
0.0000000e+00 0.0000000e+00 1.5839470e+02 
0.0000000e+00 0.0000000e+00 2.3759090e+02 
0.0000000e+00 0.0000000e+00 3.1678622e+02 
0.0000000e+00 0.0000000e+00 3.9598123e+02 
0.0000000e+00 0.0000000e+00 4.7517719e+02 
0.0000000e+00 0.0000000e+00 5.5437622e+02 
0.0000000e+00 0.0000000e+00 6.3358160e+02 
0.0000000e+00 0.0000000e+00 7.1279785e+02 
0.0000000e+00 0.0000000e+00 -1.5443705e+03 
0.0000000e+00 0.0000000e+00 -1.1087600e+03 
0.0000000e+00 0.0000000e+00 -6.7318292e+02 
0.0000000e+00 0.0000000e+00 -2.3759479e+02 
0.0000000e+00 0.0000000e+00 1.9800298e+02 
0.0000000e+00 0.0000000e+00 6.3359253e+02 
0.0000000e+00 0.0000000e+00 1.0691697e+03 
0.0000000e+00 0.0000000e+00 1.5047734e+03 
0.0000000e+00 0.0000000e+00 1.9405167e+03 
0.0000000e+00 0.0000000e+00 6.5471124e+02 
0.0000000e+00 0.0000000e+00 -7.4578369e+02 
0.0000000e+00 0.0000000e+00 -1.7459175e+03 
0.0000000e+00 0.0000000e+00 -2.3457043e+03 
0.0000000e+00 0.0000000e+00 -2.5455579e+03 
0.0000000e+00 0.0000000e+00 -2.3457043e+03 
0.0000000e+00 0.0000000e+00 -1.7459175e+03 
0.0000000e+00 0.0000000e+00 -7.4578369e+02 
0.0000000e+00 0.0000000e+00 6.5471124e+02 
0.0000000e+00 0.0000000e+00 1.9405167e+03 
0.0000000e+00 0.0000000e+00 1.5047734e+03 
0.0000000e+00 0.0000000e+00 1.0691697e+03 
0.0000000e+00 0.0000000e+00 6.3359253e+02 
0.0000000e+00 0.0000000e+00 1.9800298e+02 
0.0000000e+00 0.0000000e+00 -2.3759479e+02 
0.0000000e+00 0.0000000e+00 -6.7318292e+02 
0.0000000e+00 0.0000000e+00 -1.1087600e+03 
0.0000000e+00 0.0000000e+00 -1.5443705e+03 
0.0000000e+00 0.0000000e+00 7.1279785e+02 
0.0000000e+00 0.0000000e+00 6.3358160e+02 
0.0000000e+00 0.0000000e+00 5.5437622e+02 
0.0000000e+00 0.0000000e+00 4.7517719e+02 
0.0000000e+00 0.0000000e+00 3.9598123e+02 
0.0000000e+00 0.0000000e+00 3.1678622e+02 
0.0000000e+00 0.0000000e+00 2.3759090e+02 
0.0000000e+00 0.0000000e+00 1.5839470e+02 
0.0000000e+00 0.0000000e+00 7.9197609e+01 
0.0000000e+00 0.0000000e+00 1.0506809e+03 
0.0000000e+00 0.0000000e+00 -3.4959436e+02 
0.0000000e+00 0.0000000e+00 -1.3497338e+03 
0.0000000e+00 0.0000000e+00 -1.9496427e+03 
0.0000000e+00 0.0000000e+00 -2.1495618e+03 
0.0000000e+00 0.0000000e+00 -1.9496427e+03 
0.0000000e+00 0.0000000e+00 -1.3497338e+03 
0.0000000e+00 0.0000000e+00 -3.4959436e+02 
0.0000000e+00 0.0000000e+00 1.0506809e+03 
CELL_DATA 60
FIELD FieldData 2
FORCE 3 60  float
-1.3493968e+04 3.9600821e+02 0.0000000e+00 
-1.4258668e+04 3.9600784e+02 0.0000000e+00 
-1.5644689e+04 3.9600705e+02 0.0000000e+00 
-1.7365275e+04 3.9600574e+02 0.0000000e+00 
-1.8990289e+04 3.9600385e+02 0.0000000e+00 
-1.9946215e+04 3.9600143e+02 0.0000000e+00 
-1.9516158e+04 3.9599887e+02 0.0000000e+00 
-1.6839850e+04 3.9599689e+02 0.0000000e+00 
-1.0913633e+04 3.9599686e+02 0.0000000e+00 
-5.9048285e+02 3.9600101e+02 0.0000000e+00 
1.3044906e+03 2.1779888e+03 0.0000000e+00 
-9.8789805e+03 2.1779744e+03 0.0000000e+00 
-6.7012070e+03 2.1779812e+03 0.0000000e+00 
-2.0187834e+02 2.1779895e+03 0.0000000e+00 
2.9163523e+03 2.1779929e+03 0.0000000e+00 
2.8786850e+02 2.1779902e+03 0.0000000e+00 
-6.1159116e+03 2.1779822e+03 0.0000000e+00 
-9.9865322e+03 2.1779746e+03 0.0000000e+00 
-6.7850232e+02 2.1779856e+03 0.0000000e+00 
3.6790695e+04 2.1780596e+03 0.0000000e+00 
1.1339717e+05 -9.0005205e+03 0.0000000e+00 
1.4194028e+05 -7.0004565e+03 0.0000000e+00 
1.0863444e+05 -5.0002290e+03 0.0000000e+00 
4.8186156e+04 -3.0000576e+03 0.0000000e+00 
4.0505820e+03 -1.0000020e+03 0.0000000e+00 
4.0505820e+03 1.0000020e+03 0.0000000e+00 
4.8186156e+04 3.0000576e+03 0.0000000e+00 
1.0863444e+05 5.0002290e+03 0.0000000e+00 
1.4194028e+05 7.0004565e+03 0.0000000e+00 
1.1339717e+05 9.0005205e+03 0.0000000e+00 
3.6790695e+04 -2.1780596e+03 0.0000000e+00 
-6.7850232e+02 -2.1779856e+03 0.0000000e+00 
-9.9865322e+03 -2.1779746e+03 0.0000000e+00 
-6.1159116e+03 -2.1779822e+03 0.0000000e+00 
2.8786850e+02 -2.1779902e+03 0.0000000e+00 
2.9163523e+03 -2.1779929e+03 0.0000000e+00 
-2.0187834e+02 -2.1779895e+03 0.0000000e+00 
-6.7012070e+03 -2.1779812e+03 0.0000000e+00 
-9.8789805e+03 -2.1779744e+03 0.0000000e+00 
1.3044906e+03 -2.1779888e+03 0.0000000e+00 
-5.9048285e+02 -3.9600101e+02 0.0000000e+00 
-1.0913633e+04 -3.9599686e+02 0.0000000e+00 
-1.6839850e+04 -3.9599689e+02 0.0000000e+00 
-1.9516158e+04 -3.9599887e+02 0.0000000e+00 
-1.9946215e+04 -3.9600143e+02 0.0000000e+00 
-1.8990289e+04 -3.9600385e+02 0.0000000e+00 
-1.7365275e+04 -3.9600574e+02 0.0000000e+00 
-1.5644689e+04 -3.9600705e+02 0.0000000e+00 
-1.4258668e+04 -3.9600784e+02 0.0000000e+00 
-1.3493968e+04 -3.9600821e+02 0.0000000e+00 
5.4670273e+04 -9.0002686e+03 0.0000000e+00 
8.8266320e+04 -7.0003057e+03 0.0000000e+00 
7.5646375e+04 -5.0001724e+03 0.0000000e+00 
3.7034516e+04 -3.0000476e+03 0.0000000e+00 
6.2309111e+03 -1.0000026e+03 0.0000000e+00 
6.2309111e+03 1.0000026e+03 0.0000000e+00 
3.7034516e+04 3.0000474e+03 0.0000000e+00 
7.5646375e+04 5.0001724e+03 0.0000000e+00 
8.8266320e+04 7.0003057e+03 0.0000000e+00 
5.4670273e+04 9.0002686e+03 0.0000000e+00 
MOMENT 3 60  float
0.0000000e+00 0.0000000e+00 3.9598877e+01 
0.0000000e+00 0.0000000e+00 1.1879634e+02 
0.0000000e+00 0.0000000e+00 1.9799303e+02 
0.0000000e+00 0.0000000e+00 2.7718872e+02 
0.0000000e+00 0.0000000e+00 3.5638367e+02 
0.0000000e+00 0.0000000e+00 4.3557874e+02 
0.0000000e+00 0.0000000e+00 5.1477557e+02 
0.0000000e+00 0.0000000e+00 5.9397687e+02 
0.0000000e+00 0.0000000e+00 6.7318640e+02 
0.0000000e+00 0.0000000e+00 7.5240942e+02 
0.0000000e+00 0.0000000e+00 -1.7621938e+03 
0.0000000e+00 0.0000000e+00 -1.3265474e+03 
0.0000000e+00 0.0000000e+00 -8.9097235e+02 
0.0000000e+00 0.0000000e+00 -4.5539334e+02 
0.0000000e+00 0.0000000e+00 -1.9796162e+01 
0.0000000e+00 0.0000000e+00 4.1580206e+02 
0.0000000e+00 0.0000000e+00 8.5138281e+02 
0.0000000e+00 0.0000000e+00 1.2869563e+03 
0.0000000e+00 0.0000000e+00 1.7225909e+03 
0.0000000e+00 0.0000000e+00 2.1584441e+03 
0.0000000e+00 0.0000000e+00 1.4765217e+03 
0.0000000e+00 0.0000000e+00 -1.2406464e+02 
0.0000000e+00 0.0000000e+00 -1.3244647e+03 
0.0000000e+00 0.0000000e+00 -2.1243333e+03 
0.0000000e+00 0.0000000e+00 -2.5240413e+03 
0.0000000e+00 0.0000000e+00 -2.5240413e+03 
0.0000000e+00 0.0000000e+00 -2.1243333e+03 
0.0000000e+00 0.0000000e+00 -1.3244647e+03 
0.0000000e+00 0.0000000e+00 -1.2406464e+02 
0.0000000e+00 0.0000000e+00 1.4765217e+03 
0.0000000e+00 0.0000000e+00 2.1584441e+03 
0.0000000e+00 0.0000000e+00 1.7225909e+03 
0.0000000e+00 0.0000000e+00 1.2869563e+03 
0.0000000e+00 0.0000000e+00 8.5138281e+02 
0.0000000e+00 0.0000000e+00 4.1580206e+02 
0.0000000e+00 0.0000000e+00 -1.9796162e+01 
0.0000000e+00 0.0000000e+00 -4.5539334e+02 
0.0000000e+00 0.0000000e+00 -8.9097235e+02 
0.0000000e+00 0.0000000e+00 -1.3265474e+03 
0.0000000e+00 0.0000000e+00 -1.7621938e+03 
0.0000000e+00 0.0000000e+00 7.5240942e+02 
0.0000000e+00 0.0000000e+00 6.7318640e+02 
0.0000000e+00 0.0000000e+00 5.9397687e+02 
0.0000000e+00 0.0000000e+00 5.1477557e+02 
0.0000000e+00 0.0000000e+00 4.3557874e+02 
0.0000000e+00 0.0000000e+00 3.5638367e+02 
0.0000000e+00 0.0000000e+00 2.7718872e+02 
0.0000000e+00 0.0000000e+00 1.9799303e+02 
0.0000000e+00 0.0000000e+00 1.1879634e+02 
0.0000000e+00 0.0000000e+00 3.9598877e+01 
0.0000000e+00 0.0000000e+00 1.8723213e+03 
0.0000000e+00 0.0000000e+00 2.7207297e+02 
0.0000000e+00 0.0000000e+00 -9.2822565e+02 
0.0000000e+00 0.0000000e+00 -1.7282061e+03 
0.0000000e+00 0.0000000e+00 -2.1280452e+03 
0.0000000e+00 0.0000000e+00 -2.1280452e+03 
0.0000000e+00 0.0000000e+00 -1.7282061e+03 
0.0000000e+00 0.0000000e+00 -9.2822565e+02 
0.0000000e+00 0.0000000e+00 2.7207297e+02 
0.0000000e+00 0.0000000e+00 1.8723213e+03 
