# vtk DataFile Version 4.0
vtk output
ASCII
DATASET UNSTRUCTURED_GRID
POINTS 30 float
0.0000000e+00 0.0000000e+00 0.0000000e+00 
0.0000000e+00 0.0000000e+00 8.0000001e-01 
0.0000000e+00 0.0000000e+00 1.6000000e+00 
0.0000000e+00 0.0000000e+00 2.4000001e+00 
0.0000000e+00 0.0000000e+00 3.2000000e+00 
0.0000000e+00 0.0000000e+00 4.0000000e+00 
0.0000000e+00 0.0000000e+00 4.8000002e+00 
0.0000000e+00 0.0000000e+00 5.5999999e+00 
0.0000000e+00 0.0000000e+00 6.4000001e+00 
0.0000000e+00 0.0000000e+00 7.1999998e+00 
0.0000000e+00 0.0000000e+00 8.0000000e+00 
1.0000000e+01 0.0000000e+00 0.0000000e+00 
1.0000000e+01 0.0000000e+00 8.0000001e-01 
1.0000000e+01 0.0000000e+00 1.6000000e+00 
1.0000000e+01 0.0000000e+00 2.4000001e+00 
1.0000000e+01 0.0000000e+00 3.2000000e+00 
1.0000000e+01 0.0000000e+00 4.0000000e+00 
1.0000000e+01 0.0000000e+00 4.8000002e+00 
1.0000000e+01 0.0000000e+00 5.5999999e+00 
1.0000000e+01 0.0000000e+00 6.4000001e+00 
1.0000000e+01 0.0000000e+00 7.1999998e+00 
1.0000000e+01 0.0000000e+00 8.0000000e+00 
2.0000000e+00 0.0000000e+00 4.0000000e+00 
4.0000000e+00 0.0000000e+00 4.0000000e+00 
6.0000000e+00 0.0000000e+00 4.0000000e+00 
8.0000000e+00 0.0000000e+00 4.0000000e+00 
2.0000000e+00 0.0000000e+00 8.0000000e+00 
4.0000000e+00 0.0000000e+00 8.0000000e+00 
6.0000000e+00 0.0000000e+00 8.0000000e+00 
8.0000000e+00 0.0000000e+00 8.0000000e+00 

CELLS 30 90
2 0 1
2 1 2
2 2 3
2 3 4
2 4 5
2 5 6
2 6 7
2 7 8
2 8 9
2 9 10
2 11 12
2 12 13
2 13 14
2 14 15
2 15 16
2 16 17
2 17 18
2 18 19
2 19 20
2 20 21
2 5 22
2 22 23
2 23 24
2 24 25
2 25 16
2 10 26
2 26 27
2 27 28
2 28 29
2 29 21

CELL_TYPES 30
3
3
3
3
3
3
3
3
3
3
3
3
3
3
3
3
3
3
3
3
3
3
3
3
3
3
3
3
3
3
POINT_DATA 30
FIELD FieldData 7
DISPLACEMENT 3 30  float
0.0000000e+00 0.0000000e+00 0.0000000e+00 
1.3956403e-02 0.0000000e+00 1.2332372e-05 
2.7211579e-02 0.0000000e+00 2.4664743e-05 
3.9090484e-02 0.0000000e+00 4.0450177e-05 
4.9037732e-02 0.0000000e+00 5.7169204e-05 
5.6600500e-02 0.0000000e+00 7.6518190e-05 
6.2881894e-02 0.0000000e+00 8.4902305e-05 
6.8913385e-02 0.0000000e+00 9.3603383e-05 
7.4282698e-02 0.0000000e+00 1.0200887e-04 
7.8684032e-02 0.0000000e+00 1.0984611e-04 
8.1880689e-02 0.0000000e+00 1.1768335e-04 
0.0000000e+00 0.0000000e+00 0.0000000e+00 
1.3486546e-02 0.0000000e+00 -7.8453166e-07 
2.6458984e-02 0.0000000e+00 -1.5690633e-06 
3.8386516e-02 0.0000000e+00 9.5611165e-07 
4.8647881e-02 0.0000000e+00 6.1779602e-08 
5.6515556e-02 0.0000000e+00 -4.1367416e-06 
6.2803939e-02 0.0000000e+00 8.4536475e-07 
6.8657048e-02 0.0000000e+00 5.8274709e-06 
7.3860429e-02 0.0000000e+00 7.3568362e-06 
7.8295037e-02 0.0000000e+00 8.8862016e-06 
8.1853829e-02 0.0000000e+00 1.0345527e-05 
5.6591354e-02 0.0000000e+00 -7.3784450e-03 
5.6574933e-02 0.0000000e+00 -3.4552154e-03 
5.6558508e-02 0.0000000e+00 4.2391028e-03 
5.6541305e-02 0.0000000e+00 7.9654604e-03 
8.1885532e-02 0.0000000e+00 -2.3587763e-03 
8.1886023e-02 0.0000000e+00 2.2916129e-04 
8.1882745e-02 0.0000000e+00 3.8915346e-03 
8.1872322e-02 0.0000000e+00 4.6161194e-03 
ROTATION 3 30  float
0.0000000e+00 1.7591592e-02 0.0000000e+00 
0.0000000e+00 1.7153326e-02 0.0000000e+00 
0.0000000e+00 1.5838524e-02 0.0000000e+00 
0.0000000e+00 1.3745393e-02 0.0000000e+00 
0.0000000e+00 1.1027988e-02 0.0000000e+00 
0.0000000e+00 7.8052087e-03 0.0000000e+00 
0.0000000e+00 7.7920402e-03 0.0000000e+00 
0.0000000e+00 7.1999570e-03 0.0000000e+00 
0.0000000e+00 6.1611212e-03 0.0000000e+00 
0.0000000e+00 4.7954870e-03 0.0000000e+00 
0.0000000e+00 3.1493974e-03 0.0000000e+00 
0.0000000e+00 1.6965289e-02 0.0000000e+00 
0.0000000e+00 1.6643971e-02 0.0000000e+00 
0.0000000e+00 1.5680017e-02 0.0000000e+00 
0.0000000e+00 1.4010848e-02 0.0000000e+00 
0.0000000e+00 1.1484949e-02 0.0000000e+00 
0.0000000e+00 8.0332449e-03 0.0000000e+00 
0.0000000e+00 7.6380749e-03 0.0000000e+00 
0.0000000e+00 6.9450452e-03 0.0000000e+00 
0.0000000e+00 6.0435818e-03 0.0000000e+00 
0.0000000e+00 5.0231111e-03 0.0000000e+00 
0.0000000e+00 3.8392327e-03 0.0000000e+00 
0.0000000e+00 2.5891431e-04 0.0000000e+00 
0.0000000e+00 -3.5432656e-03 0.0000000e+00 
0.0000000e+00 -3.5121739e-03 0.0000000e+00 
0.0000000e+00 4.6094699e-04 0.0000000e+00 
0.0000000e+00 -3.5120914e-04 0.0000000e+00 
0.0000000e+00 -1.9117779e-03 0.0000000e+00 
0.0000000e+00 -1.3771459e-03 0.0000000e+00 
0.0000000e+00 8.3992421e-04 0.0000000e+00 
REACTION 3 30  float
-4.3141941e+04 -0.0000000e+00 -3.2372475e+04 
9.3132257e-10 -0.0000000e+00 -0.0000000e+00 
-8.8330125e-09 -0.0000000e+00 1.4551915e-11 
-4.4601620e-09 -0.0000000e+00 7.2759576e-12 
-4.9694791e-09 -0.0000000e+00 -2.9103830e-11 
-9.7788870e-09 -0.0000000e+00 -2.9467628e-09 
-2.8485374e-09 -0.0000000e+00 -1.6261765e-09 
2.3537723e-09 -0.0000000e+00 2.1827873e-10 
3.3915057e-08 -0.0000000e+00 -1.0186341e-10 
6.9849193e-10 -0.0000000e+00 -0.0000000e+00 
-1.7163984e-08 -0.0000000e+00 2.1827873e-11 
-3.1629721e+04 -0.0000000e+00 2.0593958e+03 
1.8626451e-09 -0.0000000e+00 -1.1823431e-11 
1.2732926e-08 -0.0000000e+00 1.9463187e-10 
-1.0390067e-08 -0.0000000e+00 3.5197445e-10 
-1.1277734e-08 -0.0000000e+00 -8.7311491e-11 
-2.0845619e-08 -0.0000000e+00 -3.7252903e-09 
-6.7520887e-09 -0.0000000e+00 -0.0000000e+00 
-3.1723175e-09 -0.0000000e+00 -1.8189894e-12 
7.9162419e-09 -0.0000000e+00 -4.4583430e-09 
6.6283974e-09 -0.0000000e+00 -0.0000000e+00 
6.6283974e-09 -0.0000000e+00 7.7379809e-09 
-1.7826096e-10 -0.0000000e+00 5.4060365e-09 
1.4901161e-08 -0.0000000e+00 5.5297278e-10 
2.3719622e-09 -0.0000000e+00 -8.6147338e-09 
7.1086106e-09 -0.0000000e+00 -2.1100277e-10 
1.8753781e-09 -0.0000000e+00 -8.7311491e-11 
1.0906660e-08 -0.0000000e+00 3.2741809e-11 
-3.3700417e-08 -0.0000000e+00 -6.6593202e-09 
1.8178980e-08 -0.0000000e+00 8.0035534e-11 
REACTION_MOMENT 3 30  float
-0.0000000e+00 2.5611371e-09 -0.0000000e+00 
-0.0000000e+00 1.8626451e-09 -0.0000000e+00 
-0.0000000e+00 2.0954758e-09 -0.0000000e+00 
-0.0000000e+00 -7.9162419e-09 -0.0000000e+00 
-0.0000000e+00 1.4551915e-08 -0.0000000e+00 
-0.0000000e+00 2.2700988e-09 -0.0000000e+00 
-0.0000000e+00 -2.5611371e-09 -0.0000000e+00 
-0.0000000e+00 -6.9849193e-09 -0.0000000e+00 
-0.0000000e+00 1.5890691e-08 -0.0000000e+00 
-0.0000000e+00 5.2968971e-09 -0.0000000e+00 
-0.0000000e+00 -1.9208528e-09 -0.0000000e+00 
-0.0000000e+00 6.9849193e-10 -0.0000000e+00 
-0.0000000e+00 -0.0000000e+00 -0.0000000e+00 
-0.0000000e+00 4.6566129e-10 -0.0000000e+00 
-0.0000000e+00 -3.4924597e-10 -0.0000000e+00 
-0.0000000e+00 -3.0267984e-09 -0.0000000e+00 
-0.0000000e+00 3.4924597e-10 -0.0000000e+00 
-0.0000000e+00 1.2805685e-09 -0.0000000e+00 
-0.0000000e+00 -5.1804818e-09 -0.0000000e+00 
-0.0000000e+00 1.9790605e-09 -0.0000000e+00 
-0.0000000e+00 8.3236955e-09 -0.0000000e+00 
-0.0000000e+00 -5.8207661e-11 -0.0000000e+00 
-0.0000000e+00 2.6775524e-09 -0.0000000e+00 
-0.0000000e+00 -3.9290171e-10 -0.0000000e+00 
-0.0000000e+00 -8.8766683e-10 -0.0000000e+00 
-0.0000000e+00 -4.0745363e-10 -0.0000000e+00 
-0.0000000e+00 7.2759576e-12 -0.0000000e+00 
-0.0000000e+00 -7.2759576e-12 -0.0000000e+00 
-0.0000000e+00 -0.0000000e+00 -0.0000000e+00 
-0.0000000e+00 1.4551915e-11 -0.0000000e+00 
VOLUME_ACCELERATION 3 30  float
0.0000000e+00 0.0000000e+00 0.0000000e+00 
0.0000000e+00 0.0000000e+00 0.0000000e+00 
0.0000000e+00 0.0000000e+00 0.0000000e+00 
0.0000000e+00 0.0000000e+00 0.0000000e+00 
0.0000000e+00 0.0000000e+00 0.0000000e+00 
0.0000000e+00 0.0000000e+00 0.0000000e+00 
0.0000000e+00 0.0000000e+00 0.0000000e+00 
0.0000000e+00 0.0000000e+00 0.0000000e+00 
0.0000000e+00 0.0000000e+00 0.0000000e+00 
0.0000000e+00 0.0000000e+00 0.0000000e+00 
0.0000000e+00 0.0000000e+00 0.0000000e+00 
0.0000000e+00 0.0000000e+00 0.0000000e+00 
0.0000000e+00 0.0000000e+00 0.0000000e+00 
0.0000000e+00 0.0000000e+00 0.0000000e+00 
0.0000000e+00 0.0000000e+00 0.0000000e+00 
0.0000000e+00 0.0000000e+00 0.0000000e+00 
0.0000000e+00 0.0000000e+00 0.0000000e+00 
0.0000000e+00 0.0000000e+00 0.0000000e+00 
0.0000000e+00 0.0000000e+00 0.0000000e+00 
0.0000000e+00 0.0000000e+00 0.0000000e+00 
0.0000000e+00 0.0000000e+00 0.0000000e+00 
0.0000000e+00 0.0000000e+00 0.0000000e+00 
0.0000000e+00 0.0000000e+00 0.0000000e+00 
0.0000000e+00 0.0000000e+00 0.0000000e+00 
0.0000000e+00 0.0000000e+00 0.0000000e+00 
0.0000000e+00 0.0000000e+00 0.0000000e+00 
0.0000000e+00 0.0000000e+00 0.0000000e+00 
0.0000000e+00 0.0000000e+00 0.0000000e+00 
0.0000000e+00 0.0000000e+00 0.0000000e+00 
0.0000000e+00 0.0000000e+00 0.0000000e+00 
POINT_LOAD 3 30  float
0.0000000e+00 0.0000000e+00 0.0000000e+00 
0.0000000e+00 0.0000000e+00 0.0000000e+00 
9.6670967e+03 0.0000000e+00 -9.0642900e+03 
5.4978364e+03 0.0000000e+00 -2.4506758e+03 
6.2060913e+03 0.0000000e+00 -6.9036543e+03 
0.0000000e+00 0.0000000e+00 0.0000000e+00 
5.7635596e+03 0.0000000e+00 -8.3200708e+02 
7.2461577e+03 0.0000000e+00 7.7590955e+02 
4.5618838e+03 0.0000000e+00 1.4916580e+03 
0.0000000e+00 0.0000000e+00 0.0000000e+00 
8.7195137e+03 0.0000000e+00 5.3710718e+03 
0.0000000e+00 0.0000000e+00 0.0000000e+00 
0.0000000e+00 0.0000000e+00 0.0000000e+00 
-6.1602158e+03 0.0000000e+00 -8.6879805e+03 
-8.7546211e+03 0.0000000e+00 8.9762061e+03 
1.9553660e+03 0.0000000e+00 8.6734961e+03 
2.8891687e+03 0.0000000e+00 6.8795349e+02 
0.0000000e+00 0.0000000e+00 0.0000000e+00 
8.8029170e+03 0.0000000e+00 9.0634443e+03 
0.0000000e+00 0.0000000e+00 0.0000000e+00 
-4.3707212e+03 0.0000000e+00 1.8385539e+02 
-9.1876143e+03 0.0000000e+00 7.2980708e+03 
7.6387456e+03 0.0000000e+00 -1.4042283e+03 
0.0000000e+00 0.0000000e+00 0.0000000e+00 
8.2036920e+02 0.0000000e+00 -1.7129274e+03 
8.9762773e+03 0.0000000e+00 7.1128423e+03 
4.5612036e+03 0.0000000e+00 -1.5224388e+02 
3.9652124e+03 0.0000000e+00 -2.2915691e+03 
7.5038555e+03 0.0000000e+00 8.7925771e+03 
8.4695791e+03 0.0000000e+00 5.3855703e+03 
POINT_MOMENT 3 30  float
0.0000000e+00 0.0000000e+00 0.0000000e+00 
0.0000000e+00 0.0000000e+00 0.0000000e+00 
0.0000000e+00 0.0000000e+00 0.0000000e+00 
0.0000000e+00 0.0000000e+00 0.0000000e+00 
0.0000000e+00 0.0000000e+00 0.0000000e+00 
0.0000000e+00 0.0000000e+00 0.0000000e+00 
0.0000000e+00 0.0000000e+00 0.0000000e+00 
0.0000000e+00 0.0000000e+00 0.0000000e+00 
0.0000000e+00 0.0000000e+00 0.0000000e+00 
0.0000000e+00 0.0000000e+00 0.0000000e+00 
0.0000000e+00 0.0000000e+00 0.0000000e+00 
0.0000000e+00 0.0000000e+00 0.0000000e+00 
0.0000000e+00 0.0000000e+00 0.0000000e+00 
0.0000000e+00 0.0000000e+00 0.0000000e+00 
0.0000000e+00 0.0000000e+00 0.0000000e+00 
0.0000000e+00 0.0000000e+00 0.0000000e+00 
0.0000000e+00 0.0000000e+00 0.0000000e+00 
0.0000000e+00 0.0000000e+00 0.0000000e+00 
0.0000000e+00 0.0000000e+00 0.0000000e+00 
0.0000000e+00 0.0000000e+00 0.0000000e+00 
0.0000000e+00 0.0000000e+00 0.0000000e+00 
0.0000000e+00 0.0000000e+00 0.0000000e+00 
0.0000000e+00 0.0000000e+00 0.0000000e+00 
0.0000000e+00 0.0000000e+00 0.0000000e+00 
0.0000000e+00 0.0000000e+00 0.0000000e+00 
0.0000000e+00 0.0000000e+00 0.0000000e+00 
0.0000000e+00 0.0000000e+00 0.0000000e+00 
0.0000000e+00 0.0000000e+00 0.0000000e+00 
0.0000000e+00 0.0000000e+00 0.0000000e+00 
0.0000000e+00 0.0000000e+00 0.0000000e+00 
CELL_DATA 30
FIELD FieldData 9
YOUNG_MODULUS 1 30  float
2.1000000e+11
2.1000000e+11
2.1000000e+11
2.1000000e+11
2.1000000e+11
2.1000000e+11
2.1000000e+11
2.1000000e+11
2.1000000e+11
2.1000000e+11
2.1000000e+11
2.1000000e+11
2.1000000e+11
2.1000000e+11
2.1000000e+11
2.1000000e+11
2.1000000e+11
2.1000000e+11
2.1000000e+11
2.1000000e+11
2.1000000e+11
2.1000000e+11
2.1000000e+11
2.1000000e+11
2.1000000e+11
2.1000000e+11
2.1000000e+11
2.1000000e+11
2.1000000e+11
2.1000000e+11
DENSITY 1 30  float
7.8500000e+03
7.8500000e+03
7.8500000e+03
7.8500000e+03
7.8500000e+03
7.8500000e+03
7.8500000e+03
7.8500000e+03
7.8500000e+03
7.8500000e+03
7.8500000e+03
7.8500000e+03
7.8500000e+03
7.8500000e+03
7.8500000e+03
7.8500000e+03
7.8500000e+03
7.8500000e+03
7.8500000e+03
7.8500000e+03
7.8500000e+03
7.8500000e+03
7.8500000e+03
7.8500000e+03
7.8500000e+03
7.8500000e+03
7.8500000e+03
7.8500000e+03
7.8500000e+03
7.8500000e+03
CROSS_AREA 1 30  float
9.9999998e-03
9.9999998e-03
9.9999998e-03
9.9999998e-03
9.9999998e-03
9.9999998e-03
9.9999998e-03
9.9999998e-03
9.9999998e-03
9.9999998e-03
9.9999998e-03
9.9999998e-03
9.9999998e-03
9.9999998e-03
9.9999998e-03
9.9999998e-03
9.9999998e-03
9.9999998e-03
9.9999998e-03
9.9999998e-03
9.9999998e-03
9.9999998e-03
9.9999998e-03
9.9999998e-03
9.9999998e-03
9.9999998e-03
9.9999998e-03
9.9999998e-03
9.9999998e-03
9.9999998e-03
I22 1 30  float
1.5000001e-04
1.5000001e-04
1.5000001e-04
1.5000001e-04
1.5000001e-04
1.5000001e-04
1.5000001e-04
1.5000001e-04
1.5000001e-04
1.5000001e-04
1.5000001e-04
1.5000001e-04
1.5000001e-04
1.5000001e-04
1.5000001e-04
1.5000001e-04
1.5000001e-04
1.5000001e-04
1.5000001e-04
1.5000001e-04
1.5000001e-04
1.5000001e-04
1.5000001e-04
1.5000001e-04
1.5000001e-04
1.5000001e-04
1.5000001e-04
1.5000001e-04
1.5000001e-04
1.5000001e-04
I33 1 30  float
1.5000001e-04
1.5000001e-04
1.5000001e-04
1.5000001e-04
1.5000001e-04
1.5000001e-04
1.5000001e-04
1.5000001e-04
1.5000001e-04
1.5000001e-04
1.5000001e-04
1.5000001e-04
1.5000001e-04
1.5000001e-04
1.5000001e-04
1.5000001e-04
1.5000001e-04
1.5000001e-04
1.5000001e-04
1.5000001e-04
1.5000001e-04
1.5000001e-04
1.5000001e-04
1.5000001e-04
1.5000001e-04
1.5000001e-04
1.5000001e-04
1.5000001e-04
1.5000001e-04
1.5000001e-04
TORSIONAL_INERTIA 1 30  float
3.0000001e-04
3.0000001e-04
3.0000001e-04
3.0000001e-04
3.0000001e-04
3.0000001e-04
3.0000001e-04
3.0000001e-04
3.0000001e-04
3.0000001e-04
3.0000001e-04
3.0000001e-04
3.0000001e-04
3.0000001e-04
3.0000001e-04
3.0000001e-04
3.0000001e-04
3.0000001e-04
3.0000001e-04
3.0000001e-04
3.0000001e-04
3.0000001e-04
3.0000001e-04
3.0000001e-04
3.0000001e-04
3.0000001e-04
3.0000001e-04
3.0000001e-04
3.0000001e-04
3.0000001e-04
POISSON_RATIO 1 30  float
3.0000001e-01
3.0000001e-01
3.0000001e-01
3.0000001e-01
3.0000001e-01
3.0000001e-01
3.0000001e-01
3.0000001e-01
3.0000001e-01
3.0000001e-01
3.0000001e-01
3.0000001e-01
3.0000001e-01
3.0000001e-01
3.0000001e-01
3.0000001e-01
3.0000001e-01
3.0000001e-01
3.0000001e-01
3.0000001e-01
3.0000001e-01
3.0000001e-01
3.0000001e-01
3.0000001e-01
3.0000001e-01
3.0000001e-01
3.0000001e-01
3.0000001e-01
3.0000001e-01
3.0000001e-01
MOMENT 3 30  float
0.0000000e+00 -1.7256775e+04 0.0000000e+00 
0.0000000e+00 -5.1770328e+04 0.0000000e+00 
0.0000000e+00 -8.2417039e+04 0.0000000e+00 
0.0000000e+00 -1.0699778e+05 0.0000000e+00 
0.0000000e+00 -1.2689695e+05 0.0000000e+00 
0.0000000e+00 -5.1849860e+02 0.0000000e+00 
0.0000000e+00 -2.3313277e+04 0.0000000e+00 
0.0000000e+00 -4.0904172e+04 0.0000000e+00 
0.0000000e+00 -5.3771848e+04 0.0000000e+00 
0.0000000e+00 -6.4814770e+04 0.0000000e+00 
0.0000000e+00 -1.2651888e+04 0.0000000e+00 
0.0000000e+00 -3.7955664e+04 0.0000000e+00 
0.0000000e+00 -6.5723523e+04 0.0000000e+00 
0.0000000e+00 -9.9457320e+04 0.0000000e+00 
0.0000000e+00 -1.3591083e+05 0.0000000e+00 
0.0000000e+00 -1.5559822e+04 0.0000000e+00 
0.0000000e+00 -2.7288057e+04 0.0000000e+00 
0.0000000e+00 -3.5495125e+04 0.0000000e+00 
0.0000000e+00 -4.0181023e+04 0.0000000e+00 
0.0000000e+00 -4.6615211e+04 0.0000000e+00 
0.0000000e+00 -1.1885413e+05 0.0000000e+00 
0.0000000e+00 -5.9884332e+04 0.0000000e+00 
0.0000000e+00 4.8969589e+02 0.0000000e+00 
0.0000000e+00 6.2576652e+04 0.0000000e+00 
0.0000000e+00 1.1926370e+05 0.0000000e+00 
0.0000000e+00 -5.5134555e+04 0.0000000e+00 
0.0000000e+00 -2.4578957e+04 0.0000000e+00 
0.0000000e+00 8.4204531e+03 0.0000000e+00 
0.0000000e+00 3.4918855e+04 0.0000000e+00 
0.0000000e+00 4.7239109e+04 0.0000000e+00 
FORCE 3 30  float
3.2372475e+04 0.0000000e+00 -4.3141941e+04 
3.2372475e+04 0.0000000e+00 -4.3141941e+04 
4.1436766e+04 0.0000000e+00 -3.3474844e+04 
4.3887441e+04 0.0000000e+00 -2.7977008e+04 
5.0791094e+04 0.0000000e+00 -2.1770916e+04 
2.2008309e+04 0.0000000e+00 -3.1375254e+04 
2.2840316e+04 0.0000000e+00 -2.5611695e+04 
2.2064406e+04 0.0000000e+00 -1.8365537e+04 
2.0572748e+04 0.0000000e+00 -1.3803653e+04 
2.0572748e+04 0.0000000e+00 -1.3803653e+04 
-2.0593958e+03 0.0000000e+00 -3.1629721e+04 
-2.0593958e+03 0.0000000e+00 -3.1629721e+04 
6.6285845e+03 0.0000000e+00 -3.7789938e+04 
-2.3476218e+03 0.0000000e+00 -4.6544559e+04 
-1.1021118e+04 0.0000000e+00 -4.4589191e+04 
1.3078028e+04 0.0000000e+00 -1.4660293e+04 
1.3078028e+04 0.0000000e+00 -1.4660293e+04 
4.0145842e+03 0.0000000e+00 -5.8573755e+03 
4.0145842e+03 0.0000000e+00 -5.8573755e+03 
3.8307288e+03 0.0000000e+00 -1.0228097e+04 
-9.6043379e+03 0.0000000e+00 2.8782787e+04 
-1.7243084e+04 0.0000000e+00 3.0187016e+04 
-1.7243084e+04 0.0000000e+00 3.0187016e+04 
-1.8063453e+04 0.0000000e+00 3.1899941e+04 
-2.7039730e+04 0.0000000e+00 2.4787100e+04 
5.0841392e+03 0.0000000e+00 1.5201677e+04 
5.2293567e+02 0.0000000e+00 1.5353920e+04 
-3.4422766e+03 0.0000000e+00 1.7645490e+04 
-1.0946132e+04 0.0000000e+00 8.8529121e+03 
-1.9415711e+04 0.0000000e+00 3.4673420e+03 
