# vtk DataFile Version 4.0
vtk output
ASCII
DATASET UNSTRUCTURED_GRID
POINTS 212 float
0.0000000e+00 0.0000000e+00 0.0000000e+00 
0.0000000e+00 0.0000000e+00 2.5000000e-01 
0.0000000e+00 0.0000000e+00 5.0000000e-01 
0.0000000e+00 0.0000000e+00 7.5000000e-01 
0.0000000e+00 0.0000000e+00 1.0000000e+00 
0.0000000e+00 0.0000000e+00 1.2500000e+00 
0.0000000e+00 0.0000000e+00 1.5000000e+00 
0.0000000e+00 0.0000000e+00 1.7500000e+00 
0.0000000e+00 0.0000000e+00 2.0000000e+00 
0.0000000e+00 0.0000000e+00 2.2500000e+00 
0.0000000e+00 0.0000000e+00 2.5000000e+00 
0.0000000e+00 0.0000000e+00 2.7500000e+00 
0.0000000e+00 0.0000000e+00 3.0000000e+00 
0.0000000e+00 0.0000000e+00 3.2500000e+00 
0.0000000e+00 0.0000000e+00 3.5000000e+00 
0.0000000e+00 0.0000000e+00 3.7500000e+00 
0.0000000e+00 0.0000000e+00 4.0000000e+00 
0.0000000e+00 0.0000000e+00 4.2500000e+00 
0.0000000e+00 0.0000000e+00 4.5000000e+00 
0.0000000e+00 0.0000000e+00 4.7500000e+00 
0.0000000e+00 0.0000000e+00 5.0000000e+00 
0.0000000e+00 0.0000000e+00 5.2500000e+00 
0.0000000e+00 0.0000000e+00 5.5000000e+00 
0.0000000e+00 0.0000000e+00 5.7500000e+00 
0.0000000e+00 0.0000000e+00 6.0000000e+00 
0.0000000e+00 0.0000000e+00 6.2500000e+00 
0.0000000e+00 0.0000000e+00 6.5000000e+00 
0.0000000e+00 0.0000000e+00 6.7500000e+00 
0.0000000e+00 0.0000000e+00 7.0000000e+00 
0.0000000e+00 0.0000000e+00 7.2500000e+00 
0.0000000e+00 0.0000000e+00 7.5000000e+00 
0.0000000e+00 0.0000000e+00 7.7500000e+00 
0.0000000e+00 0.0000000e+00 8.0000000e+00 
0.0000000e+00 0.0000000e+00 8.2500000e+00 
0.0000000e+00 0.0000000e+00 8.5000000e+00 
0.0000000e+00 0.0000000e+00 8.7500000e+00 
0.0000000e+00 0.0000000e+00 9.0000000e+00 
0.0000000e+00 0.0000000e+00 9.2500000e+00 
0.0000000e+00 0.0000000e+00 9.5000000e+00 
0.0000000e+00 0.0000000e+00 9.7500000e+00 
0.0000000e+00 0.0000000e+00 1.0000000e+01 
0.0000000e+00 0.0000000e+00 1.0250000e+01 
0.0000000e+00 0.0000000e+00 1.0500000e+01 
0.0000000e+00 0.0000000e+00 1.0750000e+01 
0.0000000e+00 0.0000000e+00 1.1000000e+01 
0.0000000e+00 0.0000000e+00 1.1250000e+01 
0.0000000e+00 0.0000000e+00 1.1500000e+01 
0.0000000e+00 0.0000000e+00 1.1750000e+01 
0.0000000e+00 0.0000000e+00 1.2000000e+01 
0.0000000e+00 0.0000000e+00 1.2250000e+01 
0.0000000e+00 0.0000000e+00 1.2500000e+01 
0.0000000e+00 0.0000000e+00 1.2750000e+01 
0.0000000e+00 0.0000000e+00 1.3000000e+01 
0.0000000e+00 0.0000000e+00 1.3250000e+01 
0.0000000e+00 0.0000000e+00 1.3500000e+01 
0.0000000e+00 0.0000000e+00 1.3750000e+01 
0.0000000e+00 0.0000000e+00 1.4000000e+01 
0.0000000e+00 0.0000000e+00 1.4250000e+01 
0.0000000e+00 0.0000000e+00 1.4500000e+01 
0.0000000e+00 0.0000000e+00 1.4750000e+01 
0.0000000e+00 0.0000000e+00 1.5000000e+01 
0.0000000e+00 0.0000000e+00 1.5250000e+01 
0.0000000e+00 0.0000000e+00 1.5500000e+01 
0.0000000e+00 0.0000000e+00 1.5750000e+01 
0.0000000e+00 0.0000000e+00 1.6000000e+01 
0.0000000e+00 0.0000000e+00 1.6250000e+01 
0.0000000e+00 0.0000000e+00 1.6500000e+01 
0.0000000e+00 0.0000000e+00 1.6750000e+01 
0.0000000e+00 0.0000000e+00 1.7000000e+01 
0.0000000e+00 0.0000000e+00 1.7250000e+01 
0.0000000e+00 0.0000000e+00 1.7500000e+01 
0.0000000e+00 0.0000000e+00 1.7750000e+01 
0.0000000e+00 0.0000000e+00 1.8000000e+01 
5.0000000e-01 0.0000000e+00 3.0000000e+00 
5.0000000e-01 0.0000000e+00 6.0000000e+00 
5.0000000e-01 0.0000000e+00 9.0000000e+00 
5.0000000e-01 0.0000000e+00 1.2000000e+01 
5.0000000e-01 0.0000000e+00 1.5000000e+01 
5.0000000e-01 0.0000000e+00 1.8000000e+01 
1.0000000e+00 0.0000000e+00 3.0000000e+00 
1.0000000e+00 0.0000000e+00 6.0000000e+00 
1.0000000e+00 0.0000000e+00 9.0000000e+00 
1.0000000e+00 0.0000000e+00 1.2000000e+01 
1.0000000e+00 0.0000000e+00 1.5000000e+01 
1.0000000e+00 0.0000000e+00 1.8000000e+01 
1.5000000e+00 0.0000000e+00 3.0000000e+00 
1.5000000e+00 0.0000000e+00 6.0000000e+00 
1.5000000e+00 0.0000000e+00 9.0000000e+00 
1.5000000e+00 0.0000000e+00 1.2000000e+01 
1.5000000e+00 0.0000000e+00 1.5000000e+01 
1.5000000e+00 0.0000000e+00 1.8000000e+01 
2.0000000e+00 0.0000000e+00 3.0000000e+00 
2.0000000e+00 0.0000000e+00 6.0000000e+00 
2.0000000e+00 0.0000000e+00 9.0000000e+00 
2.0000000e+00 0.0000000e+00 1.2000000e+01 
2.0000000e+00 0.0000000e+00 1.5000000e+01 
2.0000000e+00 0.0000000e+00 1.8000000e+01 
2.5000000e+00 0.0000000e+00 3.0000000e+00 
2.5000000e+00 0.0000000e+00 6.0000000e+00 
2.5000000e+00 0.0000000e+00 9.0000000e+00 
2.5000000e+00 0.0000000e+00 1.2000000e+01 
2.5000000e+00 0.0000000e+00 1.5000000e+01 
2.5000000e+00 0.0000000e+00 1.8000000e+01 
3.0000000e+00 0.0000000e+00 3.0000000e+00 
3.0000000e+00 0.0000000e+00 6.0000000e+00 
3.0000000e+00 0.0000000e+00 9.0000000e+00 
3.0000000e+00 0.0000000e+00 1.2000000e+01 
3.0000000e+00 0.0000000e+00 1.5000000e+01 
3.0000000e+00 0.0000000e+00 1.8000000e+01 
3.5000000e+00 0.0000000e+00 3.0000000e+00 
3.5000000e+00 0.0000000e+00 6.0000000e+00 
3.5000000e+00 0.0000000e+00 9.0000000e+00 
3.5000000e+00 0.0000000e+00 1.2000000e+01 
3.5000000e+00 0.0000000e+00 1.5000000e+01 
3.5000000e+00 0.0000000e+00 1.8000000e+01 
4.0000000e+00 0.0000000e+00 3.0000000e+00 
4.0000000e+00 0.0000000e+00 6.0000000e+00 
4.0000000e+00 0.0000000e+00 9.0000000e+00 
4.0000000e+00 0.0000000e+00 1.2000000e+01 
4.0000000e+00 0.0000000e+00 1.5000000e+01 
4.0000000e+00 0.0000000e+00 1.8000000e+01 
4.5000000e+00 0.0000000e+00 3.0000000e+00 
4.5000000e+00 0.0000000e+00 6.0000000e+00 
4.5000000e+00 0.0000000e+00 9.0000000e+00 
4.5000000e+00 0.0000000e+00 1.2000000e+01 
4.5000000e+00 0.0000000e+00 1.5000000e+01 
4.5000000e+00 0.0000000e+00 1.8000000e+01 
5.0000000e+00 0.0000000e+00 3.0000000e+00 
5.0000000e+00 0.0000000e+00 6.0000000e+00 
5.0000000e+00 0.0000000e+00 9.0000000e+00 
5.0000000e+00 0.0000000e+00 1.2000000e+01 
5.0000000e+00 0.0000000e+00 1.5000000e+01 
5.0000000e+00 0.0000000e+00 1.8000000e+01 
5.5000000e+00 0.0000000e+00 3.0000000e+00 
5.5000000e+00 0.0000000e+00 6.0000000e+00 
5.5000000e+00 0.0000000e+00 9.0000000e+00 
5.5000000e+00 0.0000000e+00 1.2000000e+01 
5.5000000e+00 0.0000000e+00 1.5000000e+01 
5.5000000e+00 0.0000000e+00 1.8000000e+01 
6.0000000e+00 0.0000000e+00 0.0000000e+00 
6.0000000e+00 0.0000000e+00 2.5000000e-01 
6.0000000e+00 0.0000000e+00 5.0000000e-01 
6.0000000e+00 0.0000000e+00 7.5000000e-01 
6.0000000e+00 0.0000000e+00 1.0000000e+00 
6.0000000e+00 0.0000000e+00 1.2500000e+00 
6.0000000e+00 0.0000000e+00 1.5000000e+00 
6.0000000e+00 0.0000000e+00 1.7500000e+00 
6.0000000e+00 0.0000000e+00 2.0000000e+00 
6.0000000e+00 0.0000000e+00 2.2500000e+00 
6.0000000e+00 0.0000000e+00 2.5000000e+00 
6.0000000e+00 0.0000000e+00 2.7500000e+00 
6.0000000e+00 0.0000000e+00 3.0000000e+00 
6.0000000e+00 0.0000000e+00 3.2500000e+00 
6.0000000e+00 0.0000000e+00 3.5000000e+00 
6.0000000e+00 0.0000000e+00 3.7500000e+00 
6.0000000e+00 0.0000000e+00 4.0000000e+00 
6.0000000e+00 0.0000000e+00 4.2500000e+00 
6.0000000e+00 0.0000000e+00 4.5000000e+00 
6.0000000e+00 0.0000000e+00 4.7500000e+00 
6.0000000e+00 0.0000000e+00 5.0000000e+00 
6.0000000e+00 0.0000000e+00 5.2500000e+00 
6.0000000e+00 0.0000000e+00 5.5000000e+00 
6.0000000e+00 0.0000000e+00 5.7500000e+00 
6.0000000e+00 0.0000000e+00 6.0000000e+00 
6.0000000e+00 0.0000000e+00 6.2500000e+00 
6.0000000e+00 0.0000000e+00 6.5000000e+00 
6.0000000e+00 0.0000000e+00 6.7500000e+00 
6.0000000e+00 0.0000000e+00 7.0000000e+00 
6.0000000e+00 0.0000000e+00 7.2500000e+00 
6.0000000e+00 0.0000000e+00 7.5000000e+00 
6.0000000e+00 0.0000000e+00 7.7500000e+00 
6.0000000e+00 0.0000000e+00 8.0000000e+00 
6.0000000e+00 0.0000000e+00 8.2500000e+00 
6.0000000e+00 0.0000000e+00 8.5000000e+00 
6.0000000e+00 0.0000000e+00 8.7500000e+00 
6.0000000e+00 0.0000000e+00 9.0000000e+00 
6.0000000e+00 0.0000000e+00 9.2500000e+00 
6.0000000e+00 0.0000000e+00 9.5000000e+00 
6.0000000e+00 0.0000000e+00 9.7500000e+00 
6.0000000e+00 0.0000000e+00 1.0000000e+01 
6.0000000e+00 0.0000000e+00 1.0250000e+01 
6.0000000e+00 0.0000000e+00 1.0500000e+01 
6.0000000e+00 0.0000000e+00 1.0750000e+01 
6.0000000e+00 0.0000000e+00 1.1000000e+01 
6.0000000e+00 0.0000000e+00 1.1250000e+01 
6.0000000e+00 0.0000000e+00 1.1500000e+01 
6.0000000e+00 0.0000000e+00 1.1750000e+01 
6.0000000e+00 0.0000000e+00 1.2000000e+01 
6.0000000e+00 0.0000000e+00 1.2250000e+01 
6.0000000e+00 0.0000000e+00 1.2500000e+01 
6.0000000e+00 0.0000000e+00 1.2750000e+01 
6.0000000e+00 0.0000000e+00 1.3000000e+01 
6.0000000e+00 0.0000000e+00 1.3250000e+01 
6.0000000e+00 0.0000000e+00 1.3500000e+01 
6.0000000e+00 0.0000000e+00 1.3750000e+01 
6.0000000e+00 0.0000000e+00 1.4000000e+01 
6.0000000e+00 0.0000000e+00 1.4250000e+01 
6.0000000e+00 0.0000000e+00 1.4500000e+01 
6.0000000e+00 0.0000000e+00 1.4750000e+01 
6.0000000e+00 0.0000000e+00 1.5000000e+01 
6.0000000e+00 0.0000000e+00 1.5250000e+01 
6.0000000e+00 0.0000000e+00 1.5500000e+01 
6.0000000e+00 0.0000000e+00 1.5750000e+01 
6.0000000e+00 0.0000000e+00 1.6000000e+01 
6.0000000e+00 0.0000000e+00 1.6250000e+01 
6.0000000e+00 0.0000000e+00 1.6500000e+01 
6.0000000e+00 0.0000000e+00 1.6750000e+01 
6.0000000e+00 0.0000000e+00 1.7000000e+01 
6.0000000e+00 0.0000000e+00 1.7250000e+01 
6.0000000e+00 0.0000000e+00 1.7500000e+01 
6.0000000e+00 0.0000000e+00 1.7750000e+01 
6.0000000e+00 0.0000000e+00 1.8000000e+01 

CELLS 216 648
2 0 1
2 1 2
2 2 3
2 3 4
2 4 5
2 5 6
2 6 7
2 7 8
2 8 9
2 9 10
2 10 11
2 11 12
2 12 13
2 13 14
2 14 15
2 15 16
2 16 17
2 17 18
2 18 19
2 19 20
2 20 21
2 21 22
2 22 23
2 23 24
2 24 25
2 25 26
2 26 27
2 27 28
2 28 29
2 29 30
2 30 31
2 31 32
2 32 33
2 33 34
2 34 35
2 35 36
2 36 37
2 37 38
2 38 39
2 39 40
2 40 41
2 41 42
2 42 43
2 43 44
2 44 45
2 45 46
2 46 47
2 47 48
2 48 49
2 49 50
2 50 51
2 51 52
2 52 53
2 53 54
2 54 55
2 55 56
2 56 57
2 57 58
2 58 59
2 59 60
2 60 61
2 61 62
2 62 63
2 63 64
2 64 65
2 65 66
2 66 67
2 67 68
2 68 69
2 69 70
2 70 71
2 71 72
2 139 140
2 140 141
2 141 142
2 142 143
2 143 144
2 144 145
2 145 146
2 146 147
2 147 148
2 148 149
2 149 150
2 150 151
2 151 152
2 152 153
2 153 154
2 154 155
2 155 156
2 156 157
2 157 158
2 158 159
2 159 160
2 160 161
2 161 162
2 162 163
2 163 164
2 164 165
2 165 166
2 166 167
2 167 168
2 168 169
2 169 170
2 170 171
2 171 172
2 172 173
2 173 174
2 174 175
2 175 176
2 176 177
2 177 178
2 178 179
2 179 180
2 180 181
2 181 182
2 182 183
2 183 184
2 184 185
2 185 186
2 186 187
2 187 188
2 188 189
2 189 190
2 190 191
2 191 192
2 192 193
2 193 194
2 194 195
2 195 196
2 196 197
2 197 198
2 198 199
2 199 200
2 200 201
2 201 202
2 202 203
2 203 204
2 204 205
2 205 206
2 206 207
2 207 208
2 208 209
2 209 210
2 210 211
2 12 73
2 73 79
2 79 85
2 85 91
2 91 97
2 97 103
2 103 109
2 109 115
2 115 121
2 121 127
2 127 133
2 133 151
2 24 74
2 74 80
2 80 86
2 86 92
2 92 98
2 98 104
2 104 110
2 110 116
2 116 122
2 122 128
2 128 134
2 134 163
2 36 75
2 75 81
2 81 87
2 87 93
2 93 99
2 99 105
2 105 111
2 111 117
2 117 123
2 123 129
2 129 135
2 135 175
2 48 76
2 76 82
2 82 88
2 88 94
2 94 100
2 100 106
2 106 112
2 112 118
2 118 124
2 124 130
2 130 136
2 136 187
2 60 77
2 77 83
2 83 89
2 89 95
2 95 101
2 101 107
2 107 113
2 113 119
2 119 125
2 125 131
2 131 137
2 137 199
2 72 78
2 78 84
2 84 90
2 90 96
2 96 102
2 102 108
2 108 114
2 114 120
2 120 126
2 126 132
2 132 138
2 138 211

CELL_TYPES 216
3
3
3
3
3
3
3
3
3
3
3
3
3
3
3
3
3
3
3
3
3
3
3
3
3
3
3
3
3
3
3
3
3
3
3
3
3
3
3
3
3
3
3
3
3
3
3
3
3
3
3
3
3
3
3
3
3
3
3
3
3
3
3
3
3
3
3
3
3
3
3
3
3
3
3
3
3
3
3
3
3
3
3
3
3
3
3
3
3
3
3
3
3
3
3
3
3
3
3
3
3
3
3
3
3
3
3
3
3
3
3
3
3
3
3
3
3
3
3
3
3
3
3
3
3
3
3
3
3
3
3
3
3
3
3
3
3
3
3
3
3
3
3
3
3
3
3
3
3
3
3
3
3
3
3
3
3
3
3
3
3
3
3
3
3
3
3
3
3
3
3
3
3
3
3
3
3
3
3
3
3
3
3
3
3
3
3
3
3
3
3
3
3
3
3
3
3
3
3
3
3
3
3
3
3
3
3
3
3
3
3
3
3
3
3
3
POINT_DATA 212
FIELD FieldData 3
ADJOINT_DISPLACEMENT 3 212  float
0.0000000e+00 0.0000000e+00 0.0000000e+00 
-4.1097399e-02 0.0000000e+00 -7.5979787e-16 
-8.2544319e-02 0.0000000e+00 -1.5195957e-15 
-1.2469029e-01 0.0000000e+00 -2.2793936e-15 
-1.6788481e-01 0.0000000e+00 -3.0391915e-15 
-2.1247742e-01 0.0000000e+00 -3.7989894e-15 
-2.5881764e-01 0.0000000e+00 -4.5587872e-15 
-3.0725497e-01 0.0000000e+00 -5.3185851e-15 
-3.5813895e-01 0.0000000e+00 -6.0783830e-15 
-4.1181910e-01 0.0000000e+00 -6.8381808e-15 
-4.6864495e-01 0.0000000e+00 -7.5979787e-15 
-5.2896601e-01 0.0000000e+00 -8.3577766e-15 
-5.9313178e-01 0.0000000e+00 -9.1175745e-15 
-6.5538013e-01 0.0000000e+00 -6.9061338e-05 
-7.1006143e-01 0.0000000e+00 -1.3812268e-04 
-7.5769389e-01 0.0000000e+00 -2.0718401e-04 
-7.9879564e-01 0.0000000e+00 -2.7624535e-04 
-8.3388495e-01 0.0000000e+00 -3.4530670e-04 
-8.6347997e-01 0.0000000e+00 -4.1436803e-04 
-8.8809890e-01 0.0000000e+00 -4.8342938e-04 
-9.0825999e-01 0.0000000e+00 -5.5249070e-04 
-9.2448133e-01 0.0000000e+00 -6.2155206e-04 
-9.3728125e-01 0.0000000e+00 -6.9061341e-04 
-9.4717789e-01 0.0000000e+00 -7.5967476e-04 
-9.5468944e-01 0.0000000e+00 -8.2873605e-04 
-9.6135598e-01 0.0000000e+00 -8.4313331e-04 
-9.6829718e-01 0.0000000e+00 -8.5753057e-04 
-9.7540039e-01 0.0000000e+00 -8.7192777e-04 
-9.8255306e-01 0.0000000e+00 -8.8632503e-04 
-9.8964256e-01 0.0000000e+00 -9.0072228e-04 
-9.9655634e-01 0.0000000e+00 -9.1511954e-04 
-1.0031818e+00 0.0000000e+00 -9.2951674e-04 
-1.0094064e+00 0.0000000e+00 -9.4391400e-04 
-1.0151175e+00 0.0000000e+00 -9.5831126e-04 
-1.0202025e+00 0.0000000e+00 -9.7270845e-04 
-1.0245489e+00 0.0000000e+00 -9.8710577e-04 
-1.0280441e+00 0.0000000e+00 -1.0015030e-03 
-1.0309000e+00 0.0000000e+00 -1.0045042e-03 
-1.0334191e+00 0.0000000e+00 -1.0075053e-03 
-1.0356245e+00 0.0000000e+00 -1.0105064e-03 
-1.0375392e+00 0.0000000e+00 -1.0135076e-03 
-1.0391862e+00 0.0000000e+00 -1.0165088e-03 
-1.0405885e+00 0.0000000e+00 -1.0195100e-03 
-1.0417691e+00 0.0000000e+00 -1.0225112e-03 
-1.0427511e+00 0.0000000e+00 -1.0255123e-03 
-1.0435574e+00 0.0000000e+00 -1.0285135e-03 
-1.0442110e+00 0.0000000e+00 -1.0315147e-03 
-1.0447352e+00 0.0000000e+00 -1.0345158e-03 
-1.0451527e+00 0.0000000e+00 -1.0375170e-03 
-1.0455312e+00 0.0000000e+00 -1.0381415e-03 
-1.0459200e+00 0.0000000e+00 -1.0387661e-03 
-1.0463145e+00 0.0000000e+00 -1.0393906e-03 
-1.0467099e+00 0.0000000e+00 -1.0400151e-03 
-1.0471016e+00 0.0000000e+00 -1.0406397e-03 
-1.0474850e+00 0.0000000e+00 -1.0412642e-03 
-1.0478554e+00 0.0000000e+00 -1.0418887e-03 
-1.0482080e+00 0.0000000e+00 -1.0425132e-03 
-1.0485383e+00 0.0000000e+00 -1.0431377e-03 
-1.0488417e+00 0.0000000e+00 -1.0437623e-03 
-1.0491134e+00 0.0000000e+00 -1.0443868e-03 
-1.0493487e+00 0.0000000e+00 -1.0450113e-03 
-1.0495572e+00 0.0000000e+00 -1.0451361e-03 
-1.0497520e+00 0.0000000e+00 -1.0452609e-03 
-1.0499339e+00 0.0000000e+00 -1.0453856e-03 
-1.0501035e+00 0.0000000e+00 -1.0455104e-03 
-1.0502619e+00 0.0000000e+00 -1.0456352e-03 
-1.0504098e+00 0.0000000e+00 -1.0457600e-03 
-1.0505478e+00 0.0000000e+00 -1.0458848e-03 
-1.0506771e+00 0.0000000e+00 -1.0460095e-03 
-1.0507981e+00 0.0000000e+00 -1.0461343e-03 
-1.0509118e+00 0.0000000e+00 -1.0462591e-03 
-1.0510191e+00 0.0000000e+00 -1.0463839e-03 
-1.0511206e+00 0.0000000e+00 -1.0465087e-03 
-5.9321761e-01 0.0000000e+00 1.5660641e-01 
-9.5436847e-01 0.0000000e+00 7.9330308e-03 
-1.0281130e+00 0.0000000e+00 3.9140778e-03 
-1.0451385e+00 0.0000000e+00 -4.7836616e-04 
-1.0493516e+00 0.0000000e+00 -6.6394237e-04 
-1.0511202e+00 0.0000000e+00 -8.5775892e-04 
-5.9330344e-01 0.0000000e+00 3.6015931e-01 
-9.5404750e-01 0.0000000e+00 9.3973139e-03 
-1.0281820e+00 0.0000000e+00 6.7718001e-03 
-1.0451244e+00 0.0000000e+00 -2.3854422e-04 
-1.0493543e+00 0.0000000e+00 -3.7287272e-04 
-1.0511198e+00 0.0000000e+00 -6.8469293e-04 
-5.9338927e-01 0.0000000e+00 6.0848713e-01 
-9.5372653e-01 0.0000000e+00 5.2829781e-03 
-1.0282511e+00 0.0000000e+00 7.9300050e-03 
-1.0451103e+00 0.0000000e+00 -2.4331968e-04 
-1.0493571e+00 0.0000000e+00 -1.5608806e-04 
-1.0511193e+00 0.0000000e+00 -5.2338722e-04 
-5.9347510e-01 0.0000000e+00 3.9941835e-01 
-9.5340556e-01 0.0000000e+00 -2.6911122e-03 
-1.0283201e+00 0.0000000e+00 7.7470299e-03 
-1.0450963e+00 0.0000000e+00 -4.1796104e-04 
-1.0493599e+00 0.0000000e+00 2.1259102e-06 
-1.0511190e+00 0.0000000e+00 -3.6991847e-04 
-5.9356093e-01 0.0000000e+00 2.3078132e-01 
-9.5308459e-01 0.0000000e+00 -1.2806092e-02 
-1.0283891e+00 0.0000000e+00 6.5812152e-03 
-1.0450822e+00 0.0000000e+00 -6.8773679e-04 
-1.0493627e+00 0.0000000e+00 1.1748351e-04 
-1.0511186e+00 0.0000000e+00 -2.2036322e-04 
-5.9364676e-01 0.0000000e+00 1.0040451e-01 
-9.5276362e-01 0.0000000e+00 -2.3343099e-02 
-1.0284581e+00 0.0000000e+00 4.7909003e-03 
-1.0450681e+00 0.0000000e+00 -9.7791536e-04 
-1.0493654e+00 0.0000000e+00 2.0569908e-04 
-1.0511181e+00 0.0000000e+00 -7.0798109e-05 
-5.9373260e-01 0.0000000e+00 6.1163399e-03 
-9.5244265e-01 0.0000000e+00 -3.2583266e-02 
-1.0285270e+00 0.0000000e+00 2.7344241e-03 
-1.0450541e+00 0.0000000e+00 -1.2137654e-03 
-1.0493683e+00 0.0000000e+00 2.8248690e-04 
-1.0511178e+00 0.0000000e+00 8.2700215e-05 
-5.9381843e-01 0.0000000e+00 -5.4254767e-02 
-9.5212168e-01 0.0000000e+00 -3.8807731e-02 
-1.0285960e+00 0.0000000e+00 7.7012618e-04 
-1.0450400e+00 0.0000000e+00 -1.3205552e-03 
-1.0493710e+00 0.0000000e+00 3.6356132e-04 
-1.0511173e+00 0.0000000e+00 2.4405516e-04 
-5.9390426e-01 0.0000000e+00 -8.2880378e-02 
-9.5180070e-01 0.0000000e+00 -4.0297627e-02 
-1.0286651e+00 0.0000000e+00 -7.4365421e-04 
-1.0450258e+00 0.0000000e+00 -1.2235533e-03 
-1.0493737e+00 0.0000000e+00 4.6463666e-04 
-1.0511169e+00 0.0000000e+00 4.1719008e-04 
-5.9399009e-01 0.0000000e+00 -8.1932075e-02 
-9.5147973e-01 0.0000000e+00 -3.5334092e-02 
-1.0287341e+00 0.0000000e+00 -1.4485777e-03 
-1.0450118e+00 0.0000000e+00 -8.4802840e-04 
-1.0493766e+00 0.0000000e+00 6.0142722e-04 
-1.0511165e+00 0.0000000e+00 6.0602836e-04 
-5.9407592e-01 0.0000000e+00 -5.3581424e-02 
-9.5115876e-01 0.0000000e+00 -2.2198258e-02 
-1.0288031e+00 0.0000000e+00 -9.8630518e-04 
-1.0449977e+00 0.0000000e+00 -1.1924878e-04 
-1.0493793e+00 0.0000000e+00 7.8964734e-04 
-1.0511161e+00 0.0000000e+00 8.1449345e-04 
0.0000000e+00 0.0000000e+00 0.0000000e+00 
-5.7843722e-02 0.0000000e+00 8.6488898e-16 
-1.1533792e-01 0.0000000e+00 1.7297981e-15 
-1.7213309e-01 0.0000000e+00 2.5949134e-15 
-2.2787969e-01 0.0000000e+00 3.4598827e-15 
-2.8222820e-01 0.0000000e+00 4.3248422e-15 
-3.3482912e-01 0.0000000e+00 5.1895705e-15 
-3.8533291e-01 0.0000000e+00 6.0540735e-15 
-4.3339005e-01 0.0000000e+00 6.9182538e-15 
-4.7865102e-01 0.0000000e+00 7.7837474e-15 
-5.2076632e-01 0.0000000e+00 8.6488578e-15 
-5.5938637e-01 0.0000000e+00 9.5139367e-15 
-5.9416175e-01 0.0000000e+00 1.0379746e-14 
-6.2759709e-01 0.0000000e+00 6.9061338e-05 
-6.6208482e-01 0.0000000e+00 1.3812268e-04 
-6.9710672e-01 0.0000000e+00 2.0718401e-04 
-7.3214459e-01 0.0000000e+00 2.7624535e-04 
-7.6668018e-01 0.0000000e+00 3.4530670e-04 
-8.0019534e-01 0.0000000e+00 4.1436803e-04 
-8.3217186e-01 0.0000000e+00 4.8342938e-04 
-8.6209148e-01 0.0000000e+00 5.5249070e-04 
-8.8943613e-01 0.0000000e+00 6.2155206e-04 
-9.1368753e-01 0.0000000e+00 6.9061341e-04 
-9.3432748e-01 0.0000000e+00 7.5967476e-04 
-9.5083779e-01 0.0000000e+00 8.2873605e-04 
-9.6425664e-01 0.0000000e+00 8.4313331e-04 
-9.7604281e-01 0.0000000e+00 8.5753057e-04 
-9.8630875e-01 0.0000000e+00 8.7192777e-04 
-9.9516714e-01 0.0000000e+00 8.8632503e-04 
-1.0027306e+00 0.0000000e+00 9.0072228e-04 
-1.0091115e+00 0.0000000e+00 9.1511954e-04 
-1.0144228e+00 0.0000000e+00 9.2951674e-04 
-1.0187768e+00 0.0000000e+00 9.4391400e-04 
-1.0222861e+00 0.0000000e+00 9.5831126e-04 
-1.0250633e+00 0.0000000e+00 9.7270845e-04 
-1.0272211e+00 0.0000000e+00 9.8710577e-04 
-1.0288720e+00 0.0000000e+00 1.0015030e-03 
-1.0303416e+00 0.0000000e+00 1.0045042e-03 
-1.0318648e+00 0.0000000e+00 1.0075053e-03 
-1.0334185e+00 0.0000000e+00 1.0105064e-03 
-1.0349799e+00 0.0000000e+00 1.0135076e-03 
-1.0365260e+00 0.0000000e+00 1.0165088e-03 
-1.0380336e+00 0.0000000e+00 1.0195100e-03 
-1.0394797e+00 0.0000000e+00 1.0225112e-03 
-1.0408416e+00 0.0000000e+00 1.0255123e-03 
-1.0420958e+00 0.0000000e+00 1.0285135e-03 
-1.0432196e+00 0.0000000e+00 1.0315147e-03 
-1.0441898e+00 0.0000000e+00 1.0345158e-03 
-1.0449836e+00 0.0000000e+00 1.0375170e-03 
-1.0456454e+00 0.0000000e+00 1.0381415e-03 
-1.0462378e+00 0.0000000e+00 1.0387661e-03 
-1.0467658e+00 0.0000000e+00 1.0393906e-03 
-1.0472338e+00 0.0000000e+00 1.0400151e-03 
-1.0476466e+00 0.0000000e+00 1.0406397e-03 
-1.0480090e+00 0.0000000e+00 1.0412642e-03 
-1.0483254e+00 0.0000000e+00 1.0418887e-03 
-1.0486006e+00 0.0000000e+00 1.0425132e-03 
-1.0488392e+00 0.0000000e+00 1.0431377e-03 
-1.0490458e+00 0.0000000e+00 1.0437623e-03 
-1.0492253e+00 0.0000000e+00 1.0443868e-03 
-1.0493821e+00 0.0000000e+00 1.0450113e-03 
-1.0495305e+00 0.0000000e+00 1.0451361e-03 
-1.0496808e+00 0.0000000e+00 1.0452609e-03 
-1.0498322e+00 0.0000000e+00 1.0453856e-03 
-1.0499841e+00 0.0000000e+00 1.0455104e-03 
-1.0501355e+00 0.0000000e+00 1.0456352e-03 
-1.0502857e+00 0.0000000e+00 1.0457600e-03 
-1.0504339e+00 0.0000000e+00 1.0458848e-03 
-1.0505791e+00 0.0000000e+00 1.0460095e-03 
-1.0507208e+00 0.0000000e+00 1.0461343e-03 
-1.0508579e+00 0.0000000e+00 1.0462591e-03 
-1.0509899e+00 0.0000000e+00 1.0463839e-03 
-1.0511158e+00 0.0000000e+00 1.0465087e-03 
ADJOINT_ROTATION 3 212  float
0.0000000e+00 -1.6415659e-01 0.0000000e+00 
0.0000000e+00 -1.6485563e-01 0.0000000e+00 
0.0000000e+00 -1.6695276e-01 0.0000000e+00 
0.0000000e+00 -1.7044796e-01 0.0000000e+00 
0.0000000e+00 -1.7534125e-01 0.0000000e+00 
0.0000000e+00 -1.8163262e-01 0.0000000e+00 
0.0000000e+00 -1.8932208e-01 0.0000000e+00 
0.0000000e+00 -1.9840963e-01 0.0000000e+00 
0.0000000e+00 -2.0889525e-01 0.0000000e+00 
0.0000000e+00 -2.2077896e-01 0.0000000e+00 
0.0000000e+00 -2.3406075e-01 0.0000000e+00 
0.0000000e+00 -2.4874063e-01 0.0000000e+00 
0.0000000e+00 -2.6481858e-01 0.0000000e+00 
0.0000000e+00 -2.3351391e-01 0.0000000e+00 
0.0000000e+00 -2.0428203e-01 0.0000000e+00 
0.0000000e+00 -1.7712294e-01 0.0000000e+00 
0.0000000e+00 -1.5203665e-01 0.0000000e+00 
0.0000000e+00 -1.2902315e-01 0.0000000e+00 
0.0000000e+00 -1.0808244e-01 0.0000000e+00 
0.0000000e+00 -8.9214541e-02 0.0000000e+00 
0.0000000e+00 -7.2419427e-02 0.0000000e+00 
0.0000000e+00 -5.7697106e-02 0.0000000e+00 
0.0000000e+00 -4.5047585e-02 0.0000000e+00 
0.0000000e+00 -3.4470860e-02 0.0000000e+00 
0.0000000e+00 -2.5966927e-02 0.0000000e+00 
0.0000000e+00 -2.7290568e-02 0.0000000e+00 
0.0000000e+00 -2.8163865e-02 0.0000000e+00 
0.0000000e+00 -2.8586818e-02 0.0000000e+00 
0.0000000e+00 -2.8559428e-02 0.0000000e+00 
0.0000000e+00 -2.8081693e-02 0.0000000e+00 
0.0000000e+00 -2.7153613e-02 0.0000000e+00 
0.0000000e+00 -2.5775190e-02 0.0000000e+00 
0.0000000e+00 -2.3946423e-02 0.0000000e+00 
0.0000000e+00 -2.1667311e-02 0.0000000e+00 
0.0000000e+00 -1.8937856e-02 0.0000000e+00 
0.0000000e+00 -1.5758056e-02 0.0000000e+00 
0.0000000e+00 -1.2127912e-02 0.0000000e+00 
0.0000000e+00 -1.0734827e-02 0.0000000e+00 
0.0000000e+00 -9.4338115e-03 0.0000000e+00 
0.0000000e+00 -8.2248654e-03 0.0000000e+00 
0.0000000e+00 -7.1079875e-03 0.0000000e+00 
0.0000000e+00 -6.0831793e-03 0.0000000e+00 
0.0000000e+00 -5.1504397e-03 0.0000000e+00 
0.0000000e+00 -4.3097693e-03 0.0000000e+00 
0.0000000e+00 -3.5611677e-03 0.0000000e+00 
0.0000000e+00 -2.9046352e-03 0.0000000e+00 
0.0000000e+00 -2.3401717e-03 0.0000000e+00 
0.0000000e+00 -1.8677771e-03 0.0000000e+00 
0.0000000e+00 -1.4874516e-03 0.0000000e+00 
0.0000000e+00 -1.5379010e-03 0.0000000e+00 
0.0000000e+00 -1.5697107e-03 0.0000000e+00 
0.0000000e+00 -1.5828803e-03 0.0000000e+00 
0.0000000e+00 -1.5774101e-03 0.0000000e+00 
0.0000000e+00 -1.5533001e-03 0.0000000e+00 
0.0000000e+00 -1.5105502e-03 0.0000000e+00 
0.0000000e+00 -1.4491604e-03 0.0000000e+00 
0.0000000e+00 -1.3691308e-03 0.0000000e+00 
0.0000000e+00 -1.2704612e-03 0.0000000e+00 
0.0000000e+00 -1.1531519e-03 0.0000000e+00 
0.0000000e+00 -1.0172026e-03 0.0000000e+00 
0.0000000e+00 -8.6261349e-04 0.0000000e+00 
0.0000000e+00 -8.0602593e-04 0.0000000e+00 
0.0000000e+00 -7.5265404e-04 0.0000000e+00 
0.0000000e+00 -7.0249784e-04 0.0000000e+00 
0.0000000e+00 -6.5555738e-04 0.0000000e+00 
0.0000000e+00 -6.1183260e-04 0.0000000e+00 
0.0000000e+00 -5.7132350e-04 0.0000000e+00 
0.0000000e+00 -5.3403008e-04 0.0000000e+00 
0.0000000e+00 -4.9995241e-04 0.0000000e+00 
0.0000000e+00 -4.6909042e-04 0.0000000e+00 
0.0000000e+00 -4.4144411e-04 0.0000000e+00 
0.0000000e+00 -4.1701351e-04 0.0000000e+00 
0.0000000e+00 -3.9579862e-04 0.0000000e+00 
0.0000000e+00 -3.6088318e-01 0.0000000e+00 
0.0000000e+00 -9.6530952e-03 0.0000000e+00 
0.0000000e+00 -7.6538566e-03 0.0000000e+00 
0.0000000e+00 -7.7406230e-04 0.0000000e+00 
0.0000000e+00 -6.6690054e-04 0.0000000e+00 
0.0000000e+00 -3.6050787e-04 0.0000000e+00 
0.0000000e+00 -4.5260459e-01 0.0000000e+00 
0.0000000e+00 3.2230073e-03 0.0000000e+00 
0.0000000e+00 -3.8964807e-03 0.0000000e+00 
0.0000000e+00 -2.1013599e-04 0.0000000e+00 
0.0000000e+00 -5.0261623e-04 0.0000000e+00 
0.0000000e+00 -3.3306392e-04 0.0000000e+00 
0.0000000e+00 -5.3998291e-01 0.0000000e+00 
0.0000000e+00 1.2661381e-02 0.0000000e+00 
0.0000000e+00 -8.5578312e-04 0.0000000e+00 
0.0000000e+00 2.0432730e-04 0.0000000e+00 
0.0000000e+00 -3.6976050e-04 0.0000000e+00 
0.0000000e+00 -3.1346671e-04 0.0000000e+00 
0.0000000e+00 3.7698197e-01 0.0000000e+00 
0.0000000e+00 1.8662026e-02 0.0000000e+00 
0.0000000e+00 1.4682357e-03 0.0000000e+00 
0.0000000e+00 4.6932758e-04 0.0000000e+00 
0.0000000e+00 -2.6833348e-04 0.0000000e+00 
0.0000000e+00 -3.0171624e-04 0.0000000e+00 
0.0000000e+00 2.9828998e-01 0.0000000e+00 
0.0000000e+00 2.1224942e-02 0.0000000e+00 
0.0000000e+00 3.0755759e-03 0.0000000e+00 
0.0000000e+00 5.8486481e-04 0.0000000e+00 
0.0000000e+00 -1.9833505e-04 0.0000000e+00 
0.0000000e+00 -2.9781257e-04 0.0000000e+00 
0.0000000e+00 2.2394112e-01 0.0000000e+00 
0.0000000e+00 2.0350128e-02 0.0000000e+00 
0.0000000e+00 3.9662374e-03 0.0000000e+00 
0.0000000e+00 5.5093906e-04 0.0000000e+00 
0.0000000e+00 -1.5976529e-04 0.0000000e+00 
0.0000000e+00 -3.0175564e-04 0.0000000e+00 
0.0000000e+00 1.5393542e-01 0.0000000e+00 
0.0000000e+00 1.6037585e-02 0.0000000e+00 
0.0000000e+00 4.1402206e-03 0.0000000e+00 
0.0000000e+00 3.6755032e-04 0.0000000e+00 
0.0000000e+00 -1.5262415e-04 0.0000000e+00 
0.0000000e+00 -3.1354546e-04 0.0000000e+00 
0.0000000e+00 8.8272862e-02 0.0000000e+00 
0.0000000e+00 8.2873153e-03 0.0000000e+00 
0.0000000e+00 3.5975247e-03 0.0000000e+00 
0.0000000e+00 3.4698529e-05 0.0000000e+00 
0.0000000e+00 -1.7691165e-04 0.0000000e+00 
0.0000000e+00 -3.3318208e-04 0.0000000e+00 
0.0000000e+00 2.6953451e-02 0.0000000e+00 
0.0000000e+00 -2.9006850e-03 0.0000000e+00 
0.0000000e+00 2.3381505e-03 0.0000000e+00 
0.0000000e+00 -4.4761627e-04 0.0000000e+00 
0.0000000e+00 -2.3262780e-04 0.0000000e+00 
0.0000000e+00 -3.6066544e-04 0.0000000e+00 
0.0000000e+00 -3.0022815e-02 0.0000000e+00 
0.0000000e+00 -1.7526414e-02 0.0000000e+00 
0.0000000e+00 3.6209737e-04 0.0000000e+00 
0.0000000e+00 -1.0793941e-03 0.0000000e+00 
0.0000000e+00 -3.1977257e-04 0.0000000e+00 
0.0000000e+00 -3.9599556e-04 0.0000000e+00 
0.0000000e+00 -8.2655936e-02 0.0000000e+00 
0.0000000e+00 -3.5589870e-02 0.0000000e+00 
0.0000000e+00 -2.3306343e-03 0.0000000e+00 
0.0000000e+00 -1.8606349e-03 0.0000000e+00 
0.0000000e+00 -4.3834600e-04 0.0000000e+00 
0.0000000e+00 -4.3917244e-04 0.0000000e+00 
0.0000000e+00 -2.3160791e-01 0.0000000e+00 
0.0000000e+00 -2.3090887e-01 0.0000000e+00 
0.0000000e+00 -2.2881174e-01 0.0000000e+00 
0.0000000e+00 -2.2531654e-01 0.0000000e+00 
0.0000000e+00 -2.2042324e-01 0.0000000e+00 
0.0000000e+00 -2.1413186e-01 0.0000000e+00 
0.0000000e+00 -2.0644240e-01 0.0000000e+00 
0.0000000e+00 -1.9735487e-01 0.0000000e+00 
0.0000000e+00 -1.8686923e-01 0.0000000e+00 
0.0000000e+00 -1.7498553e-01 0.0000000e+00 
0.0000000e+00 -1.6170374e-01 0.0000000e+00 
0.0000000e+00 -1.4702387e-01 0.0000000e+00 
0.0000000e+00 -1.3094591e-01 0.0000000e+00 
0.0000000e+00 -1.3619171e-01 0.0000000e+00 
0.0000000e+00 -1.3936472e-01 0.0000000e+00 
0.0000000e+00 -1.4046493e-01 0.0000000e+00 
0.0000000e+00 -1.3949235e-01 0.0000000e+00 
0.0000000e+00 -1.3644697e-01 0.0000000e+00 
0.0000000e+00 -1.3132879e-01 0.0000000e+00 
0.0000000e+00 -1.2413783e-01 0.0000000e+00 
0.0000000e+00 -1.1487406e-01 0.0000000e+00 
0.0000000e+00 -1.0353751e-01 0.0000000e+00 
0.0000000e+00 -9.0128154e-02 0.0000000e+00 
0.0000000e+00 -7.4646004e-02 0.0000000e+00 
0.0000000e+00 -5.7091057e-02 0.0000000e+00 
0.0000000e+00 -5.0334916e-02 0.0000000e+00 
0.0000000e+00 -4.4029113e-02 0.0000000e+00 
0.0000000e+00 -3.8173661e-02 0.0000000e+00 
0.0000000e+00 -3.2768548e-02 0.0000000e+00 
0.0000000e+00 -2.7813781e-02 0.0000000e+00 
0.0000000e+00 -2.3309357e-02 0.0000000e+00 
0.0000000e+00 -1.9255279e-02 0.0000000e+00 
0.0000000e+00 -1.5651543e-02 0.0000000e+00 
0.0000000e+00 -1.2498152e-02 0.0000000e+00 
0.0000000e+00 -9.7951060e-03 0.0000000e+00 
0.0000000e+00 -7.5424029e-03 0.0000000e+00 
0.0000000e+00 -5.7400446e-03 0.0000000e+00 
0.0000000e+00 -6.0006985e-03 0.0000000e+00 
0.0000000e+00 -6.1692838e-03 0.0000000e+00 
0.0000000e+00 -6.2457994e-03 0.0000000e+00 
0.0000000e+00 -6.2302467e-03 0.0000000e+00 
0.0000000e+00 -6.1226245e-03 0.0000000e+00 
0.0000000e+00 -5.9229336e-03 0.0000000e+00 
0.0000000e+00 -5.6311735e-03 0.0000000e+00 
0.0000000e+00 -5.2473447e-03 0.0000000e+00 
0.0000000e+00 -4.7714468e-03 0.0000000e+00 
0.0000000e+00 -4.2034797e-03 0.0000000e+00 
0.0000000e+00 -3.5434437e-03 0.0000000e+00 
0.0000000e+00 -2.7913388e-03 0.0000000e+00 
0.0000000e+00 -2.5052370e-03 0.0000000e+00 
0.0000000e+00 -2.2377749e-03 0.0000000e+00 
0.0000000e+00 -1.9889527e-03 0.0000000e+00 
0.0000000e+00 -1.7587706e-03 0.0000000e+00 
0.0000000e+00 -1.5472282e-03 0.0000000e+00 
0.0000000e+00 -1.3543258e-03 0.0000000e+00 
0.0000000e+00 -1.1800631e-03 0.0000000e+00 
0.0000000e+00 -1.0244404e-03 0.0000000e+00 
0.0000000e+00 -8.8745751e-04 0.0000000e+00 
0.0000000e+00 -7.6911447e-04 0.0000000e+00 
0.0000000e+00 -6.6941133e-04 0.0000000e+00 
0.0000000e+00 -5.8834808e-04 0.0000000e+00 
0.0000000e+00 -5.9785508e-04 0.0000000e+00 
0.0000000e+00 -6.0414639e-04 0.0000000e+00 