# vtk DataFile Version 4.0
vtk output
ASCII
DATASET UNSTRUCTURED_GRID
POINTS 30 float
0.0000000e+00 0.0000000e+00 0.0000000e+00 
0.0000000e+00 0.0000000e+00 8.0000001e-01 
0.0000000e+00 0.0000000e+00 1.6000000e+00 
0.0000000e+00 0.0000000e+00 2.4000001e+00 
0.0000000e+00 0.0000000e+00 3.2000000e+00 
0.0000000e+00 0.0000000e+00 4.0000000e+00 
0.0000000e+00 0.0000000e+00 4.8000002e+00 
0.0000000e+00 0.0000000e+00 5.5999999e+00 
0.0000000e+00 0.0000000e+00 6.4000001e+00 
0.0000000e+00 0.0000000e+00 7.1999998e+00 
0.0000000e+00 0.0000000e+00 8.0000000e+00 
1.0000000e+01 0.0000000e+00 0.0000000e+00 
1.0000000e+01 0.0000000e+00 8.0000001e-01 
1.0000000e+01 0.0000000e+00 1.6000000e+00 
1.0000000e+01 0.0000000e+00 2.4000001e+00 
1.0000000e+01 0.0000000e+00 3.2000000e+00 
1.0000000e+01 0.0000000e+00 4.0000000e+00 
1.0000000e+01 0.0000000e+00 4.8000002e+00 
1.0000000e+01 0.0000000e+00 5.5999999e+00 
1.0000000e+01 0.0000000e+00 6.4000001e+00 
1.0000000e+01 0.0000000e+00 7.1999998e+00 
1.0000000e+01 0.0000000e+00 8.0000000e+00 
2.0000000e+00 0.0000000e+00 4.0000000e+00 
4.0000000e+00 0.0000000e+00 4.0000000e+00 
6.0000000e+00 0.0000000e+00 4.0000000e+00 
8.0000000e+00 0.0000000e+00 4.0000000e+00 
2.0000000e+00 0.0000000e+00 8.0000000e+00 
4.0000000e+00 0.0000000e+00 8.0000000e+00 
6.0000000e+00 0.0000000e+00 8.0000000e+00 
8.0000000e+00 0.0000000e+00 8.0000000e+00 

CELLS 30 90
2 0 1
2 1 2
2 2 3
2 3 4
2 4 5
2 5 6
2 6 7
2 7 8
2 8 9
2 9 10
2 11 12
2 12 13
2 13 14
2 14 15
2 15 16
2 16 17
2 17 18
2 18 19
2 19 20
2 20 21
2 5 22
2 22 23
2 23 24
2 24 25
2 25 16
2 10 26
2 26 27
2 27 28
2 28 29
2 29 21

CELL_TYPES 30
3
3
3
3
3
3
3
3
3
3
3
3
3
3
3
3
3
3
3
3
3
3
3
3
3
3
3
3
3
3
POINT_DATA 30
FIELD FieldData 7
DISPLACEMENT 3 30  float
0.0000000e+00 0.0000000e+00 0.0000000e+00 
2.0409478e-03 0.0000000e+00 1.5764394e-06 
3.9105485e-03 0.0000000e+00 3.2388375e-06 
5.5306400e-03 0.0000000e+00 2.2825793e-06 
6.8966849e-03 0.0000000e+00 2.9372572e-06 
7.9498347e-03 0.0000000e+00 3.5919352e-06 
8.6848857e-03 0.0000000e+00 2.0131170e-06 
9.0966811e-03 0.0000000e+00 -3.6620335e-07 
9.1762338e-03 0.0000000e+00 -2.7455237e-06 
8.9559890e-03 0.0000000e+00 -5.4064681e-06 
8.5383598e-03 0.0000000e+00 -5.1866282e-06 
0.0000000e+00 0.0000000e+00 0.0000000e+00 
2.0495381e-03 0.0000000e+00 -5.7404504e-06 
4.0296819e-03 0.0000000e+00 -1.2387729e-05 
5.8058812e-03 0.0000000e+00 -1.7881617e-05 
7.1592899e-03 0.0000000e+00 -2.2685363e-05 
7.9162633e-03 0.0000000e+00 -2.5427729e-05 
8.2062026e-03 0.0000000e+00 -2.3322600e-05 
8.3107520e-03 0.0000000e+00 -2.1217473e-05 
8.3351173e-03 0.0000000e+00 -1.9112344e-05 
8.3845071e-03 0.0000000e+00 -1.7007216e-05 
8.5641276e-03 0.0000000e+00 -1.4902088e-05 
7.9478193e-03 0.0000000e+00 -1.6461504e-03 
7.9458039e-03 0.0000000e+00 -2.0444805e-03 
7.9383291e-03 0.0000000e+00 -1.1638534e-03 
7.9308534e-03 0.0000000e+00 -4.0765619e-05 
8.5391300e-03 0.0000000e+00 1.4733431e-03 
8.5439114e-03 0.0000000e+00 2.6002894e-03 
8.5517988e-03 0.0000000e+00 2.4558869e-03 
8.5579632e-03 0.0000000e+00 1.1864555e-03 
ROTATION 3 30  float
0.0000000e+00 2.5907843e-03 0.0000000e+00 
0.0000000e+00 2.4719855e-03 0.0000000e+00 
0.0000000e+00 2.1858311e-03 0.0000000e+00 
0.0000000e+00 1.8710358e-03 0.0000000e+00 
0.0000000e+00 1.5280365e-03 0.0000000e+00 
0.0000000e+00 1.0887982e-03 0.0000000e+00 
0.0000000e+00 7.2673848e-04 0.0000000e+00 
0.0000000e+00 3.0492118e-04 0.0000000e+00 
0.0000000e+00 -1.0386580e-04 0.0000000e+00 
0.0000000e+00 -4.1705230e-04 0.0000000e+00 
0.0000000e+00 -6.1995385e-04 0.0000000e+00 
0.0000000e+00 2.5741281e-03 0.0000000e+00 
0.0000000e+00 2.5375120e-03 0.0000000e+00 
0.0000000e+00 2.3871304e-03 0.0000000e+00 
0.0000000e+00 2.0002534e-03 0.0000000e+00 
0.0000000e+00 1.3478867e-03 0.0000000e+00 
0.0000000e+00 5.2213034e-04 0.0000000e+00 
0.0000000e+00 2.2463720e-04 0.0000000e+00 
0.0000000e+00 5.8653328e-05 0.0000000e+00 
0.0000000e+00 2.4178706e-05 0.0000000e+00 
0.0000000e+00 1.2121334e-04 0.0000000e+00 
0.0000000e+00 3.4975723e-04 0.0000000e+00 
0.0000000e+00 5.3648115e-04 0.0000000e+00 
0.0000000e+00 -1.6261388e-04 0.0000000e+00 
0.0000000e+00 -6.0947106e-04 0.0000000e+00 
0.0000000e+00 -4.0507445e-04 0.0000000e+00 
0.0000000e+00 -7.5075962e-04 0.0000000e+00 
0.0000000e+00 -2.8522173e-04 0.0000000e+00 
0.0000000e+00 4.1783095e-04 0.0000000e+00 
0.0000000e+00 7.3464878e-04 0.0000000e+00 
REACTION 3 30  float
-1.1694264e+04 -0.0000000e+00 -4.1381533e+03 
1.0913936e-10 -0.0000000e+00 -0.0000000e+00 
1.7826096e-10 -0.0000000e+00 9.0949470e-13 
-4.8748916e-10 -0.0000000e+00 -0.0000000e+00 
9.3132257e-10 -0.0000000e+00 -9.0949470e-13 
-2.0554580e-09 -0.0000000e+00 -1.4006218e-10 
6.2245817e-09 -0.0000000e+00 -1.7644197e-10 
5.7480065e-10 -0.0000000e+00 1.9099389e-11 
1.3133103e-09 -0.0000000e+00 -5.6388672e-11 
4.3019099e-10 -0.0000000e+00 4.5474735e-12 
-5.5342753e-10 -0.0000000e+00 2.7284841e-12 
-3.6043892e+03 -0.0000000e+00 1.5068682e+04 
3.1013769e-10 -0.0000000e+00 -0.0000000e+00 
5.7116267e-10 -0.0000000e+00 1.8189894e-11 
-8.0035534e-11 -0.0000000e+00 -5.2750693e-11 
-1.9354047e-09 -0.0000000e+00 2.0918378e-11 
-1.2023520e-09 -0.0000000e+00 -2.2482709e-09 
-6.0390448e-10 -0.0000000e+00 -0.0000000e+00 
1.8562787e-09 -0.0000000e+00 7.2759576e-12 
-1.1286829e-09 -0.0000000e+00 1.4551915e-11 
3.8562575e-10 -0.0000000e+00 -0.0000000e+00 
9.3132257e-10 -0.0000000e+00 7.3487172e-10 
-0.0000000e+00 -0.0000000e+00 3.7107384e-10 
-9.2040864e-10 -0.0000000e+00 1.9736035e-10 
-9.3132257e-10 -0.0000000e+00 3.7834980e-10 
-2.7903297e-09 -0.0000000e+00 -2.5465852e-11 
4.9840310e-10 -0.0000000e+00 1.2732926e-11 
-3.4633558e-09 -0.0000000e+00 -0.0000000e+00 
2.0754669e-09 -0.0000000e+00 -4.6657078e-10 
-0.0000000e+00 -0.0000000e+00 -1.4551915e-11 
REACTION_MOMENT 3 30  float
-0.0000000e+00 -1.1641532e-10 -0.0000000e+00 
-0.0000000e+00 8.7311491e-11 -0.0000000e+00 
-0.0000000e+00 1.7462298e-10 -0.0000000e+00 
-0.0000000e+00 -5.8207661e-10 -0.0000000e+00 
-0.0000000e+00 9.1677066e-10 -0.0000000e+00 
-0.0000000e+00 1.4806574e-09 -0.0000000e+00 
-0.0000000e+00 -1.7898856e-09 -0.0000000e+00 
-0.0000000e+00 -4.5838533e-10 -0.0000000e+00 
-0.0000000e+00 1.8408173e-09 -0.0000000e+00 
-0.0000000e+00 2.1827873e-11 -0.0000000e+00 
-0.0000000e+00 -5.6388672e-10 -0.0000000e+00 
-0.0000000e+00 -2.9103830e-11 -0.0000000e+00 
-0.0000000e+00 1.1641532e-10 -0.0000000e+00 
-0.0000000e+00 -1.1641532e-10 -0.0000000e+00 
-0.0000000e+00 -4.3655746e-11 -0.0000000e+00 
-0.0000000e+00 1.4551915e-11 -0.0000000e+00 
-0.0000000e+00 -5.1659299e-10 -0.0000000e+00 
-0.0000000e+00 4.3655746e-11 -0.0000000e+00 
-0.0000000e+00 1.2805685e-09 -0.0000000e+00 
-0.0000000e+00 2.0190782e-10 -0.0000000e+00 
-0.0000000e+00 5.9299055e-10 -0.0000000e+00 
-0.0000000e+00 -2.3283064e-10 -0.0000000e+00 
-0.0000000e+00 1.4551915e-10 -0.0000000e+00 
-0.0000000e+00 2.7284841e-11 -0.0000000e+00 
-0.0000000e+00 -6.5483619e-11 -0.0000000e+00 
-0.0000000e+00 -5.0931703e-11 -0.0000000e+00 
-0.0000000e+00 -3.6379788e-12 -0.0000000e+00 
-0.0000000e+00 9.0949470e-12 -0.0000000e+00 
-0.0000000e+00 -0.0000000e+00 -0.0000000e+00 
-0.0000000e+00 -2.7284841e-11 -0.0000000e+00 
VOLUME_ACCELERATION 3 30  float
0.0000000e+00 0.0000000e+00 0.0000000e+00 
0.0000000e+00 0.0000000e+00 0.0000000e+00 
0.0000000e+00 0.0000000e+00 0.0000000e+00 
0.0000000e+00 0.0000000e+00 0.0000000e+00 
0.0000000e+00 0.0000000e+00 0.0000000e+00 
0.0000000e+00 0.0000000e+00 0.0000000e+00 
0.0000000e+00 0.0000000e+00 0.0000000e+00 
0.0000000e+00 0.0000000e+00 0.0000000e+00 
0.0000000e+00 0.0000000e+00 0.0000000e+00 
0.0000000e+00 0.0000000e+00 0.0000000e+00 
0.0000000e+00 0.0000000e+00 0.0000000e+00 
0.0000000e+00 0.0000000e+00 0.0000000e+00 
0.0000000e+00 0.0000000e+00 0.0000000e+00 
0.0000000e+00 0.0000000e+00 0.0000000e+00 
0.0000000e+00 0.0000000e+00 0.0000000e+00 
0.0000000e+00 0.0000000e+00 0.0000000e+00 
0.0000000e+00 0.0000000e+00 0.0000000e+00 
0.0000000e+00 0.0000000e+00 0.0000000e+00 
0.0000000e+00 0.0000000e+00 0.0000000e+00 
0.0000000e+00 0.0000000e+00 0.0000000e+00 
0.0000000e+00 0.0000000e+00 0.0000000e+00 
0.0000000e+00 0.0000000e+00 0.0000000e+00 
0.0000000e+00 0.0000000e+00 0.0000000e+00 
0.0000000e+00 0.0000000e+00 0.0000000e+00 
0.0000000e+00 0.0000000e+00 0.0000000e+00 
0.0000000e+00 0.0000000e+00 0.0000000e+00 
0.0000000e+00 0.0000000e+00 0.0000000e+00 
0.0000000e+00 0.0000000e+00 0.0000000e+00 
0.0000000e+00 0.0000000e+00 0.0000000e+00 
0.0000000e+00 0.0000000e+00 0.0000000e+00 
POINT_LOAD 3 30  float
0.0000000e+00 0.0000000e+00 0.0000000e+00 
6.9144751e+03 0.0000000e+00 -2.2564114e+02 
6.7402314e+03 0.0000000e+00 6.8739722e+03 
-6.6972119e+03 0.0000000e+00 -4.2287070e+03 
0.0000000e+00 0.0000000e+00 0.0000000e+00 
3.2903125e+02 0.0000000e+00 7.0188042e+03 
7.1650742e+03 0.0000000e+00 2.1013184e+03 
0.0000000e+00 0.0000000e+00 0.0000000e+00 
8.1279941e+03 0.0000000e+00 7.3926300e+02 
-6.6824873e+03 0.0000000e+00 -7.5620591e+03 
-2.8951414e+03 0.0000000e+00 -4.5172388e+03 
0.0000000e+00 0.0000000e+00 0.0000000e+00 
-3.9900142e+03 0.0000000e+00 2.3804243e+03 
-8.0912129e+03 0.0000000e+00 -3.0276497e+03 
5.2370796e+03 0.0000000e+00 -1.8116256e+03 
3.8290298e+03 0.0000000e+00 -5.4111172e+03 
-2.2276909e+03 0.0000000e+00 -6.4690693e+03 
0.0000000e+00 0.0000000e+00 0.0000000e+00 
0.0000000e+00 0.0000000e+00 0.0000000e+00 
0.0000000e+00 0.0000000e+00 0.0000000e+00 
0.0000000e+00 0.0000000e+00 0.0000000e+00 
0.0000000e+00 0.0000000e+00 0.0000000e+00 
0.0000000e+00 0.0000000e+00 0.0000000e+00 
5.7330991e+03 0.0000000e+00 -6.2845005e+03 
0.0000000e+00 0.0000000e+00 0.0000000e+00 
7.4708218e+03 0.0000000e+00 -1.1269823e+03 
-4.2127856e+03 0.0000000e+00 7.9622449e+02 
-3.2603213e+03 0.0000000e+00 4.8553315e+03 
1.8086821e+03 0.0000000e+00 4.9687246e+03 
0.0000000e+00 0.0000000e+00 0.0000000e+00 
POINT_MOMENT 3 30  float
0.0000000e+00 0.0000000e+00 0.0000000e+00 
0.0000000e+00 0.0000000e+00 0.0000000e+00 
0.0000000e+00 0.0000000e+00 0.0000000e+00 
0.0000000e+00 0.0000000e+00 0.0000000e+00 
0.0000000e+00 0.0000000e+00 0.0000000e+00 
0.0000000e+00 0.0000000e+00 0.0000000e+00 
0.0000000e+00 0.0000000e+00 0.0000000e+00 
0.0000000e+00 0.0000000e+00 0.0000000e+00 
0.0000000e+00 0.0000000e+00 0.0000000e+00 
0.0000000e+00 0.0000000e+00 0.0000000e+00 
0.0000000e+00 0.0000000e+00 0.0000000e+00 
0.0000000e+00 0.0000000e+00 0.0000000e+00 
0.0000000e+00 0.0000000e+00 0.0000000e+00 
0.0000000e+00 0.0000000e+00 0.0000000e+00 
0.0000000e+00 0.0000000e+00 0.0000000e+00 
0.0000000e+00 0.0000000e+00 0.0000000e+00 
0.0000000e+00 0.0000000e+00 0.0000000e+00 
0.0000000e+00 0.0000000e+00 0.0000000e+00 
0.0000000e+00 0.0000000e+00 0.0000000e+00 
0.0000000e+00 0.0000000e+00 0.0000000e+00 
0.0000000e+00 0.0000000e+00 0.0000000e+00 
0.0000000e+00 0.0000000e+00 0.0000000e+00 
0.0000000e+00 0.0000000e+00 0.0000000e+00 
0.0000000e+00 0.0000000e+00 0.0000000e+00 
0.0000000e+00 0.0000000e+00 0.0000000e+00 
0.0000000e+00 0.0000000e+00 0.0000000e+00 
0.0000000e+00 0.0000000e+00 0.0000000e+00 
0.0000000e+00 0.0000000e+00 0.0000000e+00 
0.0000000e+00 0.0000000e+00 0.0000000e+00 
0.0000000e+00 0.0000000e+00 0.0000000e+00 
CELL_DATA 30
FIELD FieldData 9
YOUNG_MODULUS 1 30  float
2.1000000e+11
2.1000000e+11
2.1000000e+11
2.1000000e+11
2.1000000e+11
2.1000000e+11
2.1000000e+11
2.1000000e+11
2.1000000e+11
2.1000000e+11
2.1000000e+11
2.1000000e+11
2.1000000e+11
2.1000000e+11
2.1000000e+11
2.1000000e+11
2.1000000e+11
2.1000000e+11
2.1000000e+11
2.1000000e+11
2.1000000e+11
2.1000000e+11
2.1000000e+11
2.1000000e+11
2.1000000e+11
2.1000000e+11
2.1000000e+11
2.1000000e+11
2.1000000e+11
2.1000000e+11
DENSITY 1 30  float
7.8500000e+03
7.8500000e+03
7.8500000e+03
7.8500000e+03
7.8500000e+03
7.8500000e+03
7.8500000e+03
7.8500000e+03
7.8500000e+03
7.8500000e+03
7.8500000e+03
7.8500000e+03
7.8500000e+03
7.8500000e+03
7.8500000e+03
7.8500000e+03
7.8500000e+03
7.8500000e+03
7.8500000e+03
7.8500000e+03
7.8500000e+03
7.8500000e+03
7.8500000e+03
7.8500000e+03
7.8500000e+03
7.8500000e+03
7.8500000e+03
7.8500000e+03
7.8500000e+03
7.8500000e+03
CROSS_AREA 1 30  float
9.9999998e-03
9.9999998e-03
9.9999998e-03
9.9999998e-03
9.9999998e-03
9.9999998e-03
9.9999998e-03
9.9999998e-03
9.9999998e-03
9.9999998e-03
9.9999998e-03
9.9999998e-03
9.9999998e-03
9.9999998e-03
9.9999998e-03
9.9999998e-03
9.9999998e-03
9.9999998e-03
9.9999998e-03
9.9999998e-03
9.9999998e-03
9.9999998e-03
9.9999998e-03
9.9999998e-03
9.9999998e-03
9.9999998e-03
9.9999998e-03
9.9999998e-03
9.9999998e-03
9.9999998e-03
I22 1 30  float
1.5000001e-04
1.5000001e-04
1.5000001e-04
1.5000001e-04
1.5000001e-04
1.5000001e-04
1.5000001e-04
1.5000001e-04
1.5000001e-04
1.5000001e-04
1.5000001e-04
1.5000001e-04
1.5000001e-04
1.5000001e-04
1.5000001e-04
1.5000001e-04
1.5000001e-04
1.5000001e-04
1.5000001e-04
1.5000001e-04
1.5000001e-04
1.5000001e-04
1.5000001e-04
1.5000001e-04
1.5000001e-04
1.5000001e-04
1.5000001e-04
1.5000001e-04
1.5000001e-04
1.5000001e-04
I33 1 30  float
1.5000001e-04
1.5000001e-04
1.5000001e-04
1.5000001e-04
1.5000001e-04
1.5000001e-04
1.5000001e-04
1.5000001e-04
1.5000001e-04
1.5000001e-04
1.5000001e-04
1.5000001e-04
1.5000001e-04
1.5000001e-04
1.5000001e-04
1.5000001e-04
1.5000001e-04
1.5000001e-04
1.5000001e-04
1.5000001e-04
1.5000001e-04
1.5000001e-04
1.5000001e-04
1.5000001e-04
1.5000001e-04
1.5000001e-04
1.5000001e-04
1.5000001e-04
1.5000001e-04
1.5000001e-04
TORSIONAL_INERTIA 1 30  float
3.0000001e-04
3.0000001e-04
3.0000001e-04
3.0000001e-04
3.0000001e-04
3.0000001e-04
3.0000001e-04
3.0000001e-04
3.0000001e-04
3.0000001e-04
3.0000001e-04
3.0000001e-04
3.0000001e-04
3.0000001e-04
3.0000001e-04
3.0000001e-04
3.0000001e-04
3.0000001e-04
3.0000001e-04
3.0000001e-04
3.0000001e-04
3.0000001e-04
3.0000001e-04
3.0000001e-04
3.0000001e-04
3.0000001e-04
3.0000001e-04
3.0000001e-04
3.0000001e-04
3.0000001e-04
POISSON_RATIO 1 30  float
3.0000001e-01
3.0000001e-01
3.0000001e-01
3.0000001e-01
3.0000001e-01
3.0000001e-01
3.0000001e-01
3.0000001e-01
3.0000001e-01
3.0000001e-01
3.0000001e-01
3.0000001e-01
3.0000001e-01
3.0000001e-01
3.0000001e-01
3.0000001e-01
3.0000001e-01
3.0000001e-01
3.0000001e-01
3.0000001e-01
3.0000001e-01
3.0000001e-01
3.0000001e-01
3.0000001e-01
3.0000001e-01
3.0000001e-01
3.0000001e-01
3.0000001e-01
3.0000001e-01
3.0000001e-01
MOMENT 3 30  float
0.0000000e+00 -4.6777056e+03 0.0000000e+00 
0.0000000e+00 -1.1267326e+04 0.0000000e+00 
0.0000000e+00 -1.2395065e+04 0.0000000e+00 
0.0000000e+00 -1.3505596e+04 0.0000000e+00 
0.0000000e+00 -1.7295012e+04 0.0000000e+00 
0.0000000e+00 -1.4256099e+04 0.0000000e+00 
0.0000000e+00 -1.6609057e+04 0.0000000e+00 
0.0000000e+00 -1.6095987e+04 0.0000000e+00 
0.0000000e+00 -1.2331719e+04 0.0000000e+00 
0.0000000e+00 -7.9892480e+03 0.0000000e+00 
0.0000000e+00 -1.4417556e+03 0.0000000e+00 
0.0000000e+00 -5.9212725e+03 0.0000000e+00 
0.0000000e+00 -1.5233280e+04 0.0000000e+00 
0.0000000e+00 -2.5686941e+04 0.0000000e+00 
0.0000000e+00 -3.2514158e+04 0.0000000e+00 
0.0000000e+00 -1.1713792e+04 0.0000000e+00 
0.0000000e+00 -6.5356152e+03 0.0000000e+00 
0.0000000e+00 -1.3574382e+03 0.0000000e+00 
0.0000000e+00 3.8207385e+03 0.0000000e+00 
0.0000000e+00 8.9989150e+03 0.0000000e+00 
0.0000000e+00 -8.6989922e+03 0.0000000e+00 
0.0000000e+00 -1.1010747e+04 0.0000000e+00 
0.0000000e+00 -7.0380005e+03 0.0000000e+00 
0.0000000e+00 3.2192463e+03 0.0000000e+00 
0.0000000e+00 1.4603476e+04 0.0000000e+00 
0.0000000e+00 -2.0601912e+03 0.0000000e+00 
0.0000000e+00 7.3322222e+03 0.0000000e+00 
0.0000000e+00 1.1073080e+04 0.0000000e+00 
0.0000000e+00 4.9898809e+03 0.0000000e+00 
0.0000000e+00 -6.0620425e+03 0.0000000e+00 
FORCE 3 30  float
4.1381533e+03 0.0000000e+00 -1.1694264e+04 
4.3637944e+03 0.0000000e+00 -4.7797886e+03 
-2.5101772e+03 0.0000000e+00 1.9604425e+03 
1.7185295e+03 0.0000000e+00 -4.7367695e+03 
1.7185295e+03 0.0000000e+00 -4.7367695e+03 
-4.1443975e+03 0.0000000e+00 -6.5237363e+03 
-6.2457158e+03 0.0000000e+00 6.4133813e+02 
-6.2457158e+03 0.0000000e+00 6.4133813e+02 
-6.9849790e+03 0.0000000e+00 8.7693320e+03 
5.7708014e+02 0.0000000e+00 2.0868450e+03 
-1.5068682e+04 0.0000000e+00 -3.6043892e+03 
-1.7449105e+04 0.0000000e+00 -7.5944033e+03 
-1.4421456e+04 0.0000000e+00 -1.5685616e+04 
-1.2609831e+04 0.0000000e+00 -1.0448536e+04 
-7.1987134e+03 0.0000000e+00 -6.6195068e+03 
5.5259614e+03 0.0000000e+00 6.4727212e+03 
5.5259614e+03 0.0000000e+00 6.4727212e+03 
5.5259614e+03 0.0000000e+00 6.4727212e+03 
5.5259614e+03 0.0000000e+00 6.4727212e+03 
5.5259614e+03 0.0000000e+00 6.4727212e+03 
-2.1159978e+03 0.0000000e+00 -1.1558771e+03 
-2.1159978e+03 0.0000000e+00 -1.1558771e+03 
-7.8490972e+03 0.0000000e+00 5.1286235e+03 
-7.8490972e+03 0.0000000e+00 5.1286235e+03 
-1.5319919e+04 0.0000000e+00 6.2556055e+03 
8.0829639e+02 0.0000000e+00 5.0943188e+03 
5.0210820e+03 0.0000000e+00 4.2980942e+03 
8.2814033e+03 0.0000000e+00 -5.5723694e+02 
6.4727212e+03 0.0000000e+00 -5.5259614e+03 
6.4727212e+03 0.0000000e+00 -5.5259614e+03 
