# vtk DataFile Version 4.0
vtk output
ASCII
DATASET UNSTRUCTURED_GRID
POINTS 11 float
0.0000000e+00 0.0000000e+00 0.0000000e+00 
1.0000000e-01 0.0000000e+00 0.0000000e+00 
2.0000000e-01 0.0000000e+00 0.0000000e+00 
3.0000001e-01 0.0000000e+00 0.0000000e+00 
4.0000001e-01 0.0000000e+00 0.0000000e+00 
5.0000000e-01 0.0000000e+00 0.0000000e+00 
6.0000002e-01 0.0000000e+00 0.0000000e+00 
6.9999999e-01 0.0000000e+00 0.0000000e+00 
8.0000001e-01 0.0000000e+00 0.0000000e+00 
8.9999998e-01 0.0000000e+00 0.0000000e+00 
1.0000000e+00 0.0000000e+00 0.0000000e+00 

CELLS 10 30
2 0 1
2 1 2
2 2 3
2 3 4
2 4 5
2 5 6
2 6 7
2 7 8
2 8 9
2 9 10

CELL_TYPES 10
3
3
3
3
3
3
3
3
3
3
POINT_DATA 11
FIELD FieldData 5
DISPLACEMENT 3 11  float
0.0000000e+00 0.0000000e+00 0.0000000e+00 
0.0000000e+00 -1.6071428e-05 0.0000000e+00 
0.0000000e+00 -5.0793649e-05 0.0000000e+00 
0.0000000e+00 -8.7499997e-05 0.0000000e+00 
0.0000000e+00 -1.1428571e-04 0.0000000e+00 
0.0000000e+00 -1.2400794e-04 0.0000000e+00 
0.0000000e+00 -1.1428571e-04 0.0000000e+00 
0.0000000e+00 -8.7499997e-05 0.0000000e+00 
0.0000000e+00 -5.0793649e-05 0.0000000e+00 
0.0000000e+00 -1.6071428e-05 0.0000000e+00 
0.0000000e+00 0.0000000e+00 0.0000000e+00 
ROTATION 3 11  float
0.0000000e+00 0.0000000e+00 0.0000000e+00 
0.0000000e+00 0.0000000e+00 -2.8571428e-04 
0.0000000e+00 0.0000000e+00 -3.8095238e-04 
0.0000000e+00 0.0000000e+00 -3.3333333e-04 
0.0000000e+00 0.0000000e+00 -1.9047619e-04 
0.0000000e+00 0.0000000e+00 -2.6020852e-18 
0.0000000e+00 0.0000000e+00 1.9047619e-04 
0.0000000e+00 0.0000000e+00 3.3333333e-04 
0.0000000e+00 0.0000000e+00 3.8095238e-04 
0.0000000e+00 0.0000000e+00 2.8571428e-04 
0.0000000e+00 0.0000000e+00 0.0000000e+00 
ADJOINT_DISPLACEMENT 3 11  float
0.0000000e+00 0.0000000e+00 0.0000000e+00 
0.0000000e+00 -4.9999999e-03 0.0000000e+00 
0.0000000e+00 -2.0000000e-02 0.0000000e+00 
0.0000000e+00 -4.5000002e-02 0.0000000e+00 
0.0000000e+00 -7.9999998e-02 0.0000000e+00 
0.0000000e+00 -1.2500000e-01 0.0000000e+00 
0.0000000e+00 -7.9999998e-02 0.0000000e+00 
0.0000000e+00 -4.5000002e-02 0.0000000e+00 
0.0000000e+00 -2.0000000e-02 0.0000000e+00 
0.0000000e+00 -4.9999999e-03 0.0000000e+00 
0.0000000e+00 0.0000000e+00 0.0000000e+00 
ADJOINT_ROTATION 3 11  float
0.0000000e+00 0.0000000e+00 0.0000000e+00 
0.0000000e+00 0.0000000e+00 -1.0000000e-01 
0.0000000e+00 0.0000000e+00 -2.0000000e-01 
0.0000000e+00 0.0000000e+00 -3.0000001e-01 
0.0000000e+00 0.0000000e+00 -4.0000001e-01 
0.0000000e+00 0.0000000e+00 -5.0000000e-01 
0.0000000e+00 0.0000000e+00 4.0000001e-01 
0.0000000e+00 0.0000000e+00 3.0000001e-01 
0.0000000e+00 0.0000000e+00 2.0000000e-01 
0.0000000e+00 0.0000000e+00 1.0000000e-01 
0.0000000e+00 0.0000000e+00 0.0000000e+00 
SHAPE_SENSITIVITY 3 11  float
-8.5000306e-02 -1.1505137e-07 6.8152083e-08 
-1.7453206e-06 -1.1404703e-06 9.6473521e-08 
-3.8641369e-06 -2.8797833e-06 3.2415041e-08 
-4.8666930e-06 -3.7532973e-06 2.1958129e-09 
-3.5444536e-06 -2.7624330e-06 5.2392117e-09 
-2.2159052e-06 -1.7323431e-06 7.0495346e-08 
-3.5498826e-06 -2.7658498e-06 6.2135364e-08 
-4.8680004e-06 -3.7541629e-06 1.5105972e-09 
-3.8671064e-06 -2.8801053e-06 3.1982054e-08 
-1.7452595e-06 -1.1404204e-06 9.6562339e-08 
8.4999695e-02 -1.1498476e-07 6.8202041e-08 
CELL_DATA 10
FIELD FieldData 2
I33_SENSITIVITY 1 10  float
-6.0000002e-01
6.0000002e-01
6.0000002e-01
6.0000002e-01
6.0000002e-01
3.9999998e-01
3.0000001e-01
9.9999987e-02
-2.0000000e-01
-6.0000002e-01
YOUNG_MODULUS_SENSITIVITY 1 10  float
-2.8571428e-06
2.8571433e-06
2.8571433e-06
2.8571433e-06
2.8571433e-06
1.9047618e-06
1.4285714e-06
4.7619045e-07
-9.5238096e-07
-2.8571428e-06
