# vtk DataFile Version 4.0
vtk output
ASCII
DATASET UNSTRUCTURED_GRID
POINTS 11 float
0.0000000e+00 0.0000000e+00 0.0000000e+00 
1.0000000e-01 0.0000000e+00 0.0000000e+00 
2.0000000e-01 0.0000000e+00 0.0000000e+00 
3.0000001e-01 0.0000000e+00 0.0000000e+00 
4.0000001e-01 0.0000000e+00 0.0000000e+00 
5.0000000e-01 0.0000000e+00 0.0000000e+00 
6.0000002e-01 0.0000000e+00 0.0000000e+00 
6.9999999e-01 0.0000000e+00 0.0000000e+00 
8.0000001e-01 0.0000000e+00 0.0000000e+00 
8.9999998e-01 0.0000000e+00 0.0000000e+00 
1.0000000e+00 0.0000000e+00 0.0000000e+00 

CELLS 10 30
2 0 1
2 1 2
2 2 3
2 3 4
2 4 5
2 5 6
2 6 7
2 7 8
2 8 9
2 9 10

CELL_TYPES 10
3
3
3
3
3
3
3
3
3
3
POINT_DATA 11
FIELD FieldData 5
DISPLACEMENT 3 11  float
0.0000000e+00 0.0000000e+00 0.0000000e+00 
0.0000000e+00 -3.3750001e-04 0.0000000e+00 
0.0000000e+00 -1.0666667e-03 0.0000000e+00 
0.0000000e+00 -1.8375000e-03 0.0000000e+00 
0.0000000e+00 -2.4000001e-03 0.0000000e+00 
0.0000000e+00 -2.6041667e-03 0.0000000e+00 
0.0000000e+00 -2.4000001e-03 0.0000000e+00 
0.0000000e+00 -1.8375000e-03 0.0000000e+00 
0.0000000e+00 -1.0666667e-03 0.0000000e+00 
0.0000000e+00 -3.3750001e-04 0.0000000e+00 
0.0000000e+00 0.0000000e+00 0.0000000e+00 
ROTATION 3 11  float
0.0000000e+00 0.0000000e+00 0.0000000e+00 
0.0000000e+00 0.0000000e+00 -6.0000001e-03 
0.0000000e+00 0.0000000e+00 -8.0000004e-03 
0.0000000e+00 0.0000000e+00 -7.0000002e-03 
0.0000000e+00 0.0000000e+00 -4.0000002e-03 
0.0000000e+00 0.0000000e+00 6.9388939e-17 
0.0000000e+00 0.0000000e+00 4.0000002e-03 
0.0000000e+00 0.0000000e+00 7.0000002e-03 
0.0000000e+00 0.0000000e+00 8.0000004e-03 
0.0000000e+00 0.0000000e+00 6.0000001e-03 
0.0000000e+00 0.0000000e+00 0.0000000e+00 
ADJOINT_DISPLACEMENT 3 11  float
0.0000000e+00 0.0000000e+00 0.0000000e+00 
0.0000000e+00 -4.9999999e-03 0.0000000e+00 
0.0000000e+00 -2.0000000e-02 0.0000000e+00 
0.0000000e+00 -4.5000002e-02 0.0000000e+00 
0.0000000e+00 -7.9999998e-02 0.0000000e+00 
0.0000000e+00 -1.2500000e-01 0.0000000e+00 
0.0000000e+00 -7.9999998e-02 0.0000000e+00 
0.0000000e+00 -4.5000002e-02 0.0000000e+00 
0.0000000e+00 -2.0000000e-02 0.0000000e+00 
0.0000000e+00 -4.9999999e-03 0.0000000e+00 
0.0000000e+00 0.0000000e+00 0.0000000e+00 
ADJOINT_ROTATION 3 11  float
0.0000000e+00 0.0000000e+00 0.0000000e+00 
0.0000000e+00 0.0000000e+00 -1.0000000e-01 
0.0000000e+00 0.0000000e+00 -2.0000000e-01 
0.0000000e+00 0.0000000e+00 -3.0000001e-01 
0.0000000e+00 0.0000000e+00 -4.0000001e-01 
0.0000000e+00 0.0000000e+00 -5.0000000e-01 
0.0000000e+00 0.0000000e+00 4.0000001e-01 
0.0000000e+00 0.0000000e+00 3.0000001e-01 
0.0000000e+00 0.0000000e+00 2.0000000e-01 
0.0000000e+00 0.0000000e+00 1.0000000e-01 
0.0000000e+00 0.0000000e+00 0.0000000e+00 
SHAPE_SENSITIVITY 3 11  float
-8.5000306e-02 5.3619260e-08 6.8190936e-08 
-1.7448488e-06 1.2143688e-07 9.6939814e-08 
-3.8636372e-06 1.3980136e-07 3.3841680e-08 
-4.8674010e-06 1.3894476e-07 9.1072982e-10 
-3.5478481e-06 1.1981145e-07 1.1508156e-09 
-2.2190693e-06 1.0469854e-07 6.8205509e-08 
-3.5460635e-06 1.2033604e-07 6.1416500e-08 
-4.8685333e-06 1.3852322e-07 2.3432645e-09 
-3.8669846e-06 1.3892429e-07 3.2725904e-08 
-1.7455370e-06 1.2128146e-07 9.6334745e-08 
8.4999695e-02 5.3591506e-08 6.8118773e-08 
CELL_DATA 10
FIELD FieldData 2
I33_SENSITIVITY 1 10  float
-6.0000001e-03
6.0000001e-03
6.0000001e-03
6.0000001e-03
6.0000001e-03
3.9999997e-03
3.0000000e-03
9.9999993e-04
-2.0000001e-03
-6.0000001e-03
YOUNG_MODULUS_SENSITIVITY 1 10  float
-6.0000001e-03
6.0000001e-03
6.0000001e-03
6.0000001e-03
6.0000001e-03
3.9999997e-03
3.0000000e-03
9.9999993e-04
-2.0000001e-03
-6.0000001e-03
