# vtk DataFile Version 4.0
vtk output
ASCII
DATASET UNSTRUCTURED_GRID
POINTS 212 float
0.0000000e+00 0.0000000e+00 0.0000000e+00 
0.0000000e+00 0.0000000e+00 2.5000000e-01 
0.0000000e+00 0.0000000e+00 5.0000000e-01 
0.0000000e+00 0.0000000e+00 7.5000000e-01 
0.0000000e+00 0.0000000e+00 1.0000000e+00 
0.0000000e+00 0.0000000e+00 1.2500000e+00 
0.0000000e+00 0.0000000e+00 1.5000000e+00 
0.0000000e+00 0.0000000e+00 1.7500000e+00 
0.0000000e+00 0.0000000e+00 2.0000000e+00 
0.0000000e+00 0.0000000e+00 2.2500000e+00 
0.0000000e+00 0.0000000e+00 2.5000000e+00 
0.0000000e+00 0.0000000e+00 2.7500000e+00 
0.0000000e+00 0.0000000e+00 3.0000000e+00 
0.0000000e+00 0.0000000e+00 3.2500000e+00 
0.0000000e+00 0.0000000e+00 3.5000000e+00 
0.0000000e+00 0.0000000e+00 3.7500000e+00 
0.0000000e+00 0.0000000e+00 4.0000000e+00 
0.0000000e+00 0.0000000e+00 4.2500000e+00 
0.0000000e+00 0.0000000e+00 4.5000000e+00 
0.0000000e+00 0.0000000e+00 4.7500000e+00 
0.0000000e+00 0.0000000e+00 5.0000000e+00 
0.0000000e+00 0.0000000e+00 5.2500000e+00 
0.0000000e+00 0.0000000e+00 5.5000000e+00 
0.0000000e+00 0.0000000e+00 5.7500000e+00 
0.0000000e+00 0.0000000e+00 6.0000000e+00 
0.0000000e+00 0.0000000e+00 6.2500000e+00 
0.0000000e+00 0.0000000e+00 6.5000000e+00 
0.0000000e+00 0.0000000e+00 6.7500000e+00 
0.0000000e+00 0.0000000e+00 7.0000000e+00 
0.0000000e+00 0.0000000e+00 7.2500000e+00 
0.0000000e+00 0.0000000e+00 7.5000000e+00 
0.0000000e+00 0.0000000e+00 7.7500000e+00 
0.0000000e+00 0.0000000e+00 8.0000000e+00 
0.0000000e+00 0.0000000e+00 8.2500000e+00 
0.0000000e+00 0.0000000e+00 8.5000000e+00 
0.0000000e+00 0.0000000e+00 8.7500000e+00 
0.0000000e+00 0.0000000e+00 9.0000000e+00 
0.0000000e+00 0.0000000e+00 9.2500000e+00 
0.0000000e+00 0.0000000e+00 9.5000000e+00 
0.0000000e+00 0.0000000e+00 9.7500000e+00 
0.0000000e+00 0.0000000e+00 1.0000000e+01 
0.0000000e+00 0.0000000e+00 1.0250000e+01 
0.0000000e+00 0.0000000e+00 1.0500000e+01 
0.0000000e+00 0.0000000e+00 1.0750000e+01 
0.0000000e+00 0.0000000e+00 1.1000000e+01 
0.0000000e+00 0.0000000e+00 1.1250000e+01 
0.0000000e+00 0.0000000e+00 1.1500000e+01 
0.0000000e+00 0.0000000e+00 1.1750000e+01 
0.0000000e+00 0.0000000e+00 1.2000000e+01 
0.0000000e+00 0.0000000e+00 1.2250000e+01 
0.0000000e+00 0.0000000e+00 1.2500000e+01 
0.0000000e+00 0.0000000e+00 1.2750000e+01 
0.0000000e+00 0.0000000e+00 1.3000000e+01 
0.0000000e+00 0.0000000e+00 1.3250000e+01 
0.0000000e+00 0.0000000e+00 1.3500000e+01 
0.0000000e+00 0.0000000e+00 1.3750000e+01 
0.0000000e+00 0.0000000e+00 1.4000000e+01 
0.0000000e+00 0.0000000e+00 1.4250000e+01 
0.0000000e+00 0.0000000e+00 1.4500000e+01 
0.0000000e+00 0.0000000e+00 1.4750000e+01 
0.0000000e+00 0.0000000e+00 1.5000000e+01 
0.0000000e+00 0.0000000e+00 1.5250000e+01 
0.0000000e+00 0.0000000e+00 1.5500000e+01 
0.0000000e+00 0.0000000e+00 1.5750000e+01 
0.0000000e+00 0.0000000e+00 1.6000000e+01 
0.0000000e+00 0.0000000e+00 1.6250000e+01 
0.0000000e+00 0.0000000e+00 1.6500000e+01 
0.0000000e+00 0.0000000e+00 1.6750000e+01 
0.0000000e+00 0.0000000e+00 1.7000000e+01 
0.0000000e+00 0.0000000e+00 1.7250000e+01 
0.0000000e+00 0.0000000e+00 1.7500000e+01 
0.0000000e+00 0.0000000e+00 1.7750000e+01 
0.0000000e+00 0.0000000e+00 1.8000000e+01 
5.0000000e-01 0.0000000e+00 3.0000000e+00 
5.0000000e-01 0.0000000e+00 6.0000000e+00 
5.0000000e-01 0.0000000e+00 9.0000000e+00 
5.0000000e-01 0.0000000e+00 1.2000000e+01 
5.0000000e-01 0.0000000e+00 1.5000000e+01 
5.0000000e-01 0.0000000e+00 1.8000000e+01 
1.0000000e+00 0.0000000e+00 3.0000000e+00 
1.0000000e+00 0.0000000e+00 6.0000000e+00 
1.0000000e+00 0.0000000e+00 9.0000000e+00 
1.0000000e+00 0.0000000e+00 1.2000000e+01 
1.0000000e+00 0.0000000e+00 1.5000000e+01 
1.0000000e+00 0.0000000e+00 1.8000000e+01 
1.5000000e+00 0.0000000e+00 3.0000000e+00 
1.5000000e+00 0.0000000e+00 6.0000000e+00 
1.5000000e+00 0.0000000e+00 9.0000000e+00 
1.5000000e+00 0.0000000e+00 1.2000000e+01 
1.5000000e+00 0.0000000e+00 1.5000000e+01 
1.5000000e+00 0.0000000e+00 1.8000000e+01 
2.0000000e+00 0.0000000e+00 3.0000000e+00 
2.0000000e+00 0.0000000e+00 6.0000000e+00 
2.0000000e+00 0.0000000e+00 9.0000000e+00 
2.0000000e+00 0.0000000e+00 1.2000000e+01 
2.0000000e+00 0.0000000e+00 1.5000000e+01 
2.0000000e+00 0.0000000e+00 1.8000000e+01 
2.5000000e+00 0.0000000e+00 3.0000000e+00 
2.5000000e+00 0.0000000e+00 6.0000000e+00 
2.5000000e+00 0.0000000e+00 9.0000000e+00 
2.5000000e+00 0.0000000e+00 1.2000000e+01 
2.5000000e+00 0.0000000e+00 1.5000000e+01 
2.5000000e+00 0.0000000e+00 1.8000000e+01 
3.0000000e+00 0.0000000e+00 3.0000000e+00 
3.0000000e+00 0.0000000e+00 6.0000000e+00 
3.0000000e+00 0.0000000e+00 9.0000000e+00 
3.0000000e+00 0.0000000e+00 1.2000000e+01 
3.0000000e+00 0.0000000e+00 1.5000000e+01 
3.0000000e+00 0.0000000e+00 1.8000000e+01 
3.5000000e+00 0.0000000e+00 3.0000000e+00 
3.5000000e+00 0.0000000e+00 6.0000000e+00 
3.5000000e+00 0.0000000e+00 9.0000000e+00 
3.5000000e+00 0.0000000e+00 1.2000000e+01 
3.5000000e+00 0.0000000e+00 1.5000000e+01 
3.5000000e+00 0.0000000e+00 1.8000000e+01 
4.0000000e+00 0.0000000e+00 3.0000000e+00 
4.0000000e+00 0.0000000e+00 6.0000000e+00 
4.0000000e+00 0.0000000e+00 9.0000000e+00 
4.0000000e+00 0.0000000e+00 1.2000000e+01 
4.0000000e+00 0.0000000e+00 1.5000000e+01 
4.0000000e+00 0.0000000e+00 1.8000000e+01 
4.5000000e+00 0.0000000e+00 3.0000000e+00 
4.5000000e+00 0.0000000e+00 6.0000000e+00 
4.5000000e+00 0.0000000e+00 9.0000000e+00 
4.5000000e+00 0.0000000e+00 1.2000000e+01 
4.5000000e+00 0.0000000e+00 1.5000000e+01 
4.5000000e+00 0.0000000e+00 1.8000000e+01 
5.0000000e+00 0.0000000e+00 3.0000000e+00 
5.0000000e+00 0.0000000e+00 6.0000000e+00 
5.0000000e+00 0.0000000e+00 9.0000000e+00 
5.0000000e+00 0.0000000e+00 1.2000000e+01 
5.0000000e+00 0.0000000e+00 1.5000000e+01 
5.0000000e+00 0.0000000e+00 1.8000000e+01 
5.5000000e+00 0.0000000e+00 3.0000000e+00 
5.5000000e+00 0.0000000e+00 6.0000000e+00 
5.5000000e+00 0.0000000e+00 9.0000000e+00 
5.5000000e+00 0.0000000e+00 1.2000000e+01 
5.5000000e+00 0.0000000e+00 1.5000000e+01 
5.5000000e+00 0.0000000e+00 1.8000000e+01 
6.0000000e+00 0.0000000e+00 0.0000000e+00 
6.0000000e+00 0.0000000e+00 2.5000000e-01 
6.0000000e+00 0.0000000e+00 5.0000000e-01 
6.0000000e+00 0.0000000e+00 7.5000000e-01 
6.0000000e+00 0.0000000e+00 1.0000000e+00 
6.0000000e+00 0.0000000e+00 1.2500000e+00 
6.0000000e+00 0.0000000e+00 1.5000000e+00 
6.0000000e+00 0.0000000e+00 1.7500000e+00 
6.0000000e+00 0.0000000e+00 2.0000000e+00 
6.0000000e+00 0.0000000e+00 2.2500000e+00 
6.0000000e+00 0.0000000e+00 2.5000000e+00 
6.0000000e+00 0.0000000e+00 2.7500000e+00 
6.0000000e+00 0.0000000e+00 3.0000000e+00 
6.0000000e+00 0.0000000e+00 3.2500000e+00 
6.0000000e+00 0.0000000e+00 3.5000000e+00 
6.0000000e+00 0.0000000e+00 3.7500000e+00 
6.0000000e+00 0.0000000e+00 4.0000000e+00 
6.0000000e+00 0.0000000e+00 4.2500000e+00 
6.0000000e+00 0.0000000e+00 4.5000000e+00 
6.0000000e+00 0.0000000e+00 4.7500000e+00 
6.0000000e+00 0.0000000e+00 5.0000000e+00 
6.0000000e+00 0.0000000e+00 5.2500000e+00 
6.0000000e+00 0.0000000e+00 5.5000000e+00 
6.0000000e+00 0.0000000e+00 5.7500000e+00 
6.0000000e+00 0.0000000e+00 6.0000000e+00 
6.0000000e+00 0.0000000e+00 6.2500000e+00 
6.0000000e+00 0.0000000e+00 6.5000000e+00 
6.0000000e+00 0.0000000e+00 6.7500000e+00 
6.0000000e+00 0.0000000e+00 7.0000000e+00 
6.0000000e+00 0.0000000e+00 7.2500000e+00 
6.0000000e+00 0.0000000e+00 7.5000000e+00 
6.0000000e+00 0.0000000e+00 7.7500000e+00 
6.0000000e+00 0.0000000e+00 8.0000000e+00 
6.0000000e+00 0.0000000e+00 8.2500000e+00 
6.0000000e+00 0.0000000e+00 8.5000000e+00 
6.0000000e+00 0.0000000e+00 8.7500000e+00 
6.0000000e+00 0.0000000e+00 9.0000000e+00 
6.0000000e+00 0.0000000e+00 9.2500000e+00 
6.0000000e+00 0.0000000e+00 9.5000000e+00 
6.0000000e+00 0.0000000e+00 9.7500000e+00 
6.0000000e+00 0.0000000e+00 1.0000000e+01 
6.0000000e+00 0.0000000e+00 1.0250000e+01 
6.0000000e+00 0.0000000e+00 1.0500000e+01 
6.0000000e+00 0.0000000e+00 1.0750000e+01 
6.0000000e+00 0.0000000e+00 1.1000000e+01 
6.0000000e+00 0.0000000e+00 1.1250000e+01 
6.0000000e+00 0.0000000e+00 1.1500000e+01 
6.0000000e+00 0.0000000e+00 1.1750000e+01 
6.0000000e+00 0.0000000e+00 1.2000000e+01 
6.0000000e+00 0.0000000e+00 1.2250000e+01 
6.0000000e+00 0.0000000e+00 1.2500000e+01 
6.0000000e+00 0.0000000e+00 1.2750000e+01 
6.0000000e+00 0.0000000e+00 1.3000000e+01 
6.0000000e+00 0.0000000e+00 1.3250000e+01 
6.0000000e+00 0.0000000e+00 1.3500000e+01 
6.0000000e+00 0.0000000e+00 1.3750000e+01 
6.0000000e+00 0.0000000e+00 1.4000000e+01 
6.0000000e+00 0.0000000e+00 1.4250000e+01 
6.0000000e+00 0.0000000e+00 1.4500000e+01 
6.0000000e+00 0.0000000e+00 1.4750000e+01 
6.0000000e+00 0.0000000e+00 1.5000000e+01 
6.0000000e+00 0.0000000e+00 1.5250000e+01 
6.0000000e+00 0.0000000e+00 1.5500000e+01 
6.0000000e+00 0.0000000e+00 1.5750000e+01 
6.0000000e+00 0.0000000e+00 1.6000000e+01 
6.0000000e+00 0.0000000e+00 1.6250000e+01 
6.0000000e+00 0.0000000e+00 1.6500000e+01 
6.0000000e+00 0.0000000e+00 1.6750000e+01 
6.0000000e+00 0.0000000e+00 1.7000000e+01 
6.0000000e+00 0.0000000e+00 1.7250000e+01 
6.0000000e+00 0.0000000e+00 1.7500000e+01 
6.0000000e+00 0.0000000e+00 1.7750000e+01 
6.0000000e+00 0.0000000e+00 1.8000000e+01 

CELLS 216 648
2 0 1
2 1 2
2 2 3
2 3 4
2 4 5
2 5 6
2 6 7
2 7 8
2 8 9
2 9 10
2 10 11
2 11 12
2 12 13
2 13 14
2 14 15
2 15 16
2 16 17
2 17 18
2 18 19
2 19 20
2 20 21
2 21 22
2 22 23
2 23 24
2 24 25
2 25 26
2 26 27
2 27 28
2 28 29
2 29 30
2 30 31
2 31 32
2 32 33
2 33 34
2 34 35
2 35 36
2 36 37
2 37 38
2 38 39
2 39 40
2 40 41
2 41 42
2 42 43
2 43 44
2 44 45
2 45 46
2 46 47
2 47 48
2 48 49
2 49 50
2 50 51
2 51 52
2 52 53
2 53 54
2 54 55
2 55 56
2 56 57
2 57 58
2 58 59
2 59 60
2 60 61
2 61 62
2 62 63
2 63 64
2 64 65
2 65 66
2 66 67
2 67 68
2 68 69
2 69 70
2 70 71
2 71 72
2 139 140
2 140 141
2 141 142
2 142 143
2 143 144
2 144 145
2 145 146
2 146 147
2 147 148
2 148 149
2 149 150
2 150 151
2 151 152
2 152 153
2 153 154
2 154 155
2 155 156
2 156 157
2 157 158
2 158 159
2 159 160
2 160 161
2 161 162
2 162 163
2 163 164
2 164 165
2 165 166
2 166 167
2 167 168
2 168 169
2 169 170
2 170 171
2 171 172
2 172 173
2 173 174
2 174 175
2 175 176
2 176 177
2 177 178
2 178 179
2 179 180
2 180 181
2 181 182
2 182 183
2 183 184
2 184 185
2 185 186
2 186 187
2 187 188
2 188 189
2 189 190
2 190 191
2 191 192
2 192 193
2 193 194
2 194 195
2 195 196
2 196 197
2 197 198
2 198 199
2 199 200
2 200 201
2 201 202
2 202 203
2 203 204
2 204 205
2 205 206
2 206 207
2 207 208
2 208 209
2 209 210
2 210 211
2 12 73
2 73 79
2 79 85
2 85 91
2 91 97
2 97 103
2 103 109
2 109 115
2 115 121
2 121 127
2 127 133
2 133 151
2 24 74
2 74 80
2 80 86
2 86 92
2 92 98
2 98 104
2 104 110
2 110 116
2 116 122
2 122 128
2 128 134
2 134 163
2 36 75
2 75 81
2 81 87
2 87 93
2 93 99
2 99 105
2 105 111
2 111 117
2 117 123
2 123 129
2 129 135
2 135 175
2 48 76
2 76 82
2 82 88
2 88 94
2 94 100
2 100 106
2 106 112
2 112 118
2 118 124
2 124 130
2 130 136
2 136 187
2 60 77
2 77 83
2 83 89
2 89 95
2 95 101
2 101 107
2 107 113
2 113 119
2 119 125
2 125 131
2 131 137
2 137 199
2 72 78
2 78 84
2 84 90
2 90 96
2 96 102
2 102 108
2 108 114
2 114 120
2 120 126
2 126 132
2 132 138
2 138 211

CELL_TYPES 216
3
3
3
3
3
3
3
3
3
3
3
3
3
3
3
3
3
3
3
3
3
3
3
3
3
3
3
3
3
3
3
3
3
3
3
3
3
3
3
3
3
3
3
3
3
3
3
3
3
3
3
3
3
3
3
3
3
3
3
3
3
3
3
3
3
3
3
3
3
3
3
3
3
3
3
3
3
3
3
3
3
3
3
3
3
3
3
3
3
3
3
3
3
3
3
3
3
3
3
3
3
3
3
3
3
3
3
3
3
3
3
3
3
3
3
3
3
3
3
3
3
3
3
3
3
3
3
3
3
3
3
3
3
3
3
3
3
3
3
3
3
3
3
3
3
3
3
3
3
3
3
3
3
3
3
3
3
3
3
3
3
3
3
3
3
3
3
3
3
3
3
3
3
3
3
3
3
3
3
3
3
3
3
3
3
3
3
3
3
3
3
3
3
3
3
3
3
3
3
3
3
3
3
3
3
3
3
3
3
3
3
3
3
3
3
3
POINT_DATA 212
FIELD FieldData 8
DISPLACEMENT 3 212  float
0.0000000e+00 0.0000000e+00 0.0000000e+00 
-5.3525335e-05 0.0000000e+00 -5.0458606e-05 
-1.0484835e-04 0.0000000e+00 -1.0056973e-04 
-1.5176670e-04 0.0000000e+00 -1.5033339e-04 
-1.9207806e-04 0.0000000e+00 -1.9974956e-04 
-2.2358012e-04 0.0000000e+00 -2.4881825e-04 
-2.4407054e-04 0.0000000e+00 -2.9753946e-04 
-2.5134700e-04 0.0000000e+00 -3.4591320e-04 
-2.4320716e-04 0.0000000e+00 -3.9393947e-04 
-2.1744870e-04 0.0000000e+00 -4.4161823e-04 
-1.7186928e-04 0.0000000e+00 -4.8894953e-04 
-1.0426659e-04 0.0000000e+00 -5.3593336e-04 
-1.2438299e-05 0.0000000e+00 -5.8256969e-04 
7.0586590e-05 0.0000000e+00 -6.2458956e-04 
1.1505020e-04 0.0000000e+00 -6.6626200e-04 
1.2806157e-04 0.0000000e+00 -7.0758694e-04 
1.1672975e-04 0.0000000e+00 -7.4856437e-04 
8.8163768e-05 0.0000000e+00 -7.8919431e-04 
4.9472688e-05 0.0000000e+00 -8.2947680e-04 
7.7655359e-06 0.0000000e+00 -8.6941186e-04 
-2.9848639e-05 0.0000000e+00 -9.0899935e-04 
-5.6260797e-05 0.0000000e+00 -9.4823941e-04 
-6.4361899e-05 0.0000000e+00 -9.8713196e-04 
-4.7042893e-05 0.0000000e+00 -1.0256771e-03 
2.8052568e-06 0.0000000e+00 -1.0638747e-03 
5.4549993e-05 0.0000000e+00 -1.0974559e-03 
7.6821008e-05 0.0000000e+00 -1.1306895e-03 
7.5620716e-05 0.0000000e+00 -1.1635758e-03 
5.6951521e-05 0.0000000e+00 -1.1961145e-03 
2.6815844e-05 0.0000000e+00 -1.2283057e-03 
-8.7839080e-06 0.0000000e+00 -1.2601495e-03 
-4.3845321e-05 0.0000000e+00 -1.2916458e-03 
-7.2365976e-05 0.0000000e+00 -1.3227946e-03 
-8.8343477e-05 0.0000000e+00 -1.3535959e-03 
-8.5775391e-05 0.0000000e+00 -1.3840498e-03 
-5.8659327e-05 0.0000000e+00 -1.4141562e-03 
-9.9285705e-07 0.0000000e+00 -1.4439151e-03 
5.6003712e-05 0.0000000e+00 -1.4690575e-03 
8.1371189e-05 0.0000000e+00 -1.4938525e-03 
8.1503655e-05 0.0000000e+00 -1.5182999e-03 
6.2795196e-05 0.0000000e+00 -1.5423999e-03 
3.1639873e-05 0.0000000e+00 -1.5661524e-03 
-5.5682190e-06 0.0000000e+00 -1.5895575e-03 
-4.2435007e-05 0.0000000e+00 -1.6126151e-03 
-7.2566414e-05 0.0000000e+00 -1.6353251e-03 
-8.9568355e-05 0.0000000e+00 -1.6576877e-03 
-8.7046763e-05 0.0000000e+00 -1.6797029e-03 
-5.8607544e-05 0.0000000e+00 -1.7013705e-03 
2.1433723e-06 0.0000000e+00 -1.7226906e-03 
6.4341802e-05 0.0000000e+00 -1.7393944e-03 
9.6559888e-05 0.0000000e+00 -1.7557506e-03 
1.0434618e-04 0.0000000e+00 -1.7717594e-03 
9.3249226e-05 0.0000000e+00 -1.7874206e-03 
6.8817571e-05 0.0000000e+00 -1.8027344e-03 
3.6599788e-05 0.0000000e+00 -1.8177007e-03 
2.1444096e-06 0.0000000e+00 -1.8323195e-03 
-2.9000004e-05 0.0000000e+00 -1.8465909e-03 
-5.1284904e-05 0.0000000e+00 -1.8605149e-03 
-5.9161732e-05 0.0000000e+00 -1.8740912e-03 
-4.7081943e-05 0.0000000e+00 -1.8873202e-03 
-9.4969846e-06 0.0000000e+00 -1.9002015e-03 
2.1529968e-05 0.0000000e+00 -1.9084666e-03 
1.6433341e-05 0.0000000e+00 -1.9163841e-03 
-1.5491902e-05 0.0000000e+00 -1.9239541e-03 
-6.4950793e-05 0.0000000e+00 -1.9311766e-03 
-1.2264837e-04 0.0000000e+00 -1.9380518e-03 
-1.7928968e-04 0.0000000e+00 -1.9445793e-03 
-2.2557973e-04 0.0000000e+00 -1.9507594e-03 
-2.5222360e-04 0.0000000e+00 -1.9565921e-03 
-2.4992629e-04 0.0000000e+00 -1.9620773e-03 
-2.0939283e-04 0.0000000e+00 -1.9672150e-03 
-1.2132830e-04 0.0000000e+00 -1.9720050e-03 
2.3562312e-05 0.0000000e+00 -1.9764479e-03 
-1.0365248e-05 0.0000000e+00 -9.1032067e-04 
2.3377140e-06 0.0000000e+00 -1.3252723e-03 
-8.2738086e-07 0.0000000e+00 -1.7171560e-03 
1.7861436e-06 0.0000000e+00 -2.0034404e-03 
-7.9141537e-06 0.0000000e+00 -2.1317243e-03 
1.9635259e-05 0.0000000e+00 -2.4356979e-03 
-8.2921988e-06 0.0000000e+00 -1.3805662e-03 
1.8701713e-06 0.0000000e+00 -1.7412285e-03 
-6.6190472e-07 0.0000000e+00 -2.1428023e-03 
1.4289149e-06 0.0000000e+00 -2.4352302e-03 
-6.3313228e-06 0.0000000e+00 -2.5232376e-03 
1.5708207e-05 0.0000000e+00 -3.0135335e-03 
-6.2191493e-06 0.0000000e+00 -1.8720548e-03 
1.4026284e-06 0.0000000e+00 -2.1904921e-03 
-4.9642853e-07 0.0000000e+00 -2.5996028e-03 
1.0716861e-06 0.0000000e+00 -2.8968088e-03 
-4.7484923e-06 0.0000000e+00 -2.9534900e-03 
1.1781156e-05 0.0000000e+00 -3.5887032e-03 
-4.1460994e-06 0.0000000e+00 -2.2904801e-03 
9.3508567e-07 0.0000000e+00 -2.5787568e-03 
-3.3095236e-07 0.0000000e+00 -2.9932507e-03 
7.1445743e-07 0.0000000e+00 -3.2938698e-03 
-3.1656614e-06 0.0000000e+00 -3.3281751e-03 
7.8541034e-06 0.0000000e+00 -4.0669008e-03 
-2.0730497e-06 0.0000000e+00 -2.5684799e-03 
4.6754283e-07 0.0000000e+00 -2.8386600e-03 
-1.6547618e-07 0.0000000e+00 -3.2563843e-03 
3.5722871e-07 0.0000000e+00 -3.5590511e-03 
-1.5828307e-06 0.0000000e+00 -3.5799309e-03 
3.9270517e-06 0.0000000e+00 -4.3807640e-03 
-1.9985447e-16 0.0000000e+00 -2.6656373e-03 
-2.6493020e-16 0.0000000e+00 -2.9297853e-03 
-2.9638789e-16 0.0000000e+00 -3.3485861e-03 
-3.6424423e-16 0.0000000e+00 -3.6519356e-03 
-4.9162062e-16 0.0000000e+00 -3.6683402e-03 
-7.3140676e-16 0.0000000e+00 -4.4898759e-03 
2.0730497e-06 0.0000000e+00 -2.5684799e-03 
-4.6754283e-07 0.0000000e+00 -2.8386600e-03 
1.6547618e-07 0.0000000e+00 -3.2563843e-03 
-3.5722871e-07 0.0000000e+00 -3.5590511e-03 
1.5828307e-06 0.0000000e+00 -3.5799309e-03 
-3.9270517e-06 0.0000000e+00 -4.3807640e-03 
4.1460994e-06 0.0000000e+00 -2.2904801e-03 
-9.3508567e-07 0.0000000e+00 -2.5787568e-03 
3.3095236e-07 0.0000000e+00 -2.9932507e-03 
-7.1445743e-07 0.0000000e+00 -3.2938698e-03 
3.1656614e-06 0.0000000e+00 -3.3281751e-03 
-7.8541034e-06 0.0000000e+00 -4.0669008e-03 
6.2191493e-06 0.0000000e+00 -1.8720548e-03 
-1.4026284e-06 0.0000000e+00 -2.1904921e-03 
4.9642853e-07 0.0000000e+00 -2.5996028e-03 
-1.0716861e-06 0.0000000e+00 -2.8968088e-03 
4.7484923e-06 0.0000000e+00 -2.9534900e-03 
-1.1781156e-05 0.0000000e+00 -3.5887032e-03 
8.2921988e-06 0.0000000e+00 -1.3805662e-03 
-1.8701713e-06 0.0000000e+00 -1.7412285e-03 
6.6190472e-07 0.0000000e+00 -2.1428023e-03 
-1.4289149e-06 0.0000000e+00 -2.4352302e-03 
6.3313228e-06 0.0000000e+00 -2.5232376e-03 
-1.5708207e-05 0.0000000e+00 -3.0135335e-03 
1.0365248e-05 0.0000000e+00 -9.1032067e-04 
-2.3377140e-06 0.0000000e+00 -1.3252723e-03 
8.2738086e-07 0.0000000e+00 -1.7171560e-03 
-1.7861436e-06 0.0000000e+00 -2.0034404e-03 
7.9141537e-06 0.0000000e+00 -2.1317243e-03 
-1.9635259e-05 0.0000000e+00 -2.4356979e-03 
0.0000000e+00 0.0000000e+00 0.0000000e+00 
5.3525335e-05 0.0000000e+00 -5.0458606e-05 
1.0484835e-04 0.0000000e+00 -1.0056973e-04 
1.5176670e-04 0.0000000e+00 -1.5033339e-04 
1.9207806e-04 0.0000000e+00 -1.9974956e-04 
2.2358012e-04 0.0000000e+00 -2.4881825e-04 
2.4407054e-04 0.0000000e+00 -2.9753946e-04 
2.5134700e-04 0.0000000e+00 -3.4591320e-04 
2.4320716e-04 0.0000000e+00 -3.9393947e-04 
2.1744870e-04 0.0000000e+00 -4.4161823e-04 
1.7186928e-04 0.0000000e+00 -4.8894953e-04 
1.0426659e-04 0.0000000e+00 -5.3593336e-04 
1.2438299e-05 0.0000000e+00 -5.8256969e-04 
-7.0586590e-05 0.0000000e+00 -6.2458956e-04 
-1.1505020e-04 0.0000000e+00 -6.6626200e-04 
-1.2806157e-04 0.0000000e+00 -7.0758694e-04 
-1.1672975e-04 0.0000000e+00 -7.4856437e-04 
-8.8163768e-05 0.0000000e+00 -7.8919431e-04 
-4.9472688e-05 0.0000000e+00 -8.2947680e-04 
-7.7655359e-06 0.0000000e+00 -8.6941186e-04 
2.9848639e-05 0.0000000e+00 -9.0899935e-04 
5.6260797e-05 0.0000000e+00 -9.4823941e-04 
6.4361899e-05 0.0000000e+00 -9.8713196e-04 
4.7042893e-05 0.0000000e+00 -1.0256771e-03 
-2.8052568e-06 0.0000000e+00 -1.0638747e-03 
-5.4549993e-05 0.0000000e+00 -1.0974559e-03 
-7.6821008e-05 0.0000000e+00 -1.1306895e-03 
-7.5620716e-05 0.0000000e+00 -1.1635758e-03 
-5.6951521e-05 0.0000000e+00 -1.1961145e-03 
-2.6815844e-05 0.0000000e+00 -1.2283057e-03 
8.7839080e-06 0.0000000e+00 -1.2601495e-03 
4.3845321e-05 0.0000000e+00 -1.2916458e-03 
7.2365976e-05 0.0000000e+00 -1.3227946e-03 
8.8343477e-05 0.0000000e+00 -1.3535959e-03 
8.5775391e-05 0.0000000e+00 -1.3840498e-03 
5.8659327e-05 0.0000000e+00 -1.4141562e-03 
9.9285705e-07 0.0000000e+00 -1.4439151e-03 
-5.6003712e-05 0.0000000e+00 -1.4690575e-03 
-8.1371189e-05 0.0000000e+00 -1.4938525e-03 
-8.1503655e-05 0.0000000e+00 -1.5182999e-03 
-6.2795196e-05 0.0000000e+00 -1.5423999e-03 
-3.1639873e-05 0.0000000e+00 -1.5661524e-03 
5.5682190e-06 0.0000000e+00 -1.5895575e-03 
4.2435007e-05 0.0000000e+00 -1.6126151e-03 
7.2566414e-05 0.0000000e+00 -1.6353251e-03 
8.9568355e-05 0.0000000e+00 -1.6576877e-03 
8.7046763e-05 0.0000000e+00 -1.6797029e-03 
5.8607544e-05 0.0000000e+00 -1.7013705e-03 
-2.1433723e-06 0.0000000e+00 -1.7226906e-03 
-6.4341802e-05 0.0000000e+00 -1.7393944e-03 
-9.6559888e-05 0.0000000e+00 -1.7557506e-03 
-1.0434618e-04 0.0000000e+00 -1.7717594e-03 
-9.3249226e-05 0.0000000e+00 -1.7874206e-03 
-6.8817571e-05 0.0000000e+00 -1.8027344e-03 
-3.6599788e-05 0.0000000e+00 -1.8177007e-03 
-2.1444096e-06 0.0000000e+00 -1.8323195e-03 
2.9000004e-05 0.0000000e+00 -1.8465909e-03 
5.1284904e-05 0.0000000e+00 -1.8605149e-03 
5.9161732e-05 0.0000000e+00 -1.8740912e-03 
4.7081943e-05 0.0000000e+00 -1.8873202e-03 
9.4969846e-06 0.0000000e+00 -1.9002015e-03 
-2.1529968e-05 0.0000000e+00 -1.9084666e-03 
-1.6433341e-05 0.0000000e+00 -1.9163841e-03 
1.5491902e-05 0.0000000e+00 -1.9239541e-03 
6.4950793e-05 0.0000000e+00 -1.9311766e-03 
1.2264837e-04 0.0000000e+00 -1.9380518e-03 
1.7928968e-04 0.0000000e+00 -1.9445793e-03 
2.2557973e-04 0.0000000e+00 -1.9507594e-03 
2.5222360e-04 0.0000000e+00 -1.9565921e-03 
2.4992629e-04 0.0000000e+00 -1.9620773e-03 
2.0939283e-04 0.0000000e+00 -1.9672150e-03 
1.2132830e-04 0.0000000e+00 -1.9720050e-03 
-2.3562312e-05 0.0000000e+00 -1.9764479e-03 
ROTATION 3 212  float
0.0000000e+00 -2.1556957e-04 0.0000000e+00 
0.0000000e+00 -2.1116491e-04 0.0000000e+00 
0.0000000e+00 -1.9795094e-04 0.0000000e+00 
0.0000000e+00 -1.7592766e-04 0.0000000e+00 
0.0000000e+00 -1.4509508e-04 0.0000000e+00 
0.0000000e+00 -1.0545317e-04 0.0000000e+00 
0.0000000e+00 -5.7001966e-05 0.0000000e+00 
0.0000000e+00 2.5855601e-07 0.0000000e+00 
0.0000000e+00 6.6328386e-05 0.0000000e+00 
0.0000000e+00 1.4120754e-04 0.0000000e+00 
0.0000000e+00 2.2489598e-04 0.0000000e+00 
0.0000000e+00 3.1739374e-04 0.0000000e+00 
0.0000000e+00 4.1870083e-04 0.0000000e+00 
0.0000000e+00 2.5023762e-04 0.0000000e+00 
0.0000000e+00 1.1021060e-04 0.0000000e+00 
0.0000000e+00 -1.3802637e-06 0.0000000e+00 
0.0000000e+00 -8.4534957e-05 0.0000000e+00 
0.0000000e+00 -1.3925348e-04 0.0000000e+00 
0.0000000e+00 -1.6553584e-04 0.0000000e+00 
0.0000000e+00 -1.6338202e-04 0.0000000e+00 
0.0000000e+00 -1.3279203e-04 0.0000000e+00 
0.0000000e+00 -7.3765877e-05 0.0000000e+00 
0.0000000e+00 1.3696450e-05 0.0000000e+00 
0.0000000e+00 1.2959495e-04 0.0000000e+00 
0.0000000e+00 2.7392962e-04 0.0000000e+00 
0.0000000e+00 1.4402989e-04 0.0000000e+00 
0.0000000e+00 3.8139831e-05 0.0000000e+00 
0.0000000e+00 -4.3740583e-05 0.0000000e+00 
0.0000000e+00 -1.0161135e-04 0.0000000e+00 
0.0000000e+00 -1.3547247e-04 0.0000000e+00 
0.0000000e+00 -1.4532394e-04 0.0000000e+00 
0.0000000e+00 -1.3116575e-04 0.0000000e+00 
0.0000000e+00 -9.2997921e-05 0.0000000e+00 
0.0000000e+00 -3.0820440e-05 0.0000000e+00 
0.0000000e+00 5.5366691e-05 0.0000000e+00 
0.0000000e+00 1.6556347e-04 0.0000000e+00 
0.0000000e+00 2.9976989e-04 0.0000000e+00 
0.0000000e+00 1.6046538e-04 0.0000000e+00 
0.0000000e+00 4.6737172e-05 0.0000000e+00 
0.0000000e+00 -4.1414714e-05 0.0000000e+00 
0.0000000e+00 -1.0399029e-04 0.0000000e+00 
0.0000000e+00 -1.4098955e-04 0.0000000e+00 
0.0000000e+00 -1.5241248e-04 0.0000000e+00 
0.0000000e+00 -1.3825911e-04 0.0000000e+00 
0.0000000e+00 -9.8529417e-05 0.0000000e+00 
0.0000000e+00 -3.3223412e-05 0.0000000e+00 
0.0000000e+00 5.7658908e-05 0.0000000e+00 
0.0000000e+00 1.7411755e-04 0.0000000e+00 
0.0000000e+00 3.1615249e-04 0.0000000e+00 
0.0000000e+00 1.8513401e-04 0.0000000e+00 
0.0000000e+00 7.6309712e-05 0.0000000e+00 
0.0000000e+00 -1.0320369e-05 0.0000000e+00 
0.0000000e+00 -7.4756244e-05 0.0000000e+00 
0.0000000e+00 -1.1699791e-04 0.0000000e+00 
0.0000000e+00 -1.3704537e-04 0.0000000e+00 
0.0000000e+00 -1.3489861e-04 0.0000000e+00 
0.0000000e+00 -1.1055766e-04 0.0000000e+00 
0.0000000e+00 -6.4022490e-05 0.0000000e+00 
0.0000000e+00 4.7068811e-06 0.0000000e+00 
0.0000000e+00 9.5630465e-05 0.0000000e+00 
0.0000000e+00 2.0874826e-04 0.0000000e+00 
0.0000000e+00 4.5664008e-05 0.0000000e+00 
0.0000000e+00 -8.0240381e-05 0.0000000e+00 
0.0000000e+00 -1.6896491e-04 0.0000000e+00 
0.0000000e+00 -2.2050958e-04 0.0000000e+00 
0.0000000e+00 -2.3487440e-04 0.0000000e+00 
0.0000000e+00 -2.1205937e-04 0.0000000e+00 
0.0000000e+00 -1.5206447e-04 0.0000000e+00 
0.0000000e+00 -5.4889730e-05 0.0000000e+00 
0.0000000e+00 7.9464873e-05 0.0000000e+00 
0.0000000e+00 2.5099932e-04 0.0000000e+00 
0.0000000e+00 4.5971366e-04 0.0000000e+00 
0.0000000e+00 7.0560782e-04 0.0000000e+00 
0.0000000e+00 8.4290438e-04 0.0000000e+00 
0.0000000e+00 7.2226167e-04 0.0000000e+00 
0.0000000e+00 7.4379524e-04 0.0000000e+00 
0.0000000e+00 7.5744744e-04 0.0000000e+00 
0.0000000e+00 6.6794391e-04 0.0000000e+00 
0.0000000e+00 1.0819936e-03 0.0000000e+00 
0.0000000e+00 9.9766045e-04 0.0000000e+00 
0.0000000e+00 9.0114627e-04 0.0000000e+00 
0.0000000e+00 9.1837317e-04 0.0000000e+00 
0.0000000e+00 9.2929491e-04 0.0000000e+00 
0.0000000e+00 8.5769204e-04 0.0000000e+00 
0.0000000e+00 1.1889318e-03 0.0000000e+00 
0.0000000e+00 9.3685853e-04 0.0000000e+00 
0.0000000e+00 8.6447294e-04 0.0000000e+00 
0.0000000e+00 8.7739306e-04 0.0000000e+00 
0.0000000e+00 8.8558439e-04 0.0000000e+00 
0.0000000e+00 8.3188224e-04 0.0000000e+00 
0.0000000e+00 1.0803121e-03 0.0000000e+00 
0.0000000e+00 7.1438821e-04 0.0000000e+00 
0.0000000e+00 6.6613109e-04 0.0000000e+00 
0.0000000e+00 6.7474454e-04 0.0000000e+00 
0.0000000e+00 6.8020541e-04 0.0000000e+00 
0.0000000e+00 6.4440398e-04 0.0000000e+00 
0.0000000e+00 8.1002386e-04 0.0000000e+00 
0.0000000e+00 3.8413884e-04 0.0000000e+00 
0.0000000e+00 3.6001031e-04 0.0000000e+00 
0.0000000e+00 3.6431701e-04 0.0000000e+00 
0.0000000e+00 3.6704744e-04 0.0000000e+00 
0.0000000e+00 3.4914675e-04 0.0000000e+00 
0.0000000e+00 4.3195667e-04 0.0000000e+00 
0.0000000e+00 1.1809101e-17 0.0000000e+00 
0.0000000e+00 0.0000000e+00 0.0000000e+00 
0.0000000e+00 -1.4170921e-17 0.0000000e+00 
0.0000000e+00 -5.1960045e-17 0.0000000e+00 
0.0000000e+00 -5.9045509e-17 0.0000000e+00 
0.0000000e+00 -1.1025174e-17 0.0000000e+00 
0.0000000e+00 -3.8413884e-04 0.0000000e+00 
0.0000000e+00 -3.6001031e-04 0.0000000e+00 
0.0000000e+00 -3.6431701e-04 0.0000000e+00 
0.0000000e+00 -3.6704744e-04 0.0000000e+00 
0.0000000e+00 -3.4914675e-04 0.0000000e+00 
0.0000000e+00 -4.3195667e-04 0.0000000e+00 
0.0000000e+00 -7.1438821e-04 0.0000000e+00 
0.0000000e+00 -6.6613109e-04 0.0000000e+00 
0.0000000e+00 -6.7474454e-04 0.0000000e+00 
0.0000000e+00 -6.8020541e-04 0.0000000e+00 
0.0000000e+00 -6.4440398e-04 0.0000000e+00 
0.0000000e+00 -8.1002386e-04 0.0000000e+00 
0.0000000e+00 -9.3685853e-04 0.0000000e+00 
0.0000000e+00 -8.6447294e-04 0.0000000e+00 
0.0000000e+00 -8.7739306e-04 0.0000000e+00 
0.0000000e+00 -8.8558439e-04 0.0000000e+00 
0.0000000e+00 -8.3188224e-04 0.0000000e+00 
0.0000000e+00 -1.0803121e-03 0.0000000e+00 
0.0000000e+00 -9.9766045e-04 0.0000000e+00 
0.0000000e+00 -9.0114627e-04 0.0000000e+00 
0.0000000e+00 -9.1837317e-04 0.0000000e+00 
0.0000000e+00 -9.2929491e-04 0.0000000e+00 
0.0000000e+00 -8.5769204e-04 0.0000000e+00 
0.0000000e+00 -1.1889318e-03 0.0000000e+00 
0.0000000e+00 -8.4290438e-04 0.0000000e+00 
0.0000000e+00 -7.2226167e-04 0.0000000e+00 
0.0000000e+00 -7.4379524e-04 0.0000000e+00 
0.0000000e+00 -7.5744744e-04 0.0000000e+00 
0.0000000e+00 -6.6794391e-04 0.0000000e+00 
0.0000000e+00 -1.0819936e-03 0.0000000e+00 
0.0000000e+00 2.1556957e-04 0.0000000e+00 
0.0000000e+00 2.1116491e-04 0.0000000e+00 
0.0000000e+00 1.9795094e-04 0.0000000e+00 
0.0000000e+00 1.7592766e-04 0.0000000e+00 
0.0000000e+00 1.4509508e-04 0.0000000e+00 
0.0000000e+00 1.0545317e-04 0.0000000e+00 
0.0000000e+00 5.7001966e-05 0.0000000e+00 
0.0000000e+00 -2.5855601e-07 0.0000000e+00 
0.0000000e+00 -6.6328386e-05 0.0000000e+00 
0.0000000e+00 -1.4120754e-04 0.0000000e+00 
0.0000000e+00 -2.2489598e-04 0.0000000e+00 
0.0000000e+00 -3.1739374e-04 0.0000000e+00 
0.0000000e+00 -4.1870083e-04 0.0000000e+00 
0.0000000e+00 -2.5023762e-04 0.0000000e+00 
0.0000000e+00 -1.1021060e-04 0.0000000e+00 
0.0000000e+00 1.3802637e-06 0.0000000e+00 
0.0000000e+00 8.4534957e-05 0.0000000e+00 
0.0000000e+00 1.3925348e-04 0.0000000e+00 
0.0000000e+00 1.6553584e-04 0.0000000e+00 
0.0000000e+00 1.6338202e-04 0.0000000e+00 
0.0000000e+00 1.3279203e-04 0.0000000e+00 
0.0000000e+00 7.3765877e-05 0.0000000e+00 
0.0000000e+00 -1.3696450e-05 0.0000000e+00 
0.0000000e+00 -1.2959495e-04 0.0000000e+00 
0.0000000e+00 -2.7392962e-04 0.0000000e+00 
0.0000000e+00 -1.4402989e-04 0.0000000e+00 
0.0000000e+00 -3.8139831e-05 0.0000000e+00 
0.0000000e+00 4.3740583e-05 0.0000000e+00 
0.0000000e+00 1.0161135e-04 0.0000000e+00 
0.0000000e+00 1.3547247e-04 0.0000000e+00 
0.0000000e+00 1.4532394e-04 0.0000000e+00 
0.0000000e+00 1.3116575e-04 0.0000000e+00 
0.0000000e+00 9.2997921e-05 0.0000000e+00 
0.0000000e+00 3.0820440e-05 0.0000000e+00 
0.0000000e+00 -5.5366691e-05 0.0000000e+00 
0.0000000e+00 -1.6556347e-04 0.0000000e+00 
0.0000000e+00 -2.9976989e-04 0.0000000e+00 
0.0000000e+00 -1.6046538e-04 0.0000000e+00 
0.0000000e+00 -4.6737172e-05 0.0000000e+00 
0.0000000e+00 4.1414714e-05 0.0000000e+00 
0.0000000e+00 1.0399029e-04 0.0000000e+00 
0.0000000e+00 1.4098955e-04 0.0000000e+00 
0.0000000e+00 1.5241248e-04 0.0000000e+00 
0.0000000e+00 1.3825911e-04 0.0000000e+00 
0.0000000e+00 9.8529417e-05 0.0000000e+00 
0.0000000e+00 3.3223412e-05 0.0000000e+00 
0.0000000e+00 -5.7658908e-05 0.0000000e+00 
0.0000000e+00 -1.7411755e-04 0.0000000e+00 
0.0000000e+00 -3.1615249e-04 0.0000000e+00 
0.0000000e+00 -1.8513401e-04 0.0000000e+00 
0.0000000e+00 -7.6309712e-05 0.0000000e+00 
0.0000000e+00 1.0320369e-05 0.0000000e+00 
0.0000000e+00 7.4756244e-05 0.0000000e+00 
0.0000000e+00 1.1699791e-04 0.0000000e+00 
0.0000000e+00 1.3704537e-04 0.0000000e+00 
0.0000000e+00 1.3489861e-04 0.0000000e+00 
0.0000000e+00 1.1055766e-04 0.0000000e+00 
0.0000000e+00 6.4022490e-05 0.0000000e+00 
0.0000000e+00 -4.7068811e-06 0.0000000e+00 
0.0000000e+00 -9.5630465e-05 0.0000000e+00 
0.0000000e+00 -2.0874826e-04 0.0000000e+00 
0.0000000e+00 -4.5664008e-05 0.0000000e+00 
0.0000000e+00 8.0240381e-05 0.0000000e+00 
0.0000000e+00 1.6896491e-04 0.0000000e+00 
0.0000000e+00 2.2050958e-04 0.0000000e+00 