# vtk DataFile Version 4.0
vtk output
ASCII
DATASET UNSTRUCTURED_GRID
POINTS 86 float
0.0000000e+00 0.0000000e+00 0.0000000e+00 
0.0000000e+00 0.0000000e+00 6.0000002e-01 
0.0000000e+00 0.0000000e+00 1.2000000e+00 
0.0000000e+00 0.0000000e+00 1.8000000e+00 
0.0000000e+00 0.0000000e+00 2.4000001e+00 
0.0000000e+00 0.0000000e+00 3.0000000e+00 
0.0000000e+00 0.0000000e+00 3.5999999e+00 
0.0000000e+00 0.0000000e+00 4.1999998e+00 
0.0000000e+00 0.0000000e+00 4.8000002e+00 
0.0000000e+00 0.0000000e+00 5.4000001e+00 
0.0000000e+00 0.0000000e+00 6.0000000e+00 
0.0000000e+00 0.0000000e+00 6.5999999e+00 
0.0000000e+00 0.0000000e+00 7.1999998e+00 
0.0000000e+00 0.0000000e+00 7.8000002e+00 
0.0000000e+00 0.0000000e+00 8.3999996e+00 
0.0000000e+00 0.0000000e+00 9.0000000e+00 
0.0000000e+00 0.0000000e+00 9.6000004e+00 
0.0000000e+00 0.0000000e+00 1.0200000e+01 
0.0000000e+00 0.0000000e+00 1.0800000e+01 
0.0000000e+00 0.0000000e+00 1.1400000e+01 
0.0000000e+00 0.0000000e+00 1.2000000e+01 
0.0000000e+00 0.0000000e+00 1.2600000e+01 
0.0000000e+00 0.0000000e+00 1.3200000e+01 
0.0000000e+00 0.0000000e+00 1.3800000e+01 
0.0000000e+00 0.0000000e+00 1.4400000e+01 
0.0000000e+00 0.0000000e+00 1.5000000e+01 
0.0000000e+00 0.0000000e+00 1.5600000e+01 
0.0000000e+00 0.0000000e+00 1.6200001e+01 
0.0000000e+00 0.0000000e+00 1.6799999e+01 
0.0000000e+00 0.0000000e+00 1.7400000e+01 
0.0000000e+00 0.0000000e+00 1.8000000e+01 
6.0000000e+00 0.0000000e+00 0.0000000e+00 
6.0000000e+00 0.0000000e+00 6.0000002e-01 
6.0000000e+00 0.0000000e+00 1.2000000e+00 
6.0000000e+00 0.0000000e+00 1.8000000e+00 
6.0000000e+00 0.0000000e+00 2.4000001e+00 
6.0000000e+00 0.0000000e+00 3.0000000e+00 
6.0000000e+00 0.0000000e+00 3.5999999e+00 
6.0000000e+00 0.0000000e+00 4.1999998e+00 
6.0000000e+00 0.0000000e+00 4.8000002e+00 
6.0000000e+00 0.0000000e+00 5.4000001e+00 
6.0000000e+00 0.0000000e+00 6.0000000e+00 
6.0000000e+00 0.0000000e+00 6.5999999e+00 
6.0000000e+00 0.0000000e+00 7.1999998e+00 
6.0000000e+00 0.0000000e+00 7.8000002e+00 
6.0000000e+00 0.0000000e+00 8.3999996e+00 
6.0000000e+00 0.0000000e+00 9.0000000e+00 
6.0000000e+00 0.0000000e+00 9.6000004e+00 
6.0000000e+00 0.0000000e+00 1.0200000e+01 
6.0000000e+00 0.0000000e+00 1.0800000e+01 
6.0000000e+00 0.0000000e+00 1.1400000e+01 
6.0000000e+00 0.0000000e+00 1.2000000e+01 
6.0000000e+00 0.0000000e+00 1.2600000e+01 
6.0000000e+00 0.0000000e+00 1.3200000e+01 
6.0000000e+00 0.0000000e+00 1.3800000e+01 
6.0000000e+00 0.0000000e+00 1.4400000e+01 
6.0000000e+00 0.0000000e+00 1.5000000e+01 
6.0000000e+00 0.0000000e+00 1.5600000e+01 
6.0000000e+00 0.0000000e+00 1.6200001e+01 
6.0000000e+00 0.0000000e+00 1.6799999e+01 
6.0000000e+00 0.0000000e+00 1.7400000e+01 
6.0000000e+00 0.0000000e+00 1.8000000e+01 
1.2000000e+00 0.0000000e+00 3.0000000e+00 
2.4000001e+00 0.0000000e+00 3.0000000e+00 
3.5999999e+00 0.0000000e+00 3.0000000e+00 
4.8000002e+00 0.0000000e+00 3.0000000e+00 
1.2000000e+00 0.0000000e+00 6.0000000e+00 
2.4000001e+00 0.0000000e+00 6.0000000e+00 
3.5999999e+00 0.0000000e+00 6.0000000e+00 
4.8000002e+00 0.0000000e+00 6.0000000e+00 
1.2000000e+00 0.0000000e+00 9.0000000e+00 
2.4000001e+00 0.0000000e+00 9.0000000e+00 
3.5999999e+00 0.0000000e+00 9.0000000e+00 
4.8000002e+00 0.0000000e+00 9.0000000e+00 
1.2000000e+00 0.0000000e+00 1.2000000e+01 
2.4000001e+00 0.0000000e+00 1.2000000e+01 
3.5999999e+00 0.0000000e+00 1.2000000e+01 
4.8000002e+00 0.0000000e+00 1.2000000e+01 
1.2000000e+00 0.0000000e+00 1.5000000e+01 
2.4000001e+00 0.0000000e+00 1.5000000e+01 
3.5999999e+00 0.0000000e+00 1.5000000e+01 
4.8000002e+00 0.0000000e+00 1.5000000e+01 
1.2000000e+00 0.0000000e+00 1.8000000e+01 
2.4000001e+00 0.0000000e+00 1.8000000e+01 
3.5999999e+00 0.0000000e+00 1.8000000e+01 
4.8000002e+00 0.0000000e+00 1.8000000e+01 

CELLS 90 270
2 0 1
2 1 2
2 2 3
2 3 4
2 4 5
2 5 6
2 6 7
2 7 8
2 8 9
2 9 10
2 10 11
2 11 12
2 12 13
2 13 14
2 14 15
2 15 16
2 16 17
2 17 18
2 18 19
2 19 20
2 20 21
2 21 22
2 22 23
2 23 24
2 24 25
2 25 26
2 26 27
2 27 28
2 28 29
2 29 30
2 31 32
2 32 33
2 33 34
2 34 35
2 35 36
2 36 37
2 37 38
2 38 39
2 39 40
2 40 41
2 41 42
2 42 43
2 43 44
2 44 45
2 45 46
2 46 47
2 47 48
2 48 49
2 49 50
2 50 51
2 51 52
2 52 53
2 53 54
2 54 55
2 55 56
2 56 57
2 57 58
2 58 59
2 59 60
2 60 61
2 5 62
2 62 63
2 63 64
2 64 65
2 65 36
2 10 66
2 66 67
2 67 68
2 68 69
2 69 41
2 15 70
2 70 71
2 71 72
2 72 73
2 73 46
2 20 74
2 74 75
2 75 76
2 76 77
2 77 51
2 25 78
2 78 79
2 79 80
2 80 81
2 81 56
2 30 82
2 82 83
2 83 84
2 84 85
2 85 61

CELL_TYPES 90
3
3
3
3
3
3
3
3
3
3
3
3
3
3
3
3
3
3
3
3
3
3
3
3
3
3
3
3
3
3
3
3
3
3
3
3
3
3
3
3
3
3
3
3
3
3
3
3
3
3
3
3
3
3
3
3
3
3
3
3
3
3
3
3
3
3
3
3
3
3
3
3
3
3
3
3
3
3
3
3
3
3
3
3
3
3
3
3
3
3
POINT_DATA 86
FIELD FieldData 3
ADJOINT_DISPLACEMENT 3 86  float
0.0000000e+00 0.0000000e+00 0.0000000e+00 
-4.5307949e-02 0.0000000e+00 4.0936891e-15 
-9.4776541e-02 0.0000000e+00 8.1873781e-15 
-1.5256640e-01 0.0000000e+00 1.2281066e-14 
-2.2283818e-01 0.0000000e+00 1.6374756e-14 
-3.0975252e-01 0.0000000e+00 2.0468444e-14 
-4.3969128e-01 0.0000000e+00 2.0720542e-03 
-6.3954306e-01 0.0000000e+00 4.1441084e-03 
-9.1422856e-01 0.0000000e+00 6.2161628e-03 
-6.6866845e-01 0.0000000e+00 8.2882168e-03 
-5.0778341e-01 0.0000000e+00 1.0360271e-02 
-4.1275969e-01 0.0000000e+00 1.0789610e-02 
-3.5520524e-01 0.0000000e+00 1.1218950e-02 
-3.2567313e-01 0.0000000e+00 1.1648290e-02 
-3.1471652e-01 0.0000000e+00 1.2077630e-02 
-3.1288847e-01 0.0000000e+00 1.2506968e-02 
-3.1068158e-01 0.0000000e+00 1.2595924e-02 
-3.0567986e-01 0.0000000e+00 1.2684878e-02 
-2.9907364e-01 0.0000000e+00 1.2773833e-02 
-2.9205325e-01 0.0000000e+00 1.2862788e-02 
-2.8580904e-01 0.0000000e+00 1.2951743e-02 
-2.8061751e-01 0.0000000e+00 1.2970142e-02 
-2.7594087e-01 0.0000000e+00 1.2988541e-02 
-2.7174789e-01 0.0000000e+00 1.3006940e-02 
-2.6800746e-01 0.0000000e+00 1.3025340e-02 
-2.6468837e-01 0.0000000e+00 1.3043740e-02 
-2.6162347e-01 0.0000000e+00 1.3047395e-02 
-2.5865954e-01 0.0000000e+00 1.3051051e-02 
-2.5578621e-01 0.0000000e+00 1.3054706e-02 
-2.5299320e-01 0.0000000e+00 1.3058362e-02 
-2.5027016e-01 0.0000000e+00 1.3062017e-02 
0.0000000e+00 0.0000000e+00 0.0000000e+00 
-7.9015300e-02 0.0000000e+00 -4.1798480e-15 
-1.5386997e-01 0.0000000e+00 -8.3592818e-15 
-2.2040336e-01 0.0000000e+00 -1.2539055e-14 
-2.7445483e-01 0.0000000e+00 -1.6719773e-14 
-3.1186375e-01 0.0000000e+00 -2.0896435e-14 
-3.4354520e-01 0.0000000e+00 -2.0720542e-03 
-3.7990758e-01 0.0000000e+00 -4.1441084e-03 
-4.1603023e-01 0.0000000e+00 -6.2161628e-03 
-4.4699243e-01 0.0000000e+00 -8.2882168e-03 
-4.6787351e-01 0.0000000e+00 -1.0360271e-02 
-4.6791834e-01 0.0000000e+00 -1.0789610e-02 
-4.4595015e-01 0.0000000e+00 -1.1218950e-02 
-4.1141582e-01 0.0000000e+00 -1.1648290e-02 
-3.7376225e-01 0.0000000e+00 -1.2077630e-02 
-3.4243628e-01 0.0000000e+00 -1.2506968e-02 
-3.2081848e-01 0.0000000e+00 -1.2595924e-02 
-3.0519789e-01 0.0000000e+00 -1.2684878e-02 
-2.9438415e-01 0.0000000e+00 -1.2773833e-02 
-2.8718698e-01 0.0000000e+00 -1.2862788e-02 
-2.8241599e-01 0.0000000e+00 -1.2951743e-02 
-2.7852470e-01 0.0000000e+00 -1.2970142e-02 
-2.7478090e-01 0.0000000e+00 -1.2988541e-02 
-2.7121580e-01 0.0000000e+00 -1.3006940e-02 
-2.6786053e-01 0.0000000e+00 -1.3025340e-02 
-2.6474631e-01 0.0000000e+00 -1.3043740e-02 
-2.6177484e-01 0.0000000e+00 -1.3047395e-02 
-2.5883406e-01 0.0000000e+00 -1.3051051e-02 
-2.5593427e-01 0.0000000e+00 -1.3054706e-02 
-2.5308573e-01 0.0000000e+00 -1.3058362e-02 
-2.5029883e-01 0.0000000e+00 -1.3062017e-02 
-3.1017476e-01 0.0000000e+00 1.1481254e-01 
-3.1059700e-01 0.0000000e+00 1.1254365e-01 
-3.1101924e-01 0.0000000e+00 5.2868489e-02 
-3.1144151e-01 0.0000000e+00 -4.5377812e-03 
-4.9980143e-01 0.0000000e+00 -1.4598009e-01 
-4.9181944e-01 0.0000000e+00 -1.7891215e-01 
-4.8383749e-01 0.0000000e+00 -1.3574608e-01 
-4.7585550e-01 0.0000000e+00 -6.3792050e-02 
-3.1879804e-01 0.0000000e+00 1.7381487e-02 
-3.2470760e-01 0.0000000e+00 2.7120434e-02 
-3.3061716e-01 0.0000000e+00 3.1920727e-02 
-3.3652672e-01 0.0000000e+00 2.1979287e-02 
-2.8513044e-01 0.0000000e+00 4.5353011e-03 
-2.8445181e-01 0.0000000e+00 -2.3127359e-04 
-2.8377321e-01 0.0000000e+00 -3.3799761e-03 
-2.8309458e-01 0.0000000e+00 -6.9428007e-03 
-2.6469997e-01 0.0000000e+00 7.2932551e-03 
-2.6471153e-01 0.0000000e+00 2.2338892e-03 
-2.6472312e-01 0.0000000e+00 -2.5589829e-03 
-2.6473472e-01 0.0000000e+00 -7.5099845e-03 
-2.5027591e-01 0.0000000e+00 7.7808984e-03 
-2.5028163e-01 0.0000000e+00 2.6332145e-03 
-2.5028735e-01 0.0000000e+00 -2.4863137e-03 
-2.5029311e-01 0.0000000e+00 -7.6829647e-03 
ADJOINT_ROTATION 3 86  float
0.0000000e+00 -7.4357517e-02 0.0000000e+00 
0.0000000e+00 -7.7824719e-02 0.0000000e+00 
0.0000000e+00 -8.8226311e-02 0.0000000e+00 
0.0000000e+00 -1.0556231e-01 0.0000000e+00 
0.0000000e+00 -1.2983270e-01 0.0000000e+00 
0.0000000e+00 -1.6103747e-01 0.0000000e+00 
0.0000000e+00 -2.7345863e-01 0.0000000e+00 
0.0000000e+00 -3.9408088e-01 0.0000000e+00 
0.0000000e+00 -5.2290428e-01 0.0000000e+00 
0.0000000e+00 3.4007117e-01 0.0000000e+00 
0.0000000e+00 1.9484548e-01 0.0000000e+00 
0.0000000e+00 1.2452435e-01 0.0000000e+00 
0.0000000e+00 6.9948010e-02 0.0000000e+00 
0.0000000e+00 3.1116476e-02 0.0000000e+00 
0.0000000e+00 8.0297496e-03 0.0000000e+00 
0.0000000e+00 6.8782532e-04 0.0000000e+00 
0.0000000e+00 6.3378219e-03 0.0000000e+00 
0.0000000e+00 1.0003930e-02 0.0000000e+00 
0.0000000e+00 1.1686149e-02 0.0000000e+00 
0.0000000e+00 1.1384480e-02 0.0000000e+00 
0.0000000e+00 9.0989219e-03 0.0000000e+00 
0.0000000e+00 8.2148360e-03 0.0000000e+00 
0.0000000e+00 7.3827002e-03 0.0000000e+00 
0.0000000e+00 6.6025131e-03 0.0000000e+00 
0.0000000e+00 5.8742757e-03 0.0000000e+00 
0.0000000e+00 5.1979870e-03 0.0000000e+00 
0.0000000e+00 5.0211614e-03 0.0000000e+00 
0.0000000e+00 4.8615271e-03 0.0000000e+00 
0.0000000e+00 4.7190846e-03 0.0000000e+00 
0.0000000e+00 4.5938333e-03 0.0000000e+00 
0.0000000e+00 4.4857739e-03 0.0000000e+00 
0.0000000e+00 -1.3284791e-01 0.0000000e+00 
0.0000000e+00 -1.2938070e-01 0.0000000e+00 
0.0000000e+00 -1.1897911e-01 0.0000000e+00 
0.0000000e+00 -1.0164312e-01 0.0000000e+00 
0.0000000e+00 -7.7372730e-02 0.0000000e+00 
0.0000000e+00 -4.6167940e-02 0.0000000e+00 
0.0000000e+00 -5.8070056e-02 0.0000000e+00 
0.0000000e+00 -6.1771039e-02 0.0000000e+00 
0.0000000e+00 -5.7270885e-02 0.0000000e+00 
0.0000000e+00 -4.4569597e-02 0.0000000e+00 
0.0000000e+00 -2.3667168e-02 0.0000000e+00 
0.0000000e+00 2.0893600e-02 0.0000000e+00 
0.0000000e+00 4.9709562e-02 0.0000000e+00 
0.0000000e+00 6.2780723e-02 0.0000000e+00 
0.0000000e+00 6.0107078e-02 0.0000000e+00 
0.0000000e+00 4.1688632e-02 0.0000000e+00 
0.0000000e+00 3.0701350e-02 0.0000000e+00 
0.0000000e+00 2.1697957e-02 0.0000000e+00 
0.0000000e+00 1.4678452e-02 0.0000000e+00 
0.0000000e+00 9.6428366e-03 0.0000000e+00 
0.0000000e+00 6.5911096e-03 0.0000000e+00 
0.0000000e+00 6.3712313e-03 0.0000000e+00 
0.0000000e+00 6.0994043e-03 0.0000000e+00 
0.0000000e+00 5.7756281e-03 0.0000000e+00 
0.0000000e+00 5.3999024e-03 0.0000000e+00 
0.0000000e+00 4.9722274e-03 0.0000000e+00 
0.0000000e+00 4.9297228e-03 0.0000000e+00 
0.0000000e+00 4.8700264e-03 0.0000000e+00 
0.0000000e+00 4.7931387e-03 0.0000000e+00 
0.0000000e+00 4.6990593e-03 0.0000000e+00 
0.0000000e+00 4.5877881e-03 0.0000000e+00 
0.0000000e+00 -3.8604971e-02 0.0000000e+00 
0.0000000e+00 3.4098238e-02 0.0000000e+00 
0.0000000e+00 5.7072148e-02 0.0000000e+00 
0.0000000e+00 3.0316753e-02 0.0000000e+00 
0.0000000e+00 7.2292648e-02 0.0000000e+00 
0.0000000e+00 -1.0835034e-02 0.0000000e+00 
0.0000000e+00 -5.4537565e-02 0.0000000e+00 
0.0000000e+00 -5.8814943e-02 0.0000000e+00 
0.0000000e+00 -7.4504828e-03 0.0000000e+00 
0.0000000e+00 -7.4195564e-03 0.0000000e+00 
0.0000000e+00 7.8060507e-04 0.0000000e+00 
0.0000000e+00 1.7150002e-02 0.0000000e+00 
0.0000000e+00 5.2107018e-03 0.0000000e+00 
0.0000000e+00 3.0158106e-03 0.0000000e+00 
0.0000000e+00 2.5142482e-03 0.0000000e+00 
0.0000000e+00 3.7060145e-03 0.0000000e+00 
0.0000000e+00 4.4451286e-03 0.0000000e+00 
0.0000000e+00 4.0461235e-03 0.0000000e+00 
0.0000000e+00 4.0009716e-03 0.0000000e+00 
0.0000000e+00 4.3096729e-03 0.0000000e+00 
0.0000000e+00 4.3307124e-03 0.0000000e+00 
0.0000000e+00 4.2633829e-03 0.0000000e+00 
0.0000000e+00 4.2837858e-03 0.0000000e+00 
0.0000000e+00 4.3919212e-03 0.0000000e+00 
SHAPE_SENSITIVITY 3 86  float
0.0000000e+00 0.0000000e+00 0.0000000e+00 
0.0000000e+00 0.0000000e+00 0.0000000e+00 
0.0000000e+00 0.0000000e+00 0.0000000e+00 
0.0000000e+00 0.0000000e+00 0.0000000e+00 
0.0000000e+00 0.0000000e+00 0.0000000e+00 
0.0000000e+00 0.0000000e+00 0.0000000e+00 
0.0000000e+00 0.0000000e+00 0.0000000e+00 
0.0000000e+00 0.0000000e+00 0.0000000e+00 
0.0000000e+00 0.0000000e+00 0.0000000e+00 
0.0000000e+00 0.0000000e+00 0.0000000e+00 
0.0000000e+00 0.0000000e+00 0.0000000e+00 
0.0000000e+00 0.0000000e+00 0.0000000e+00 
0.0000000e+00 0.0000000e+00 0.0000000e+00 
0.0000000e+00 0.0000000e+00 0.0000000e+00 
0.0000000e+00 0.0000000e+00 0.0000000e+00 
0.0000000e+00 0.0000000e+00 0.0000000e+00 
0.0000000e+00 0.0000000e+00 0.0000000e+00 
0.0000000e+00 0.0000000e+00 0.0000000e+00 
0.0000000e+00 0.0000000e+00 0.0000000e+00 
0.0000000e+00 0.0000000e+00 0.0000000e+00 
0.0000000e+00 0.0000000e+00 0.0000000e+00 
0.0000000e+00 0.0000000e+00 0.0000000e+00 
0.0000000e+00 0.0000000e+00 0.0000000e+00 
0.0000000e+00 0.0000000e+00 0.0000000e+00 
0.0000000e+00 0.0000000e+00 0.0000000e+00 
0.0000000e+00 0.0000000e+00 0.0000000e+00 
0.0000000e+00 0.0000000e+00 0.0000000e+00 
0.0000000e+00 0.0000000e+00 0.0000000e+00 
0.0000000e+00 0.0000000e+00 0.0000000e+00 
0.0000000e+00 0.0000000e+00 0.0000000e+00 
0.0000000e+00 0.0000000e+00 0.0000000e+00 
0.0000000e+00 0.0000000e+00 0.0000000e+00 
0.0000000e+00 0.0000000e+00 0.0000000e+00 
0.0000000e+00 0.0000000e+00 0.0000000e+00 
0.0000000e+00 0.0000000e+00 0.0000000e+00 
0.0000000e+00 0.0000000e+00 0.0000000e+00 
0.0000000e+00 0.0000000e+00 0.0000000e+00 
0.0000000e+00 0.0000000e+00 0.0000000e+00 
0.0000000e+00 0.0000000e+00 0.0000000e+00 
0.0000000e+00 0.0000000e+00 0.0000000e+00 
0.0000000e+00 0.0000000e+00 0.0000000e+00 
0.0000000e+00 0.0000000e+00 0.0000000e+00 
0.0000000e+00 0.0000000e+00 0.0000000e+00 
0.0000000e+00 0.0000000e+00 0.0000000e+00 
0.0000000e+00 0.0000000e+00 0.0000000e+00 
0.0000000e+00 0.0000000e+00 0.0000000e+00 
0.0000000e+00 0.0000000e+00 0.0000000e+00 
0.0000000e+00 0.0000000e+00 0.0000000e+00 
0.0000000e+00 0.0000000e+00 0.0000000e+00 
0.0000000e+00 0.0000000e+00 0.0000000e+00 
0.0000000e+00 0.0000000e+00 0.0000000e+00 
0.0000000e+00 0.0000000e+00 0.0000000e+00 
0.0000000e+00 0.0000000e+00 0.0000000e+00 
0.0000000e+00 0.0000000e+00 0.0000000e+00 
0.0000000e+00 0.0000000e+00 0.0000000e+00 
0.0000000e+00 0.0000000e+00 0.0000000e+00 
0.0000000e+00 0.0000000e+00 0.0000000e+00 
0.0000000e+00 0.0000000e+00 0.0000000e+00 
0.0000000e+00 0.0000000e+00 0.0000000e+00 
0.0000000e+00 0.0000000e+00 0.0000000e+00 
0.0000000e+00 0.0000000e+00 0.0000000e+00 
0.0000000e+00 0.0000000e+00 0.0000000e+00 
0.0000000e+00 0.0000000e+00 0.0000000e+00 
0.0000000e+00 0.0000000e+00 0.0000000e+00 
0.0000000e+00 0.0000000e+00 0.0000000e+00 
0.0000000e+00 0.0000000e+00 0.0000000e+00 
0.0000000e+00 0.0000000e+00 0.0000000e+00 
0.0000000e+00 0.0000000e+00 0.0000000e+00 
0.0000000e+00 0.0000000e+00 0.0000000e+00 
0.0000000e+00 0.0000000e+00 0.0000000e+00 
0.0000000e+00 0.0000000e+00 0.0000000e+00 
0.0000000e+00 0.0000000e+00 0.0000000e+00 
0.0000000e+00 0.0000000e+00 0.0000000e+00 
0.0000000e+00 0.0000000e+00 0.0000000e+00 
0.0000000e+00 0.0000000e+00 0.0000000e+00 
0.0000000e+00 0.0000000e+00 0.0000000e+00 
0.0000000e+00 0.0000000e+00 0.0000000e+00 
0.0000000e+00 0.0000000e+00 0.0000000e+00 
0.0000000e+00 0.0000000e+00 0.0000000e+00 
0.0000000e+00 0.0000000e+00 0.0000000e+00 
0.0000000e+00 0.0000000e+00 0.0000000e+00 
0.0000000e+00 0.0000000e+00 0.0000000e+00 
0.0000000e+00 0.0000000e+00 0.0000000e+00 
0.0000000e+00 0.0000000e+00 0.0000000e+00 
0.0000000e+00 0.0000000e+00 0.0000000e+00 
0.0000000e+00 0.0000000e+00 0.0000000e+00 
CELL_DATA 90
FIELD FieldData 1
I22_SENSITIVITY 1 90  float
-3.8984986e-03
-2.7289499e-02
-7.4071497e-02
-1.4424449e-01
-2.3780850e-01
1.1787596e+00
6.8208820e-01
1.0615345e-01
-5.4904473e-01
-1.2835063e+00
6.2275791e-01
2.4356392e-01
3.4556189e-03
-9.7566970e-02
-5.9503857e-02
-5.0660748e-02
-1.6897177e-02
-7.0131337e-04
-2.0731580e-03
-2.1012710e-02
7.9118339e-03
3.9208829e-03
3.7032049e-04
-2.7398539e-03
-5.4096403e-03
1.6493273e-03
4.7953436e-04
-4.7264853e-04
-1.2072216e-03
-1.7241848e-03
-3.8985026e-03
-2.7289502e-02
-7.4071497e-02
-1.4424451e-01
-2.3780850e-01
-1.2844855e-01
-2.4332086e-02
5.2095857e-04
-5.3889409e-02
-1.8756318e-01
3.9674923e-01
1.3133562e-01
5.0076940e-03
1.7765479e-02
1.6960897e-01
-9.7826093e-02
-4.0431190e-02
-6.0399115e-04
2.1655498e-02
2.6347280e-02
-1.9448128e-03
-1.2564594e-03
-1.2771793e-04
1.4414119e-03
3.4509297e-03
-3.8521283e-04
-1.6686739e-04
2.6908799e-04
9.2265313e-04
1.7938283e-03
1.2458901e+00
-5.7815135e-01
-3.3625108e-01
1.8133605e-01
-8.1564474e-01
-1.3305367e+00
6.0785323e-01
6.0250741e-01
7.2731212e-02
4.3783012e-01
-9.8968282e-02
-8.4119076e-03
-1.1354604e-01
-1.2027825e-01
2.6548395e-01
-4.2793605e-02
1.5569582e-02
6.9541833e-03
-7.6799621e-03
3.2626975e-02
-8.6775338e-03
2.6043351e-03
6.0566014e-04
-1.9348289e-03
7.7215726e-03
-1.2925743e-03
6.3913426e-04
-3.4268462e-04
-1.0796696e-03
1.5865414e-03
