# vtk DataFile Version 4.0
vtk output
ASCII
DATASET UNSTRUCTURED_GRID
POINTS 212 float
0.0000000e+00 0.0000000e+00 0.0000000e+00 
0.0000000e+00 0.0000000e+00 2.5000000e-01 
0.0000000e+00 0.0000000e+00 5.0000000e-01 
0.0000000e+00 0.0000000e+00 7.5000000e-01 
0.0000000e+00 0.0000000e+00 1.0000000e+00 
0.0000000e+00 0.0000000e+00 1.2500000e+00 
0.0000000e+00 0.0000000e+00 1.5000000e+00 
0.0000000e+00 0.0000000e+00 1.7500000e+00 
0.0000000e+00 0.0000000e+00 2.0000000e+00 
0.0000000e+00 0.0000000e+00 2.2500000e+00 
0.0000000e+00 0.0000000e+00 2.5000000e+00 
0.0000000e+00 0.0000000e+00 2.7500000e+00 
0.0000000e+00 0.0000000e+00 3.0000000e+00 
0.0000000e+00 0.0000000e+00 3.2500000e+00 
0.0000000e+00 0.0000000e+00 3.5000000e+00 
0.0000000e+00 0.0000000e+00 3.7500000e+00 
0.0000000e+00 0.0000000e+00 4.0000000e+00 
0.0000000e+00 0.0000000e+00 4.2500000e+00 
0.0000000e+00 0.0000000e+00 4.5000000e+00 
0.0000000e+00 0.0000000e+00 4.7500000e+00 
0.0000000e+00 0.0000000e+00 5.0000000e+00 
0.0000000e+00 0.0000000e+00 5.2500000e+00 
0.0000000e+00 0.0000000e+00 5.5000000e+00 
0.0000000e+00 0.0000000e+00 5.7500000e+00 
0.0000000e+00 0.0000000e+00 6.0000000e+00 
0.0000000e+00 0.0000000e+00 6.2500000e+00 
0.0000000e+00 0.0000000e+00 6.5000000e+00 
0.0000000e+00 0.0000000e+00 6.7500000e+00 
0.0000000e+00 0.0000000e+00 7.0000000e+00 
0.0000000e+00 0.0000000e+00 7.2500000e+00 
0.0000000e+00 0.0000000e+00 7.5000000e+00 
0.0000000e+00 0.0000000e+00 7.7500000e+00 
0.0000000e+00 0.0000000e+00 8.0000000e+00 
0.0000000e+00 0.0000000e+00 8.2500000e+00 
0.0000000e+00 0.0000000e+00 8.5000000e+00 
0.0000000e+00 0.0000000e+00 8.7500000e+00 
0.0000000e+00 0.0000000e+00 9.0000000e+00 
0.0000000e+00 0.0000000e+00 9.2500000e+00 
0.0000000e+00 0.0000000e+00 9.5000000e+00 
0.0000000e+00 0.0000000e+00 9.7500000e+00 
0.0000000e+00 0.0000000e+00 1.0000000e+01 
0.0000000e+00 0.0000000e+00 1.0250000e+01 
0.0000000e+00 0.0000000e+00 1.0500000e+01 
0.0000000e+00 0.0000000e+00 1.0750000e+01 
0.0000000e+00 0.0000000e+00 1.1000000e+01 
0.0000000e+00 0.0000000e+00 1.1250000e+01 
0.0000000e+00 0.0000000e+00 1.1500000e+01 
0.0000000e+00 0.0000000e+00 1.1750000e+01 
0.0000000e+00 0.0000000e+00 1.2000000e+01 
0.0000000e+00 0.0000000e+00 1.2250000e+01 
0.0000000e+00 0.0000000e+00 1.2500000e+01 
0.0000000e+00 0.0000000e+00 1.2750000e+01 
0.0000000e+00 0.0000000e+00 1.3000000e+01 
0.0000000e+00 0.0000000e+00 1.3250000e+01 
0.0000000e+00 0.0000000e+00 1.3500000e+01 
0.0000000e+00 0.0000000e+00 1.3750000e+01 
0.0000000e+00 0.0000000e+00 1.4000000e+01 
0.0000000e+00 0.0000000e+00 1.4250000e+01 
0.0000000e+00 0.0000000e+00 1.4500000e+01 
0.0000000e+00 0.0000000e+00 1.4750000e+01 
0.0000000e+00 0.0000000e+00 1.5000000e+01 
0.0000000e+00 0.0000000e+00 1.5250000e+01 
0.0000000e+00 0.0000000e+00 1.5500000e+01 
0.0000000e+00 0.0000000e+00 1.5750000e+01 
0.0000000e+00 0.0000000e+00 1.6000000e+01 
0.0000000e+00 0.0000000e+00 1.6250000e+01 
0.0000000e+00 0.0000000e+00 1.6500000e+01 
0.0000000e+00 0.0000000e+00 1.6750000e+01 
0.0000000e+00 0.0000000e+00 1.7000000e+01 
0.0000000e+00 0.0000000e+00 1.7250000e+01 
0.0000000e+00 0.0000000e+00 1.7500000e+01 
0.0000000e+00 0.0000000e+00 1.7750000e+01 
0.0000000e+00 0.0000000e+00 1.8000000e+01 
6.0000000e+00 0.0000000e+00 0.0000000e+00 
6.0000000e+00 0.0000000e+00 2.5000000e-01 
6.0000000e+00 0.0000000e+00 5.0000000e-01 
6.0000000e+00 0.0000000e+00 7.5000000e-01 
6.0000000e+00 0.0000000e+00 1.0000000e+00 
6.0000000e+00 0.0000000e+00 1.2500000e+00 
6.0000000e+00 0.0000000e+00 1.5000000e+00 
6.0000000e+00 0.0000000e+00 1.7500000e+00 
6.0000000e+00 0.0000000e+00 2.0000000e+00 
6.0000000e+00 0.0000000e+00 2.2500000e+00 
6.0000000e+00 0.0000000e+00 2.5000000e+00 
6.0000000e+00 0.0000000e+00 2.7500000e+00 
6.0000000e+00 0.0000000e+00 3.0000000e+00 
6.0000000e+00 0.0000000e+00 3.2500000e+00 
6.0000000e+00 0.0000000e+00 3.5000000e+00 
6.0000000e+00 0.0000000e+00 3.7500000e+00 
6.0000000e+00 0.0000000e+00 4.0000000e+00 
6.0000000e+00 0.0000000e+00 4.2500000e+00 
6.0000000e+00 0.0000000e+00 4.5000000e+00 
6.0000000e+00 0.0000000e+00 4.7500000e+00 
6.0000000e+00 0.0000000e+00 5.0000000e+00 
6.0000000e+00 0.0000000e+00 5.2500000e+00 
6.0000000e+00 0.0000000e+00 5.5000000e+00 
6.0000000e+00 0.0000000e+00 5.7500000e+00 
6.0000000e+00 0.0000000e+00 6.0000000e+00 
6.0000000e+00 0.0000000e+00 6.2500000e+00 
6.0000000e+00 0.0000000e+00 6.5000000e+00 
6.0000000e+00 0.0000000e+00 6.7500000e+00 
6.0000000e+00 0.0000000e+00 7.0000000e+00 
6.0000000e+00 0.0000000e+00 7.2500000e+00 
6.0000000e+00 0.0000000e+00 7.5000000e+00 
6.0000000e+00 0.0000000e+00 7.7500000e+00 
6.0000000e+00 0.0000000e+00 8.0000000e+00 
6.0000000e+00 0.0000000e+00 8.2500000e+00 
6.0000000e+00 0.0000000e+00 8.5000000e+00 
6.0000000e+00 0.0000000e+00 8.7500000e+00 
6.0000000e+00 0.0000000e+00 9.0000000e+00 
6.0000000e+00 0.0000000e+00 9.2500000e+00 
6.0000000e+00 0.0000000e+00 9.5000000e+00 
6.0000000e+00 0.0000000e+00 9.7500000e+00 
6.0000000e+00 0.0000000e+00 1.0000000e+01 
6.0000000e+00 0.0000000e+00 1.0250000e+01 
6.0000000e+00 0.0000000e+00 1.0500000e+01 
6.0000000e+00 0.0000000e+00 1.0750000e+01 
6.0000000e+00 0.0000000e+00 1.1000000e+01 
6.0000000e+00 0.0000000e+00 1.1250000e+01 
6.0000000e+00 0.0000000e+00 1.1500000e+01 
6.0000000e+00 0.0000000e+00 1.1750000e+01 
6.0000000e+00 0.0000000e+00 1.2000000e+01 
6.0000000e+00 0.0000000e+00 1.2250000e+01 
6.0000000e+00 0.0000000e+00 1.2500000e+01 
6.0000000e+00 0.0000000e+00 1.2750000e+01 
6.0000000e+00 0.0000000e+00 1.3000000e+01 
6.0000000e+00 0.0000000e+00 1.3250000e+01 
6.0000000e+00 0.0000000e+00 1.3500000e+01 
6.0000000e+00 0.0000000e+00 1.3750000e+01 
6.0000000e+00 0.0000000e+00 1.4000000e+01 
6.0000000e+00 0.0000000e+00 1.4250000e+01 
6.0000000e+00 0.0000000e+00 1.4500000e+01 
6.0000000e+00 0.0000000e+00 1.4750000e+01 
6.0000000e+00 0.0000000e+00 1.5000000e+01 
6.0000000e+00 0.0000000e+00 1.5250000e+01 
6.0000000e+00 0.0000000e+00 1.5500000e+01 
6.0000000e+00 0.0000000e+00 1.5750000e+01 
6.0000000e+00 0.0000000e+00 1.6000000e+01 
6.0000000e+00 0.0000000e+00 1.6250000e+01 
6.0000000e+00 0.0000000e+00 1.6500000e+01 
6.0000000e+00 0.0000000e+00 1.6750000e+01 
6.0000000e+00 0.0000000e+00 1.7000000e+01 
6.0000000e+00 0.0000000e+00 1.7250000e+01 
6.0000000e+00 0.0000000e+00 1.7500000e+01 
6.0000000e+00 0.0000000e+00 1.7750000e+01 
6.0000000e+00 0.0000000e+00 1.8000000e+01 
5.0000000e-01 0.0000000e+00 3.0000000e+00 
1.0000000e+00 0.0000000e+00 3.0000000e+00 
1.5000000e+00 0.0000000e+00 3.0000000e+00 
2.0000000e+00 0.0000000e+00 3.0000000e+00 
2.5000000e+00 0.0000000e+00 3.0000000e+00 
3.0000000e+00 0.0000000e+00 3.0000000e+00 
3.5000000e+00 0.0000000e+00 3.0000000e+00 
4.0000000e+00 0.0000000e+00 3.0000000e+00 
4.5000000e+00 0.0000000e+00 3.0000000e+00 
5.0000000e+00 0.0000000e+00 3.0000000e+00 
5.5000000e+00 0.0000000e+00 3.0000000e+00 
5.0000000e-01 0.0000000e+00 6.0000000e+00 
1.0000000e+00 0.0000000e+00 6.0000000e+00 
1.5000000e+00 0.0000000e+00 6.0000000e+00 
2.0000000e+00 0.0000000e+00 6.0000000e+00 
2.5000000e+00 0.0000000e+00 6.0000000e+00 
3.0000000e+00 0.0000000e+00 6.0000000e+00 
3.5000000e+00 0.0000000e+00 6.0000000e+00 
4.0000000e+00 0.0000000e+00 6.0000000e+00 
4.5000000e+00 0.0000000e+00 6.0000000e+00 
5.0000000e+00 0.0000000e+00 6.0000000e+00 
5.5000000e+00 0.0000000e+00 6.0000000e+00 
5.0000000e-01 0.0000000e+00 9.0000000e+00 
1.0000000e+00 0.0000000e+00 9.0000000e+00 
1.5000000e+00 0.0000000e+00 9.0000000e+00 
2.0000000e+00 0.0000000e+00 9.0000000e+00 
2.5000000e+00 0.0000000e+00 9.0000000e+00 
3.0000000e+00 0.0000000e+00 9.0000000e+00 
3.5000000e+00 0.0000000e+00 9.0000000e+00 
4.0000000e+00 0.0000000e+00 9.0000000e+00 
4.5000000e+00 0.0000000e+00 9.0000000e+00 
5.0000000e+00 0.0000000e+00 9.0000000e+00 
5.5000000e+00 0.0000000e+00 9.0000000e+00 
5.0000000e-01 0.0000000e+00 1.2000000e+01 
1.0000000e+00 0.0000000e+00 1.2000000e+01 
1.5000000e+00 0.0000000e+00 1.2000000e+01 
2.0000000e+00 0.0000000e+00 1.2000000e+01 
2.5000000e+00 0.0000000e+00 1.2000000e+01 
3.0000000e+00 0.0000000e+00 1.2000000e+01 
3.5000000e+00 0.0000000e+00 1.2000000e+01 
4.0000000e+00 0.0000000e+00 1.2000000e+01 
4.5000000e+00 0.0000000e+00 1.2000000e+01 
5.0000000e+00 0.0000000e+00 1.2000000e+01 
5.5000000e+00 0.0000000e+00 1.2000000e+01 
5.0000000e-01 0.0000000e+00 1.5000000e+01 
1.0000000e+00 0.0000000e+00 1.5000000e+01 
1.5000000e+00 0.0000000e+00 1.5000000e+01 
2.0000000e+00 0.0000000e+00 1.5000000e+01 
2.5000000e+00 0.0000000e+00 1.5000000e+01 
3.0000000e+00 0.0000000e+00 1.5000000e+01 
3.5000000e+00 0.0000000e+00 1.5000000e+01 
4.0000000e+00 0.0000000e+00 1.5000000e+01 
4.5000000e+00 0.0000000e+00 1.5000000e+01 
5.0000000e+00 0.0000000e+00 1.5000000e+01 
5.5000000e+00 0.0000000e+00 1.5000000e+01 
5.0000000e-01 0.0000000e+00 1.8000000e+01 
1.0000000e+00 0.0000000e+00 1.8000000e+01 
1.5000000e+00 0.0000000e+00 1.8000000e+01 
2.0000000e+00 0.0000000e+00 1.8000000e+01 
2.5000000e+00 0.0000000e+00 1.8000000e+01 
3.0000000e+00 0.0000000e+00 1.8000000e+01 
3.5000000e+00 0.0000000e+00 1.8000000e+01 
4.0000000e+00 0.0000000e+00 1.8000000e+01 
4.5000000e+00 0.0000000e+00 1.8000000e+01 
5.0000000e+00 0.0000000e+00 1.8000000e+01 
5.5000000e+00 0.0000000e+00 1.8000000e+01 

CELLS 216 648
2 0 1
2 1 2
2 2 3
2 3 4
2 4 5
2 5 6
2 6 7
2 7 8
2 8 9
2 9 10
2 10 11
2 11 12
2 12 13
2 13 14
2 14 15
2 15 16
2 16 17
2 17 18
2 18 19
2 19 20
2 20 21
2 21 22
2 22 23
2 23 24
2 24 25
2 25 26
2 26 27
2 27 28
2 28 29
2 29 30
2 30 31
2 31 32
2 32 33
2 33 34
2 34 35
2 35 36
2 36 37
2 37 38
2 38 39
2 39 40
2 40 41
2 41 42
2 42 43
2 43 44
2 44 45
2 45 46
2 46 47
2 47 48
2 48 49
2 49 50
2 50 51
2 51 52
2 52 53
2 53 54
2 54 55
2 55 56
2 56 57
2 57 58
2 58 59
2 59 60
2 60 61
2 61 62
2 62 63
2 63 64
2 64 65
2 65 66
2 66 67
2 67 68
2 68 69
2 69 70
2 70 71
2 71 72
2 73 74
2 74 75
2 75 76
2 76 77
2 77 78
2 78 79
2 79 80
2 80 81
2 81 82
2 82 83
2 83 84
2 84 85
2 85 86
2 86 87
2 87 88
2 88 89
2 89 90
2 90 91
2 91 92
2 92 93
2 93 94
2 94 95
2 95 96
2 96 97
2 97 98
2 98 99
2 99 100
2 100 101
2 101 102
2 102 103
2 103 104
2 104 105
2 105 106
2 106 107
2 107 108
2 108 109
2 109 110
2 110 111
2 111 112
2 112 113
2 113 114
2 114 115
2 115 116
2 116 117
2 117 118
2 118 119
2 119 120
2 120 121
2 121 122
2 122 123
2 123 124
2 124 125
2 125 126
2 126 127
2 127 128
2 128 129
2 129 130
2 130 131
2 131 132
2 132 133
2 133 134
2 134 135
2 135 136
2 136 137
2 137 138
2 138 139
2 139 140
2 140 141
2 141 142
2 142 143
2 143 144
2 144 145
2 12 146
2 146 147
2 147 148
2 148 149
2 149 150
2 150 151
2 151 152
2 152 153
2 153 154
2 154 155
2 155 156
2 156 85
2 24 157
2 157 158
2 158 159
2 159 160
2 160 161
2 161 162
2 162 163
2 163 164
2 164 165
2 165 166
2 166 167
2 167 97
2 36 168
2 168 169
2 169 170
2 170 171
2 171 172
2 172 173
2 173 174
2 174 175
2 175 176
2 176 177
2 177 178
2 178 109
2 48 179
2 179 180
2 180 181
2 181 182
2 182 183
2 183 184
2 184 185
2 185 186
2 186 187
2 187 188
2 188 189
2 189 121
2 60 190
2 190 191
2 191 192
2 192 193
2 193 194
2 194 195
2 195 196
2 196 197
2 197 198
2 198 199
2 199 200
2 200 133
2 72 201
2 201 202
2 202 203
2 203 204
2 204 205
2 205 206
2 206 207
2 207 208
2 208 209
2 209 210
2 210 211
2 211 145

CELL_TYPES 216
3
3
3
3
3
3
3
3
3
3
3
3
3
3
3
3
3
3
3
3
3
3
3
3
3
3
3
3
3
3
3
3
3
3
3
3
3
3
3
3
3
3
3
3
3
3
3
3
3
3
3
3
3
3
3
3
3
3
3
3
3
3
3
3
3
3
3
3
3
3
3
3
3
3
3
3
3
3
3
3
3
3
3
3
3
3
3
3
3
3
3
3
3
3
3
3
3
3
3
3
3
3
3
3
3
3
3
3
3
3
3
3
3
3
3
3
3
3
3
3
3
3
3
3
3
3
3
3
3
3
3
3
3
3
3
3
3
3
3
3
3
3
3
3
3
3
3
3
3
3
3
3
3
3
3
3
3
3
3
3
3
3
3
3
3
3
3
3
3
3
3
3
3
3
3
3
3
3
3
3
3
3
3
3
3
3
3
3
3
3
3
3
3
3
3
3
3
3
3
3
3
3
3
3
3
3
3
3
3
3
3
3
3
3
3
3
POINT_DATA 212
FIELD FieldData 7
DISPLACEMENT 3 212  float
0.0000000e+00 0.0000000e+00 0.0000000e+00 
-5.3488468e-05 0.0000000e+00 -2.1860529e-07 
-1.0473301e-04 0.0000000e+00 -4.3721059e-07 
-1.5148970e-04 0.0000000e+00 -6.5581588e-07 
-1.9151463e-04 0.0000000e+00 -8.7442118e-07 
-2.2256385e-04 0.0000000e+00 -1.0930264e-06 
-2.4239345e-04 0.0000000e+00 -1.3116318e-06 
-2.4875949e-04 0.0000000e+00 -1.5302370e-06 
-2.3941809e-04 0.0000000e+00 -1.7488424e-06 
-2.1212528e-04 0.0000000e+00 -1.9674476e-06 
-1.6463714e-04 0.0000000e+00 -2.1860528e-06 
-9.4709758e-05 0.0000000e+00 -2.4046583e-06 
-9.9211064e-08 0.0000000e+00 -2.6232635e-06 
8.5039603e-05 0.0000000e+00 -2.8054346e-06 
1.2999661e-04 0.0000000e+00 -2.9876057e-06 
1.4218298e-04 0.0000000e+00 -3.1697768e-06 
1.2900987e-04 0.0000000e+00 -3.3519477e-06 
9.7888471e-05 0.0000000e+00 -3.5341188e-06 
5.6229925e-05 0.0000000e+00 -3.7162899e-06 
1.1445412e-05 0.0000000e+00 -3.8984613e-06 
-2.9053901e-05 0.0000000e+00 -4.0806322e-06 
-5.7856851e-05 0.0000000e+00 -4.2628030e-06 
-6.7552261e-05 0.0000000e+00 -4.4449744e-06 
-5.0728973e-05 0.0000000e+00 -4.6271452e-06 
2.4183462e-08 0.0000000e+00 -4.8093166e-06 
5.3085434e-05 0.0000000e+00 -4.9550531e-06 
7.5993295e-05 0.0000000e+00 -5.1007901e-06 
7.4899384e-05 0.0000000e+00 -5.2465271e-06 
5.5955308e-05 0.0000000e+00 -5.3922640e-06 
2.5312682e-05 0.0000000e+00 -5.5380006e-06 
-1.0876883e-05 0.0000000e+00 -5.6837375e-06 
-4.6461773e-05 0.0000000e+00 -5.8294745e-06 
-7.5290372e-05 0.0000000e+00 -5.9752115e-06 
-9.1211077e-05 0.0000000e+00 -6.1209480e-06 
-8.8072265e-05 0.0000000e+00 -6.2666850e-06 
-5.9722337e-05 0.0000000e+00 -6.4124220e-06 
-9.6649737e-09 0.0000000e+00 -6.5581589e-06 
5.8780570e-05 0.0000000e+00 -6.6674615e-06 
8.4698790e-05 0.0000000e+00 -6.7767642e-06 
8.4399988e-05 0.0000000e+00 -6.8860668e-06 
6.4539163e-05 0.0000000e+00 -6.9953694e-06 
3.1771317e-05 0.0000000e+00 -7.1046720e-06 
-7.2485655e-06 0.0000000e+00 -7.2139746e-06 
-4.5865479e-05 0.0000000e+00 -7.3232773e-06 
-7.7424425e-05 0.0000000e+00 -7.4325799e-06 
-9.5270421e-05 0.0000000e+00 -7.5418825e-06 
-9.2748451e-05 0.0000000e+00 -7.6511851e-06 
-6.3203530e-05 0.0000000e+00 -7.7604882e-06 
1.9340378e-08 0.0000000e+00 -7.8697904e-06 
6.5088076e-05 0.0000000e+00 -7.9426591e-06 
9.9499048e-05 0.0000000e+00 -8.0155278e-06 
1.0889994e-04 0.0000000e+00 -8.0883956e-06 
9.8938443e-05 0.0000000e+00 -8.1612643e-06 
7.5262236e-05 0.0000000e+00 -8.2341330e-06 
4.3519009e-05 0.0000000e+00 -8.3070008e-06 
9.3564440e-06 0.0000000e+00 -8.3798695e-06 
-2.1577769e-05 0.0000000e+00 -8.4527383e-06 
-4.3635948e-05 0.0000000e+00 -8.5256061e-06 
-5.1170406e-05 0.0000000e+00 -8.5984748e-06 
-3.8533461e-05 0.0000000e+00 -8.6713435e-06 
-7.7420054e-08 0.0000000e+00 -8.7442113e-06 
3.0988580e-05 0.0000000e+00 -8.7806457e-06 
2.4143605e-05 0.0000000e+00 -8.8170800e-06 
-1.0932366e-05 0.0000000e+00 -8.8535144e-06 
-6.4559354e-05 0.0000000e+00 -8.8899487e-06 
-1.2705737e-04 0.0000000e+00 -8.9263831e-06 
-1.8874645e-04 0.0000000e+00 -8.9628174e-06 
-2.3994659e-04 0.0000000e+00 -8.9992509e-06 
-2.7097785e-04 0.0000000e+00 -9.0356853e-06 
-2.7216019e-04 0.0000000e+00 -9.0721196e-06 
-2.3381368e-04 0.0000000e+00 -9.1085540e-06 
-1.4625833e-04 0.0000000e+00 -9.1449883e-06 
1.8585563e-07 0.0000000e+00 -9.1814227e-06 
0.0000000e+00 0.0000000e+00 0.0000000e+00 
5.3488468e-05 0.0000000e+00 -2.1860529e-07 
1.0473301e-04 0.0000000e+00 -4.3721059e-07 
1.5148970e-04 0.0000000e+00 -6.5581588e-07 
1.9151463e-04 0.0000000e+00 -8.7442118e-07 
2.2256385e-04 0.0000000e+00 -1.0930264e-06 
2.4239345e-04 0.0000000e+00 -1.3116318e-06 
2.4875949e-04 0.0000000e+00 -1.5302370e-06 
2.3941809e-04 0.0000000e+00 -1.7488424e-06 
2.1212528e-04 0.0000000e+00 -1.9674476e-06 
1.6463714e-04 0.0000000e+00 -2.1860528e-06 
9.4709758e-05 0.0000000e+00 -2.4046583e-06 
9.9211071e-08 0.0000000e+00 -2.6232635e-06 
-8.5039603e-05 0.0000000e+00 -2.8054346e-06 
-1.2999661e-04 0.0000000e+00 -2.9876057e-06 
-1.4218298e-04 0.0000000e+00 -3.1697768e-06 
-1.2900987e-04 0.0000000e+00 -3.3519477e-06 
-9.7888471e-05 0.0000000e+00 -3.5341188e-06 
-5.6229925e-05 0.0000000e+00 -3.7162899e-06 
-1.1445412e-05 0.0000000e+00 -3.8984613e-06 
2.9053901e-05 0.0000000e+00 -4.0806322e-06 
5.7856851e-05 0.0000000e+00 -4.2628030e-06 
6.7552261e-05 0.0000000e+00 -4.4449744e-06 
5.0728973e-05 0.0000000e+00 -4.6271452e-06 
-2.4183457e-08 0.0000000e+00 -4.8093166e-06 
-5.3085434e-05 0.0000000e+00 -4.9550531e-06 
-7.5993295e-05 0.0000000e+00 -5.1007901e-06 
-7.4899384e-05 0.0000000e+00 -5.2465271e-06 
-5.5955308e-05 0.0000000e+00 -5.3922640e-06 
-2.5312682e-05 0.0000000e+00 -5.5380006e-06 
1.0876883e-05 0.0000000e+00 -5.6837375e-06 
4.6461773e-05 0.0000000e+00 -5.8294745e-06 
7.5290372e-05 0.0000000e+00 -5.9752115e-06 
9.1211077e-05 0.0000000e+00 -6.1209480e-06 
8.8072265e-05 0.0000000e+00 -6.2666850e-06 
5.9722337e-05 0.0000000e+00 -6.4124220e-06 
9.6649799e-09 0.0000000e+00 -6.5581589e-06 
-5.8780570e-05 0.0000000e+00 -6.6674615e-06 
-8.4698790e-05 0.0000000e+00 -6.7767642e-06 
-8.4399988e-05 0.0000000e+00 -6.8860668e-06 
-6.4539163e-05 0.0000000e+00 -6.9953694e-06 
-3.1771317e-05 0.0000000e+00 -7.1046720e-06 
7.2485655e-06 0.0000000e+00 -7.2139746e-06 
4.5865479e-05 0.0000000e+00 -7.3232773e-06 
7.7424425e-05 0.0000000e+00 -7.4325799e-06 
9.5270421e-05 0.0000000e+00 -7.5418825e-06 
9.2748451e-05 0.0000000e+00 -7.6511851e-06 
6.3203530e-05 0.0000000e+00 -7.7604882e-06 
-1.9340371e-08 0.0000000e+00 -7.8697904e-06 
-6.5088076e-05 0.0000000e+00 -7.9426591e-06 
-9.9499048e-05 0.0000000e+00 -8.0155278e-06 
-1.0889994e-04 0.0000000e+00 -8.0883956e-06 
-9.8938443e-05 0.0000000e+00 -8.1612643e-06 
-7.5262236e-05 0.0000000e+00 -8.2341330e-06 
-4.3519009e-05 0.0000000e+00 -8.3070008e-06 
-9.3564440e-06 0.0000000e+00 -8.3798695e-06 
2.1577769e-05 0.0000000e+00 -8.4527383e-06 
4.3635948e-05 0.0000000e+00 -8.5256061e-06 
5.1170406e-05 0.0000000e+00 -8.5984748e-06 
3.8533461e-05 0.0000000e+00 -8.6713435e-06 
7.7420061e-08 0.0000000e+00 -8.7442113e-06 
-3.0988580e-05 0.0000000e+00 -8.7806457e-06 
-2.4143605e-05 0.0000000e+00 -8.8170800e-06 
1.0932366e-05 0.0000000e+00 -8.8535144e-06 
6.4559354e-05 0.0000000e+00 -8.8899487e-06 
1.2705737e-04 0.0000000e+00 -8.9263831e-06 
1.8874645e-04 0.0000000e+00 -8.9628174e-06 
2.3994659e-04 0.0000000e+00 -8.9992509e-06 
2.7097785e-04 0.0000000e+00 -9.0356853e-06 
2.7216019e-04 0.0000000e+00 -9.0721196e-06 
2.3381368e-04 0.0000000e+00 -9.1085540e-06 
1.4625833e-04 0.0000000e+00 -9.1449883e-06 
-1.8585561e-07 0.0000000e+00 -9.1814227e-06 
-8.2675889e-08 0.0000000e+00 -3.4137283e-04 
-6.6140714e-08 0.0000000e+00 -8.2872895e-04 
-4.9605532e-08 0.0000000e+00 -1.3385732e-03 
-3.3070354e-08 0.0000000e+00 -1.7728135e-03 
-1.6535177e-08 0.0000000e+00 -2.0613840e-03 
1.4279509e-15 0.0000000e+00 -2.1622451e-03 
1.6535180e-08 0.0000000e+00 -2.0613840e-03 
3.3070357e-08 0.0000000e+00 -1.7728135e-03 
4.9605536e-08 0.0000000e+00 -1.3385732e-03 
6.6140714e-08 0.0000000e+00 -8.2872895e-04 
8.2675889e-08 0.0000000e+00 -3.4137283e-04 
2.0152886e-08 0.0000000e+00 -2.7478757e-04 
1.6122309e-08 0.0000000e+00 -7.0587627e-04 
1.2091732e-08 0.0000000e+00 -1.1719570e-03 
8.0611553e-09 0.0000000e+00 -1.5749375e-03 
4.0305790e-09 0.0000000e+00 -1.8447522e-03 
2.2544013e-15 0.0000000e+00 -1.9393614e-03 
-4.0305741e-09 0.0000000e+00 -1.8447522e-03 
-8.0611509e-09 0.0000000e+00 -1.5749375e-03 
-1.2091728e-08 0.0000000e+00 -1.1719570e-03 
-1.6122303e-08 0.0000000e+00 -7.0587627e-04 
-2.0152880e-08 0.0000000e+00 -2.7478757e-04 
-8.0541449e-09 0.0000000e+00 -2.8983926e-04 
-6.4433152e-09 0.0000000e+00 -7.3181209e-04 
-4.8324855e-09 0.0000000e+00 -1.2063582e-03 
-3.2216561e-09 0.0000000e+00 -1.6153855e-03 
-1.6108266e-09 0.0000000e+00 -1.8888282e-03 
2.8520487e-15 0.0000000e+00 -1.9846468e-03 
1.6108324e-09 0.0000000e+00 -1.8888282e-03 
3.2216618e-09 0.0000000e+00 -1.6153855e-03 
4.8324913e-09 0.0000000e+00 -1.2063582e-03 
6.4433210e-09 0.0000000e+00 -7.3181209e-04 
8.0541502e-09 0.0000000e+00 -2.8983926e-04 
1.6116983e-08 0.0000000e+00 -3.0001614e-04 
1.2893587e-08 0.0000000e+00 -7.4924238e-04 
9.6701909e-09 0.0000000e+00 -1.2294301e-03 
6.4467951e-09 0.0000000e+00 -1.6424870e-03 
3.2233993e-09 0.0000000e+00 -1.9183476e-03 
3.4143553e-15 0.0000000e+00 -2.0149720e-03 
-3.2233924e-09 0.0000000e+00 -1.9183476e-03 
-6.4467884e-09 0.0000000e+00 -1.6424870e-03 
-9.6701838e-09 0.0000000e+00 -1.2294301e-03 
-1.2893580e-08 0.0000000e+00 -7.4924238e-04 
-1.6116976e-08 0.0000000e+00 -3.0001614e-04 
-6.4516712e-08 0.0000000e+00 -2.4766519e-04 
-5.1613366e-08 0.0000000e+00 -6.5334339e-04 
-3.8710024e-08 0.0000000e+00 -1.0996603e-03 
-2.5806681e-08 0.0000000e+00 -1.4885240e-03 
-1.2903339e-08 0.0000000e+00 -1.7498685e-03 
3.9864001e-15 0.0000000e+00 -1.8416543e-03 
1.2903347e-08 0.0000000e+00 -1.7498685e-03 
2.5806690e-08 0.0000000e+00 -1.4885240e-03 
3.8710031e-08 0.0000000e+00 -1.0996603e-03 
5.1613373e-08 0.0000000e+00 -6.5334339e-04 
6.4516719e-08 0.0000000e+00 -2.4766519e-04 
1.5487969e-07 0.0000000e+00 -4.7885874e-04 
1.2390375e-07 0.0000000e+00 -1.0733376e-03 
9.2927813e-08 0.0000000e+00 -1.6664995e-03 
6.1951880e-08 0.0000000e+00 -2.1602525e-03 
3.0975940e-08 0.0000000e+00 -2.4845304e-03 
4.2385529e-15 0.0000000e+00 -2.5972943e-03 
-3.0975933e-08 0.0000000e+00 -2.4845304e-03 
-6.1951866e-08 0.0000000e+00 -2.1602525e-03 
-9.2927806e-08 0.0000000e+00 -1.6664995e-03 
-1.2390375e-07 0.0000000e+00 -1.0733376e-03 
-1.5487967e-07 0.0000000e+00 -4.7885874e-04 
ROTATION 3 212  float
0.0000000e+00 -2.1544982e-04 0.0000000e+00 
0.0000000e+00 -2.1096197e-04 0.0000000e+00 
0.0000000e+00 -1.9749842e-04 0.0000000e+00 
0.0000000e+00 -1.7505918e-04 0.0000000e+00 
0.0000000e+00 -1.4364424e-04 0.0000000e+00 
0.0000000e+00 -1.0325359e-04 0.0000000e+00 
0.0000000e+00 -5.3887259e-05 0.0000000e+00 
0.0000000e+00 4.4547787e-06 0.0000000e+00 
0.0000000e+00 7.1772512e-05 0.0000000e+00 
0.0000000e+00 1.4806594e-04 0.0000000e+00 
0.0000000e+00 2.3333507e-04 0.0000000e+00 
0.0000000e+00 3.2757991e-04 0.0000000e+00 
0.0000000e+00 4.3080043e-04 0.0000000e+00 
0.0000000e+00 2.5525087e-04 0.0000000e+00 
0.0000000e+00 1.0934597e-04 0.0000000e+00 
0.0000000e+00 -6.9142484e-06 0.0000000e+00 
0.0000000e+00 -9.3529801e-05 0.0000000e+00 
0.0000000e+00 -1.5050068e-04 0.0000000e+00 
0.0000000e+00 -1.7782689e-04 0.0000000e+00 
0.0000000e+00 -1.7550844e-04 0.0000000e+00 
0.0000000e+00 -1.4354530e-04 0.0000000e+00 
0.0000000e+00 -8.1937498e-05 0.0000000e+00 
0.0000000e+00 9.3149711e-06 0.0000000e+00 
0.0000000e+00 1.3021211e-04 0.0000000e+00 
0.0000000e+00 2.8075391e-04 0.0000000e+00 
0.0000000e+00 1.4783716e-04 0.0000000e+00 
0.0000000e+00 3.9526825e-05 0.0000000e+00 
0.0000000e+00 -4.4177053e-05 0.0000000e+00 
0.0000000e+00 -1.0327448e-04 0.0000000e+00 
0.0000000e+00 -1.3776546e-04 0.0000000e+00 
0.0000000e+00 -1.4764999e-04 0.0000000e+00 
0.0000000e+00 -1.3292806e-04 0.0000000e+00 
0.0000000e+00 -9.3599687e-05 0.0000000e+00 
0.0000000e+00 -2.9664863e-05 0.0000000e+00 
0.0000000e+00 5.8876409e-05 0.0000000e+00 
0.0000000e+00 1.7202413e-04 0.0000000e+00 
0.0000000e+00 3.0977832e-04 0.0000000e+00 
0.0000000e+00 1.6498024e-04 0.0000000e+00 
0.0000000e+00 4.6802172e-05 0.0000000e+00 
0.0000000e+00 -4.4755914e-05 0.0000000e+00 
0.0000000e+00 -1.0969401e-04 0.0000000e+00 
0.0000000e+00 -1.4801213e-04 0.0000000e+00 
0.0000000e+00 -1.5971025e-04 0.0000000e+00 
0.0000000e+00 -1.4478838e-04 0.0000000e+00 
0.0000000e+00 -1.0324654e-04 0.0000000e+00 
0.0000000e+00 -3.5084711e-05 0.0000000e+00 
0.0000000e+00 5.9697111e-05 0.0000000e+00 
0.0000000e+00 1.8109892e-04 0.0000000e+00 
0.0000000e+00 3.2912072e-04 0.0000000e+00 
0.0000000e+00 1.9519428e-04 0.0000000e+00 
0.0000000e+00 8.3858606e-05 0.0000000e+00 
0.0000000e+00 -4.8863349e-06 0.0000000e+00 
0.0000000e+00 -7.1040537e-05 0.0000000e+00 
0.0000000e+00 -1.1460399e-04 0.0000000e+00 
0.0000000e+00 -1.3557670e-04 0.0000000e+00 
0.0000000e+00 -1.3395867e-04 0.0000000e+00 
0.0000000e+00 -1.0974991e-04 0.0000000e+00 
0.0000000e+00 -6.2950399e-05 0.0000000e+00 
0.0000000e+00 6.4398550e-06 0.0000000e+00 
0.0000000e+00 9.8420853e-05 0.0000000e+00 
0.0000000e+00 2.1299259e-04 0.0000000e+00 
0.0000000e+00 4.1988729e-05 0.0000000e+00 
0.0000000e+00 -9.0295209e-05 0.0000000e+00 
0.0000000e+00 -1.8385923e-04 0.0000000e+00 
0.0000000e+00 -2.3870333e-04 0.0000000e+00 
0.0000000e+00 -2.5482749e-04 0.0000000e+00 
0.0000000e+00 -2.3223176e-04 0.0000000e+00 
0.0000000e+00 -1.7091610e-04 0.0000000e+00 
0.0000000e+00 -7.0880516e-05 0.0000000e+00 
0.0000000e+00 6.7874986e-05 0.0000000e+00 
0.0000000e+00 2.4535041e-04 0.0000000e+00 
0.0000000e+00 4.6154574e-04 0.0000000e+00 
0.0000000e+00 7.1646104e-04 0.0000000e+00 
0.0000000e+00 2.1544982e-04 0.0000000e+00 
0.0000000e+00 2.1096197e-04 0.0000000e+00 
0.0000000e+00 1.9749842e-04 0.0000000e+00 
0.0000000e+00 1.7505918e-04 0.0000000e+00 
0.0000000e+00 1.4364424e-04 0.0000000e+00 
0.0000000e+00 1.0325359e-04 0.0000000e+00 
0.0000000e+00 5.3887259e-05 0.0000000e+00 
0.0000000e+00 -4.4547787e-06 0.0000000e+00 
0.0000000e+00 -7.1772512e-05 0.0000000e+00 
0.0000000e+00 -1.4806594e-04 0.0000000e+00 
0.0000000e+00 -2.3333507e-04 0.0000000e+00 
0.0000000e+00 -3.2757991e-04 0.0000000e+00 
0.0000000e+00 -4.3080043e-04 0.0000000e+00 
0.0000000e+00 -2.5525087e-04 0.0000000e+00 
0.0000000e+00 -1.0934597e-04 0.0000000e+00 
0.0000000e+00 6.9142484e-06 0.0000000e+00 
0.0000000e+00 9.3529801e-05 0.0000000e+00 
0.0000000e+00 1.5050068e-04 0.0000000e+00 
0.0000000e+00 1.7782689e-04 0.0000000e+00 
0.0000000e+00 1.7550844e-04 0.0000000e+00 
0.0000000e+00 1.4354530e-04 0.0000000e+00 
0.0000000e+00 8.1937498e-05 0.0000000e+00 
0.0000000e+00 -9.3149711e-06 0.0000000e+00 
0.0000000e+00 -1.3021211e-04 0.0000000e+00 
0.0000000e+00 -2.8075391e-04 0.0000000e+00 
0.0000000e+00 -1.4783716e-04 0.0000000e+00 
0.0000000e+00 -3.9526825e-05 0.0000000e+00 
0.0000000e+00 4.4177053e-05 0.0000000e+00 
0.0000000e+00 1.0327448e-04 0.0000000e+00 
0.0000000e+00 1.3776546e-04 0.0000000e+00 
0.0000000e+00 1.4764999e-04 0.0000000e+00 
0.0000000e+00 1.3292806e-04 0.0000000e+00 
0.0000000e+00 9.3599687e-05 0.0000000e+00 
0.0000000e+00 2.9664863e-05 0.0000000e+00 
0.0000000e+00 -5.8876409e-05 0.0000000e+00 
0.0000000e+00 -1.7202413e-04 0.0000000e+00 
0.0000000e+00 -3.0977832e-04 0.0000000e+00 
0.0000000e+00 -1.6498024e-04 0.0000000e+00 
0.0000000e+00 -4.6802172e-05 0.0000000e+00 
0.0000000e+00 4.4755914e-05 0.0000000e+00 
0.0000000e+00 1.0969401e-04 0.0000000e+00 
0.0000000e+00 1.4801213e-04 0.0000000e+00 
0.0000000e+00 1.5971025e-04 0.0000000e+00 
0.0000000e+00 1.4478838e-04 0.0000000e+00 
0.0000000e+00 1.0324654e-04 0.0000000e+00 
0.0000000e+00 3.5084711e-05 0.0000000e+00 
0.0000000e+00 -5.9697111e-05 0.0000000e+00 
0.0000000e+00 -1.8109892e-04 0.0000000e+00 
0.0000000e+00 -3.2912072e-04 0.0000000e+00 
0.0000000e+00 -1.9519428e-04 0.0000000e+00 
0.0000000e+00 -8.3858606e-05 0.0000000e+00 
0.0000000e+00 4.8863349e-06 0.0000000e+00 
0.0000000e+00 7.1040537e-05 0.0000000e+00 
0.0000000e+00 1.1460399e-04 0.0000000e+00 
0.0000000e+00 1.3557670e-04 0.0000000e+00 
0.0000000e+00 1.3395867e-04 0.0000000e+00 
0.0000000e+00 1.0974991e-04 0.0000000e+00 
0.0000000e+00 6.2950399e-05 0.0000000e+00 
0.0000000e+00 -6.4398550e-06 0.0000000e+00 
0.0000000e+00 -9.8420853e-05 0.0000000e+00 
0.0000000e+00 -2.1299259e-04 0.0000000e+00 
0.0000000e+00 -4.1988729e-05 0.0000000e+00 
0.0000000e+00 9.0295209e-05 0.0000000e+00 
0.0000000e+00 1.8385923e-04 0.0000000e+00 
0.0000000e+00 2.3870333e-04 0.0000000e+00 
0.0000000e+00 2.5482749e-04 0.0000000e+00 
0.0000000e+00 2.3223176e-04 0.0000000e+00 
0.0000000e+00 1.7091610e-04 0.0000000e+00 
0.0000000e+00 7.0880516e-05 0.0000000e+00 
0.0000000e+00 -6.7874986e-05 0.0000000e+00 
0.0000000e+00 -2.4535041e-04 0.0000000e+00 
0.0000000e+00 -4.6154574e-04 0.0000000e+00 
0.0000000e+00 -7.1646104e-04 0.0000000e+00 
0.0000000e+00 8.7281619e-04 0.0000000e+00 
0.0000000e+00 1.0345688e-03 0.0000000e+00 
0.0000000e+00 9.7211084e-04 0.0000000e+00 
0.0000000e+00 7.4149494e-04 0.0000000e+00 
0.0000000e+00 3.9877379e-04 0.0000000e+00 
0.0000000e+00 -1.2732926e-16 0.0000000e+00 
0.0000000e+00 -3.9877379e-04 0.0000000e+00 
0.0000000e+00 -7.4149494e-04 0.0000000e+00 
0.0000000e+00 -9.7211084e-04 0.0000000e+00 
0.0000000e+00 -1.0345688e-03 0.0000000e+00 
0.0000000e+00 -8.7281619e-04 0.0000000e+00 
0.0000000e+00 7.4777746e-04 0.0000000e+00 
0.0000000e+00 9.3453779e-04 0.0000000e+00 
0.0000000e+00 8.9708762e-04 0.0000000e+00 
0.0000000e+00 6.9147948e-04 0.0000000e+00 
0.0000000e+00 3.7376606e-04 0.0000000e+00 
0.0000000e+00 -9.5496943e-17 0.0000000e+00 
0.0000000e+00 -3.7376606e-04 0.0000000e+00 
0.0000000e+00 -6.9147948e-04 0.0000000e+00 
0.0000000e+00 -8.9708762e-04 0.0000000e+00 
0.0000000e+00 -9.3453779e-04 0.0000000e+00 
0.0000000e+00 -7.4777746e-04 0.0000000e+00 
0.0000000e+00 7.7196443e-04 0.0000000e+00 
0.0000000e+00 9.5388741e-04 0.0000000e+00 
0.0000000e+00 9.1159978e-04 0.0000000e+00 
0.0000000e+00 7.0115423e-04 0.0000000e+00 
0.0000000e+00 3.7860344e-04 0.0000000e+00 
0.0000000e+00 -8.7917824e-17 0.0000000e+00 
0.0000000e+00 -3.7860344e-04 0.0000000e+00 
0.0000000e+00 -7.0115423e-04 0.0000000e+00 
0.0000000e+00 -9.1159978e-04 0.0000000e+00 
0.0000000e+00 -9.5388741e-04 0.0000000e+00 
0.0000000e+00 -7.7196443e-04 0.0000000e+00 
0.0000000e+00 7.8808313e-04 0.0000000e+00 
0.0000000e+00 9.6678233e-04 0.0000000e+00 
0.0000000e+00 9.2127098e-04 0.0000000e+00 
0.0000000e+00 7.0760172e-04 0.0000000e+00 
0.0000000e+00 3.8182718e-04 0.0000000e+00 
0.0000000e+00 -6.3664631e-17 0.0000000e+00 
0.0000000e+00 -3.8182718e-04 0.0000000e+00 
0.0000000e+00 -7.0760172e-04 0.0000000e+00 
0.0000000e+00 -9.2127098e-04 0.0000000e+00 
0.0000000e+00 -9.6678233e-04 0.0000000e+00 
0.0000000e+00 -7.8808313e-04 0.0000000e+00 
0.0000000e+00 6.9130969e-04 0.0000000e+00 
0.0000000e+00 8.8936358e-04 0.0000000e+00 
0.0000000e+00 8.6320692e-04 0.0000000e+00 
0.0000000e+00 6.6889235e-04 0.0000000e+00 
0.0000000e+00 3.6247249e-04 0.0000000e+00 
0.0000000e+00 -7.8822874e-17 0.0000000e+00 
0.0000000e+00 -3.6247249e-04 0.0000000e+00 
0.0000000e+00 -6.6889235e-04 0.0000000e+00 
0.0000000e+00 -8.6320692e-04 0.0000000e+00 
0.0000000e+00 -8.8936358e-04 0.0000000e+00 
0.0000000e+00 -6.9130969e-04 0.0000000e+00 
0.0000000e+00 1.1108667e-03 0.0000000e+00 
0.0000000e+00 1.2250092e-03 0.0000000e+00 
0.0000000e+00 1.1149411e-03 0.0000000e+00 