# vtk DataFile Version 4.0
vtk output
ASCII
DATASET UNSTRUCTURED_GRID
POINTS 212 float
0.0000000e+00 0.0000000e+00 0.0000000e+00 
0.0000000e+00 0.0000000e+00 2.5000000e-01 
0.0000000e+00 0.0000000e+00 5.0000000e-01 
0.0000000e+00 0.0000000e+00 7.5000000e-01 
0.0000000e+00 0.0000000e+00 1.0000000e+00 
0.0000000e+00 0.0000000e+00 1.2500000e+00 
0.0000000e+00 0.0000000e+00 1.5000000e+00 
0.0000000e+00 0.0000000e+00 1.7500000e+00 
0.0000000e+00 0.0000000e+00 2.0000000e+00 
0.0000000e+00 0.0000000e+00 2.2500000e+00 
0.0000000e+00 0.0000000e+00 2.5000000e+00 
0.0000000e+00 0.0000000e+00 2.7500000e+00 
0.0000000e+00 0.0000000e+00 3.0000000e+00 
0.0000000e+00 0.0000000e+00 3.2500000e+00 
0.0000000e+00 0.0000000e+00 3.5000000e+00 
0.0000000e+00 0.0000000e+00 3.7500000e+00 
0.0000000e+00 0.0000000e+00 4.0000000e+00 
0.0000000e+00 0.0000000e+00 4.2500000e+00 
0.0000000e+00 0.0000000e+00 4.5000000e+00 
0.0000000e+00 0.0000000e+00 4.7500000e+00 
0.0000000e+00 0.0000000e+00 5.0000000e+00 
0.0000000e+00 0.0000000e+00 5.2500000e+00 
0.0000000e+00 0.0000000e+00 5.5000000e+00 
0.0000000e+00 0.0000000e+00 5.7500000e+00 
0.0000000e+00 0.0000000e+00 6.0000000e+00 
0.0000000e+00 0.0000000e+00 6.2500000e+00 
0.0000000e+00 0.0000000e+00 6.5000000e+00 
0.0000000e+00 0.0000000e+00 6.7500000e+00 
0.0000000e+00 0.0000000e+00 7.0000000e+00 
0.0000000e+00 0.0000000e+00 7.2500000e+00 
0.0000000e+00 0.0000000e+00 7.5000000e+00 
0.0000000e+00 0.0000000e+00 7.7500000e+00 
0.0000000e+00 0.0000000e+00 8.0000000e+00 
0.0000000e+00 0.0000000e+00 8.2500000e+00 
0.0000000e+00 0.0000000e+00 8.5000000e+00 
0.0000000e+00 0.0000000e+00 8.7500000e+00 
0.0000000e+00 0.0000000e+00 9.0000000e+00 
0.0000000e+00 0.0000000e+00 9.2500000e+00 
0.0000000e+00 0.0000000e+00 9.5000000e+00 
0.0000000e+00 0.0000000e+00 9.7500000e+00 
0.0000000e+00 0.0000000e+00 1.0000000e+01 
0.0000000e+00 0.0000000e+00 1.0250000e+01 
0.0000000e+00 0.0000000e+00 1.0500000e+01 
0.0000000e+00 0.0000000e+00 1.0750000e+01 
0.0000000e+00 0.0000000e+00 1.1000000e+01 
0.0000000e+00 0.0000000e+00 1.1250000e+01 
0.0000000e+00 0.0000000e+00 1.1500000e+01 
0.0000000e+00 0.0000000e+00 1.1750000e+01 
0.0000000e+00 0.0000000e+00 1.2000000e+01 
0.0000000e+00 0.0000000e+00 1.2250000e+01 
0.0000000e+00 0.0000000e+00 1.2500000e+01 
0.0000000e+00 0.0000000e+00 1.2750000e+01 
0.0000000e+00 0.0000000e+00 1.3000000e+01 
0.0000000e+00 0.0000000e+00 1.3250000e+01 
0.0000000e+00 0.0000000e+00 1.3500000e+01 
0.0000000e+00 0.0000000e+00 1.3750000e+01 
0.0000000e+00 0.0000000e+00 1.4000000e+01 
0.0000000e+00 0.0000000e+00 1.4250000e+01 
0.0000000e+00 0.0000000e+00 1.4500000e+01 
0.0000000e+00 0.0000000e+00 1.4750000e+01 
0.0000000e+00 0.0000000e+00 1.5000000e+01 
0.0000000e+00 0.0000000e+00 1.5250000e+01 
0.0000000e+00 0.0000000e+00 1.5500000e+01 
0.0000000e+00 0.0000000e+00 1.5750000e+01 
0.0000000e+00 0.0000000e+00 1.6000000e+01 
0.0000000e+00 0.0000000e+00 1.6250000e+01 
0.0000000e+00 0.0000000e+00 1.6500000e+01 
0.0000000e+00 0.0000000e+00 1.6750000e+01 
0.0000000e+00 0.0000000e+00 1.7000000e+01 
0.0000000e+00 0.0000000e+00 1.7250000e+01 
0.0000000e+00 0.0000000e+00 1.7500000e+01 
0.0000000e+00 0.0000000e+00 1.7750000e+01 
0.0000000e+00 0.0000000e+00 1.8000000e+01 
5.0000000e-01 0.0000000e+00 3.0000000e+00 
5.0000000e-01 0.0000000e+00 6.0000000e+00 
5.0000000e-01 0.0000000e+00 9.0000000e+00 
5.0000000e-01 0.0000000e+00 1.2000000e+01 
5.0000000e-01 0.0000000e+00 1.5000000e+01 
5.0000000e-01 0.0000000e+00 1.8000000e+01 
1.0000000e+00 0.0000000e+00 3.0000000e+00 
1.0000000e+00 0.0000000e+00 6.0000000e+00 
1.0000000e+00 0.0000000e+00 9.0000000e+00 
1.0000000e+00 0.0000000e+00 1.2000000e+01 
1.0000000e+00 0.0000000e+00 1.5000000e+01 
1.0000000e+00 0.0000000e+00 1.8000000e+01 
1.5000000e+00 0.0000000e+00 3.0000000e+00 
1.5000000e+00 0.0000000e+00 6.0000000e+00 
1.5000000e+00 0.0000000e+00 9.0000000e+00 
1.5000000e+00 0.0000000e+00 1.2000000e+01 
1.5000000e+00 0.0000000e+00 1.5000000e+01 
1.5000000e+00 0.0000000e+00 1.8000000e+01 
2.0000000e+00 0.0000000e+00 3.0000000e+00 
2.0000000e+00 0.0000000e+00 6.0000000e+00 
2.0000000e+00 0.0000000e+00 9.0000000e+00 
2.0000000e+00 0.0000000e+00 1.2000000e+01 
2.0000000e+00 0.0000000e+00 1.5000000e+01 
2.0000000e+00 0.0000000e+00 1.8000000e+01 
2.5000000e+00 0.0000000e+00 3.0000000e+00 
2.5000000e+00 0.0000000e+00 6.0000000e+00 
2.5000000e+00 0.0000000e+00 9.0000000e+00 
2.5000000e+00 0.0000000e+00 1.2000000e+01 
2.5000000e+00 0.0000000e+00 1.5000000e+01 
2.5000000e+00 0.0000000e+00 1.8000000e+01 
3.0000000e+00 0.0000000e+00 3.0000000e+00 
3.0000000e+00 0.0000000e+00 6.0000000e+00 
3.0000000e+00 0.0000000e+00 9.0000000e+00 
3.0000000e+00 0.0000000e+00 1.2000000e+01 
3.0000000e+00 0.0000000e+00 1.5000000e+01 
3.0000000e+00 0.0000000e+00 1.8000000e+01 
3.5000000e+00 0.0000000e+00 3.0000000e+00 
3.5000000e+00 0.0000000e+00 6.0000000e+00 
3.5000000e+00 0.0000000e+00 9.0000000e+00 
3.5000000e+00 0.0000000e+00 1.2000000e+01 
3.5000000e+00 0.0000000e+00 1.5000000e+01 
3.5000000e+00 0.0000000e+00 1.8000000e+01 
4.0000000e+00 0.0000000e+00 3.0000000e+00 
4.0000000e+00 0.0000000e+00 6.0000000e+00 
4.0000000e+00 0.0000000e+00 9.0000000e+00 
4.0000000e+00 0.0000000e+00 1.2000000e+01 
4.0000000e+00 0.0000000e+00 1.5000000e+01 
4.0000000e+00 0.0000000e+00 1.8000000e+01 
4.5000000e+00 0.0000000e+00 3.0000000e+00 
4.5000000e+00 0.0000000e+00 6.0000000e+00 
4.5000000e+00 0.0000000e+00 9.0000000e+00 
4.5000000e+00 0.0000000e+00 1.2000000e+01 
4.5000000e+00 0.0000000e+00 1.5000000e+01 
4.5000000e+00 0.0000000e+00 1.8000000e+01 
5.0000000e+00 0.0000000e+00 3.0000000e+00 
5.0000000e+00 0.0000000e+00 6.0000000e+00 
5.0000000e+00 0.0000000e+00 9.0000000e+00 
5.0000000e+00 0.0000000e+00 1.2000000e+01 
5.0000000e+00 0.0000000e+00 1.5000000e+01 
5.0000000e+00 0.0000000e+00 1.8000000e+01 
5.5000000e+00 0.0000000e+00 3.0000000e+00 
5.5000000e+00 0.0000000e+00 6.0000000e+00 
5.5000000e+00 0.0000000e+00 9.0000000e+00 
5.5000000e+00 0.0000000e+00 1.2000000e+01 
5.5000000e+00 0.0000000e+00 1.5000000e+01 
5.5000000e+00 0.0000000e+00 1.8000000e+01 
6.0000000e+00 0.0000000e+00 0.0000000e+00 
6.0000000e+00 0.0000000e+00 2.5000000e-01 
6.0000000e+00 0.0000000e+00 5.0000000e-01 
6.0000000e+00 0.0000000e+00 7.5000000e-01 
6.0000000e+00 0.0000000e+00 1.0000000e+00 
6.0000000e+00 0.0000000e+00 1.2500000e+00 
6.0000000e+00 0.0000000e+00 1.5000000e+00 
6.0000000e+00 0.0000000e+00 1.7500000e+00 
6.0000000e+00 0.0000000e+00 2.0000000e+00 
6.0000000e+00 0.0000000e+00 2.2500000e+00 
6.0000000e+00 0.0000000e+00 2.5000000e+00 
6.0000000e+00 0.0000000e+00 2.7500000e+00 
6.0000000e+00 0.0000000e+00 3.0000000e+00 
6.0000000e+00 0.0000000e+00 3.2500000e+00 
6.0000000e+00 0.0000000e+00 3.5000000e+00 
6.0000000e+00 0.0000000e+00 3.7500000e+00 
6.0000000e+00 0.0000000e+00 4.0000000e+00 
6.0000000e+00 0.0000000e+00 4.2500000e+00 
6.0000000e+00 0.0000000e+00 4.5000000e+00 
6.0000000e+00 0.0000000e+00 4.7500000e+00 
6.0000000e+00 0.0000000e+00 5.0000000e+00 
6.0000000e+00 0.0000000e+00 5.2500000e+00 
6.0000000e+00 0.0000000e+00 5.5000000e+00 
6.0000000e+00 0.0000000e+00 5.7500000e+00 
6.0000000e+00 0.0000000e+00 6.0000000e+00 
6.0000000e+00 0.0000000e+00 6.2500000e+00 
6.0000000e+00 0.0000000e+00 6.5000000e+00 
6.0000000e+00 0.0000000e+00 6.7500000e+00 
6.0000000e+00 0.0000000e+00 7.0000000e+00 
6.0000000e+00 0.0000000e+00 7.2500000e+00 
6.0000000e+00 0.0000000e+00 7.5000000e+00 
6.0000000e+00 0.0000000e+00 7.7500000e+00 
6.0000000e+00 0.0000000e+00 8.0000000e+00 
6.0000000e+00 0.0000000e+00 8.2500000e+00 
6.0000000e+00 0.0000000e+00 8.5000000e+00 
6.0000000e+00 0.0000000e+00 8.7500000e+00 
6.0000000e+00 0.0000000e+00 9.0000000e+00 
6.0000000e+00 0.0000000e+00 9.2500000e+00 
6.0000000e+00 0.0000000e+00 9.5000000e+00 
6.0000000e+00 0.0000000e+00 9.7500000e+00 
6.0000000e+00 0.0000000e+00 1.0000000e+01 
6.0000000e+00 0.0000000e+00 1.0250000e+01 
6.0000000e+00 0.0000000e+00 1.0500000e+01 
6.0000000e+00 0.0000000e+00 1.0750000e+01 
6.0000000e+00 0.0000000e+00 1.1000000e+01 
6.0000000e+00 0.0000000e+00 1.1250000e+01 
6.0000000e+00 0.0000000e+00 1.1500000e+01 
6.0000000e+00 0.0000000e+00 1.1750000e+01 
6.0000000e+00 0.0000000e+00 1.2000000e+01 
6.0000000e+00 0.0000000e+00 1.2250000e+01 
6.0000000e+00 0.0000000e+00 1.2500000e+01 
6.0000000e+00 0.0000000e+00 1.2750000e+01 
6.0000000e+00 0.0000000e+00 1.3000000e+01 
6.0000000e+00 0.0000000e+00 1.3250000e+01 
6.0000000e+00 0.0000000e+00 1.3500000e+01 
6.0000000e+00 0.0000000e+00 1.3750000e+01 
6.0000000e+00 0.0000000e+00 1.4000000e+01 
6.0000000e+00 0.0000000e+00 1.4250000e+01 
6.0000000e+00 0.0000000e+00 1.4500000e+01 
6.0000000e+00 0.0000000e+00 1.4750000e+01 
6.0000000e+00 0.0000000e+00 1.5000000e+01 
6.0000000e+00 0.0000000e+00 1.5250000e+01 
6.0000000e+00 0.0000000e+00 1.5500000e+01 
6.0000000e+00 0.0000000e+00 1.5750000e+01 
6.0000000e+00 0.0000000e+00 1.6000000e+01 
6.0000000e+00 0.0000000e+00 1.6250000e+01 
6.0000000e+00 0.0000000e+00 1.6500000e+01 
6.0000000e+00 0.0000000e+00 1.6750000e+01 
6.0000000e+00 0.0000000e+00 1.7000000e+01 
6.0000000e+00 0.0000000e+00 1.7250000e+01 
6.0000000e+00 0.0000000e+00 1.7500000e+01 
6.0000000e+00 0.0000000e+00 1.7750000e+01 
6.0000000e+00 0.0000000e+00 1.8000000e+01 

CELLS 216 648
2 0 1
2 1 2
2 2 3
2 3 4
2 4 5
2 5 6
2 6 7
2 7 8
2 8 9
2 9 10
2 10 11
2 11 12
2 12 13
2 13 14
2 14 15
2 15 16
2 16 17
2 17 18
2 18 19
2 19 20
2 20 21
2 21 22
2 22 23
2 23 24
2 24 25
2 25 26
2 26 27
2 27 28
2 28 29
2 29 30
2 30 31
2 31 32
2 32 33
2 33 34
2 34 35
2 35 36
2 36 37
2 37 38
2 38 39
2 39 40
2 40 41
2 41 42
2 42 43
2 43 44
2 44 45
2 45 46
2 46 47
2 47 48
2 48 49
2 49 50
2 50 51
2 51 52
2 52 53
2 53 54
2 54 55
2 55 56
2 56 57
2 57 58
2 58 59
2 59 60
2 60 61
2 61 62
2 62 63
2 63 64
2 64 65
2 65 66
2 66 67
2 67 68
2 68 69
2 69 70
2 70 71
2 71 72
2 139 140
2 140 141
2 141 142
2 142 143
2 143 144
2 144 145
2 145 146
2 146 147
2 147 148
2 148 149
2 149 150
2 150 151
2 151 152
2 152 153
2 153 154
2 154 155
2 155 156
2 156 157
2 157 158
2 158 159
2 159 160
2 160 161
2 161 162
2 162 163
2 163 164
2 164 165
2 165 166
2 166 167
2 167 168
2 168 169
2 169 170
2 170 171
2 171 172
2 172 173
2 173 174
2 174 175
2 175 176
2 176 177
2 177 178
2 178 179
2 179 180
2 180 181
2 181 182
2 182 183
2 183 184
2 184 185
2 185 186
2 186 187
2 187 188
2 188 189
2 189 190
2 190 191
2 191 192
2 192 193
2 193 194
2 194 195
2 195 196
2 196 197
2 197 198
2 198 199
2 199 200
2 200 201
2 201 202
2 202 203
2 203 204
2 204 205
2 205 206
2 206 207
2 207 208
2 208 209
2 209 210
2 210 211
2 12 73
2 73 79
2 79 85
2 85 91
2 91 97
2 97 103
2 103 109
2 109 115
2 115 121
2 121 127
2 127 133
2 133 151
2 24 74
2 74 80
2 80 86
2 86 92
2 92 98
2 98 104
2 104 110
2 110 116
2 116 122
2 122 128
2 128 134
2 134 163
2 36 75
2 75 81
2 81 87
2 87 93
2 93 99
2 99 105
2 105 111
2 111 117
2 117 123
2 123 129
2 129 135
2 135 175
2 48 76
2 76 82
2 82 88
2 88 94
2 94 100
2 100 106
2 106 112
2 112 118
2 118 124
2 124 130
2 130 136
2 136 187
2 60 77
2 77 83
2 83 89
2 89 95
2 95 101
2 101 107
2 107 113
2 113 119
2 119 125
2 125 131
2 131 137
2 137 199
2 72 78
2 78 84
2 84 90
2 90 96
2 96 102
2 102 108
2 108 114
2 114 120
2 120 126
2 126 132
2 132 138
2 138 211

CELL_TYPES 216
3
3
3
3
3
3
3
3
3
3
3
3
3
3
3
3
3
3
3
3
3
3
3
3
3
3
3
3
3
3
3
3
3
3
3
3
3
3
3
3
3
3
3
3
3
3
3
3
3
3
3
3
3
3
3
3
3
3
3
3
3
3
3
3
3
3
3
3
3
3
3
3
3
3
3
3
3
3
3
3
3
3
3
3
3
3
3
3
3
3
3
3
3
3
3
3
3
3
3
3
3
3
3
3
3
3
3
3
3
3
3
3
3
3
3
3
3
3
3
3
3
3
3
3
3
3
3
3
3
3
3
3
3
3
3
3
3
3
3
3
3
3
3
3
3
3
3
3
3
3
3
3
3
3
3
3
3
3
3
3
3
3
3
3
3
3
3
3
3
3
3
3
3
3
3
3
3
3
3
3
3
3
3
3
3
3
3
3
3
3
3
3
3
3
3
3
3
3
3
3
3
3
3
3
3
3
3
3
3
3
3
3
3
3
3
3
POINT_DATA 212
FIELD FieldData 3
ADJOINT_DISPLACEMENT 3 212  float
0.0000000e+00 0.0000000e+00 0.0000000e+00 
8.4220450e-03 0.0000000e+00 -1.0218952e-15 
1.6924690e-02 0.0000000e+00 -2.0437903e-15 
2.5588533e-02 0.0000000e+00 -3.0656856e-15 
3.4494177e-02 0.0000000e+00 -4.0875807e-15 
4.3722216e-02 0.0000000e+00 -5.1094760e-15 
5.3353257e-02 0.0000000e+00 -6.1313712e-15 
6.3467897e-02 0.0000000e+00 -7.1532661e-15 
7.4146733e-02 0.0000000e+00 -8.1751614e-15 
8.5470363e-02 0.0000000e+00 -9.1970566e-15 
9.7519390e-02 0.0000000e+00 -1.0218952e-14 
1.1037442e-01 0.0000000e+00 -1.1240847e-14 
1.2411604e-01 0.0000000e+00 -1.2262742e-14 
1.4018264e-01 0.0000000e+00 -8.5014408e-06 
1.5963495e-01 0.0000000e+00 -1.7002882e-05 
1.8198703e-01 0.0000000e+00 -2.5504321e-05 
2.0675299e-01 0.0000000e+00 -3.4005763e-05 
2.3344688e-01 0.0000000e+00 -4.2507203e-05 
2.6158282e-01 0.0000000e+00 -5.1008643e-05 
2.9067487e-01 0.0000000e+00 -5.9510086e-05 
3.2023713e-01 0.0000000e+00 -6.8011526e-05 
3.4978369e-01 0.0000000e+00 -7.6512966e-05 
3.7882861e-01 0.0000000e+00 -8.5014406e-05 
4.0688598e-01 0.0000000e+00 -9.3515846e-05 
4.3346989e-01 0.0000000e+00 -1.0201729e-04 
4.6000016e-01 0.0000000e+00 -9.3048067e-05 
4.8789021e-01 0.0000000e+00 -8.4078849e-05 
5.1664454e-01 0.0000000e+00 -7.5109630e-05 
5.4576766e-01 0.0000000e+00 -6.6140412e-05 
5.7476413e-01 0.0000000e+00 -5.7171190e-05 
6.0313845e-01 0.0000000e+00 -4.8201971e-05 
6.3039517e-01 0.0000000e+00 -3.9232753e-05 
6.5603870e-01 0.0000000e+00 -3.0263533e-05 
6.7957366e-01 0.0000000e+00 -2.1294312e-05 
7.0050454e-01 0.0000000e+00 -1.2325093e-05 
7.1833587e-01 0.0000000e+00 -3.3558729e-06 
7.3257214e-01 0.0000000e+00 5.6133467e-06 
7.4404901e-01 0.0000000e+00 7.4848476e-06 
7.5400907e-01 0.0000000e+00 9.3563485e-06 
7.6256698e-01 0.0000000e+00 1.1227849e-05 
7.6983762e-01 0.0000000e+00 1.3099350e-05 
7.7593577e-01 0.0000000e+00 1.4970851e-05 
7.8097624e-01 0.0000000e+00 1.6842352e-05 
7.8507388e-01 0.0000000e+00 1.8713852e-05 
7.8834343e-01 0.0000000e+00 2.0585354e-05 
7.9089969e-01 0.0000000e+00 2.2456854e-05 
7.9285747e-01 0.0000000e+00 2.4328356e-05 
7.9433161e-01 0.0000000e+00 2.6199856e-05 
7.9543686e-01 0.0000000e+00 2.8071358e-05 
7.9645431e-01 0.0000000e+00 2.8461183e-05 
7.9757106e-01 0.0000000e+00 2.8851011e-05 
7.9876101e-01 0.0000000e+00 2.9240837e-05 
7.9999793e-01 0.0000000e+00 2.9630663e-05 
8.0125576e-01 0.0000000e+00 3.0020490e-05 
8.0250835e-01 0.0000000e+00 3.0410316e-05 
8.0372953e-01 0.0000000e+00 3.0800144e-05 
8.0489320e-01 0.0000000e+00 3.1189968e-05 
8.0597317e-01 0.0000000e+00 3.1579795e-05 
8.0694336e-01 0.0000000e+00 3.1969623e-05 
8.0777752e-01 0.0000000e+00 3.2359447e-05 
8.0844963e-01 0.0000000e+00 3.2749274e-05 
8.0899441e-01 0.0000000e+00 3.2827229e-05 
8.0946732e-01 0.0000000e+00 3.2905180e-05 
8.0987334e-01 0.0000000e+00 3.2983131e-05 
8.1021750e-01 0.0000000e+00 3.3061086e-05 
8.1050467e-01 0.0000000e+00 3.3139037e-05 
8.1073993e-01 0.0000000e+00 3.3216991e-05 
8.1092823e-01 0.0000000e+00 3.3294942e-05 
8.1107455e-01 0.0000000e+00 3.3372893e-05 
8.1118387e-01 0.0000000e+00 3.3450848e-05 
8.1126112e-01 0.0000000e+00 3.3528799e-05 
8.1131130e-01 0.0000000e+00 3.3606753e-05 
8.1133944e-01 0.0000000e+00 3.3684704e-05 
1.2407124e-01 0.0000000e+00 -2.2901425e-02 
4.3346915e-01 0.0000000e+00 -4.3254055e-02 
7.3262042e-01 0.0000000e+00 -1.9863226e-02 
7.9542571e-01 0.0000000e+00 -1.1810268e-03 
8.0845213e-01 0.0000000e+00 -9.1965968e-04 
8.1133908e-01 0.0000000e+00 2.7760361e-05 
1.2402644e-01 0.0000000e+00 -3.5905287e-02 
4.3346840e-01 0.0000000e+00 -6.7612723e-02 
7.3266870e-01 0.0000000e+00 -3.1332768e-02 
7.9541457e-01 0.0000000e+00 -1.1718465e-03 
8.0845457e-01 0.0000000e+00 -1.4895571e-03 
8.1133866e-01 0.0000000e+00 7.4466276e-05 
1.2398165e-01 0.0000000e+00 -4.0731683e-02 
4.3346763e-01 0.0000000e+00 -6.9643185e-02 
7.3271692e-01 0.0000000e+00 -3.5839103e-02 
7.9540342e-01 0.0000000e+00 -2.4417572e-04 
8.0845702e-01 0.0000000e+00 -1.7400444e-03 
8.1133825e-01 0.0000000e+00 1.5803029e-04 
1.2393685e-01 0.0000000e+00 -3.9100718e-02 
4.3346688e-01 0.0000000e+00 -4.5810584e-02 
7.3276520e-01 0.0000000e+00 -3.4818310e-02 
7.9539227e-01 0.0000000e+00 1.3021977e-03 
8.0845946e-01 0.0000000e+00 -1.7342236e-03 
8.1133789e-01 0.0000000e+00 2.6268026e-04 
1.2389205e-01 0.0000000e+00 -3.2732487e-02 
4.3346611e-01 0.0000000e+00 7.4199215e-03 
7.3281348e-01 0.0000000e+00 -2.9706476e-02 
7.9538113e-01 0.0000000e+00 3.1674858e-03 
8.0846196e-01 0.0000000e+00 -1.5351959e-03 
8.1133747e-01 0.0000000e+00 3.7264402e-04 
1.2384725e-01 0.0000000e+00 -2.3347098e-02 
4.3346536e-01 0.0000000e+00 9.3583182e-02 
7.3286170e-01 0.0000000e+00 -2.1939686e-02 
7.9536998e-01 0.0000000e+00 5.0519006e-03 
8.0846441e-01 0.0000000e+00 -1.2060631e-03 
8.1133711e-01 0.0000000e+00 4.7214940e-04 
1.2380245e-01 0.0000000e+00 -1.2664648e-02 
4.3346462e-01 0.0000000e+00 2.1621405e-01 
7.3290998e-01 0.0000000e+00 -1.2954023e-02 
7.9535884e-01 0.0000000e+00 6.6556544e-03 
8.0846685e-01 0.0000000e+00 -8.0992671e-04 
8.1133670e-01 0.0000000e+00 5.4542429e-04 
1.2375765e-01 0.0000000e+00 -2.4052362e-03 
4.3346384e-01 0.0000000e+00 3.7884736e-01 
7.3295826e-01 0.0000000e+00 -4.1855746e-03 
7.9534769e-01 0.0000000e+00 7.6789591e-03 
8.0846936e-01 0.0000000e+00 -4.0988854e-04 
8.1133628e-01 0.0000000e+00 5.7669648e-04 
1.2371285e-01 0.0000000e+00 5.7110349e-03 
4.3346310e-01 0.0000000e+00 5.8501798e-01 
7.3300648e-01 0.0000000e+00 2.9295755e-03 
7.9533654e-01 0.0000000e+00 7.8220265e-03 
8.0847180e-01 0.0000000e+00 -6.9050082e-05 
8.1133592e-01 0.0000000e+00 5.5019383e-04 
1.2366805e-01 0.0000000e+00 9.9640647e-03 
4.3346232e-01 0.0000000e+00 3.3826071e-01 
7.3305476e-01 0.0000000e+00 6.9553424e-03 
7.9532540e-01 0.0000000e+00 6.7850691e-03 
8.0847424e-01 0.0000000e+00 1.4948702e-04 
8.1133550e-01 0.0000000e+00 4.5014417e-04 
1.2362325e-01 0.0000000e+00 8.6337533e-03 
4.3346158e-01 0.0000000e+00 1.4211044e-01 
7.3310304e-01 0.0000000e+00 6.4556408e-03 
7.9531425e-01 0.0000000e+00 4.2682993e-03 
8.0847669e-01 0.0000000e+00 1.8262117e-04 
8.1133509e-01 0.0000000e+00 2.6077538e-04 
0.0000000e+00 0.0000000e+00 0.0000000e+00 
1.2219163e-02 0.0000000e+00 1.0774182e-15 
2.4357725e-02 0.0000000e+00 2.1548383e-15 
3.6335088e-02 0.0000000e+00 3.2322606e-15 
4.8070654e-02 0.0000000e+00 4.3097146e-15 
5.9483819e-02 0.0000000e+00 5.3871702e-15 
7.0493989e-02 0.0000000e+00 6.4646135e-15 
8.1020556e-02 0.0000000e+00 7.5420627e-15 
9.0982929e-02 0.0000000e+00 8.6194903e-15 
1.0030051e-01 0.0000000e+00 9.6969475e-15 
1.0889269e-01 0.0000000e+00 1.0774396e-14 
1.1667886e-01 0.0000000e+00 1.1851846e-14 
1.2357845e-01 0.0000000e+00 1.2929297e-14 
1.3073321e-01 0.0000000e+00 8.5014408e-06 
1.3966256e-01 0.0000000e+00 1.7002882e-05 
1.5085244e-01 0.0000000e+00 2.5504321e-05 
1.6478875e-01 0.0000000e+00 3.4005763e-05 
1.8195742e-01 0.0000000e+00 4.2507203e-05 
2.0284435e-01 0.0000000e+00 5.1008643e-05 
2.2793546e-01 0.0000000e+00 5.9510086e-05 
2.5771669e-01 0.0000000e+00 6.8011526e-05 
2.9267392e-01 0.0000000e+00 7.6512966e-05 
3.3329305e-01 0.0000000e+00 8.5014406e-05 
3.8006005e-01 0.0000000e+00 9.3515846e-05 
4.3346083e-01 0.0000000e+00 1.0201729e-04 
4.8677325e-01 0.0000000e+00 9.3048067e-05 
5.3328168e-01 0.0000000e+00 8.4078849e-05 
5.7348162e-01 0.0000000e+00 7.5109630e-05 
6.0786843e-01 0.0000000e+00 6.6140412e-05 
6.3693774e-01 0.0000000e+00 5.7171190e-05 
6.6118491e-01 0.0000000e+00 4.8201971e-05 
6.8110549e-01 0.0000000e+00 3.9232753e-05 
6.9719499e-01 0.0000000e+00 3.0263533e-05 
7.0994884e-01 0.0000000e+00 2.1294312e-05 
7.1986246e-01 0.0000000e+00 1.2325093e-05 
7.2743148e-01 0.0000000e+00 3.3558729e-06 
7.3315126e-01 0.0000000e+00 -5.6133467e-06 
7.3834038e-01 0.0000000e+00 -7.4848476e-06 
7.4391031e-01 0.0000000e+00 -9.3563485e-06 
7.4974638e-01 0.0000000e+00 -1.1227849e-05 
7.5573379e-01 0.0000000e+00 -1.3099350e-05 
7.6175761e-01 0.0000000e+00 -1.4970851e-05 
7.6770318e-01 0.0000000e+00 -1.6842352e-05 
7.7345562e-01 0.0000000e+00 -1.8713852e-05 
7.7890015e-01 0.0000000e+00 -2.0585354e-05 
7.8392196e-01 0.0000000e+00 -2.2456854e-05 
7.8840625e-01 0.0000000e+00 -2.4328356e-05 
7.9223824e-01 0.0000000e+00 -2.6199856e-05 
7.9530311e-01 0.0000000e+00 -2.8071358e-05 
7.9776949e-01 0.0000000e+00 -2.8461183e-05 
7.9989994e-01 0.0000000e+00 -2.8851011e-05 
8.0172056e-01 0.0000000e+00 -2.9240837e-05 
8.0325758e-01 0.0000000e+00 -2.9630663e-05 
8.0453712e-01 0.0000000e+00 -3.0020490e-05 
8.0558521e-01 0.0000000e+00 -3.0410316e-05 
8.0642813e-01 0.0000000e+00 -3.0800144e-05 
8.0709195e-01 0.0000000e+00 -3.1189968e-05 
8.0760282e-01 0.0000000e+00 -3.1579795e-05 
8.0798692e-01 0.0000000e+00 -3.1969623e-05 
8.0827028e-01 0.0000000e+00 -3.2359447e-05 
8.0847919e-01 0.0000000e+00 -3.2749274e-05 
8.0867344e-01 0.0000000e+00 -3.2827229e-05 
8.0889225e-01 0.0000000e+00 -3.2905180e-05 
8.0913061e-01 0.0000000e+00 -3.2983131e-05 
8.0938351e-01 0.0000000e+00 -3.3061086e-05 
8.0964607e-01 0.0000000e+00 -3.3139037e-05 
8.0991322e-01 0.0000000e+00 -3.3216991e-05 
8.1018007e-01 0.0000000e+00 -3.3294942e-05 
8.1044155e-01 0.0000000e+00 -3.3372893e-05 
8.1069273e-01 0.0000000e+00 -3.3450848e-05 
8.1092864e-01 0.0000000e+00 -3.3528799e-05 
8.1114429e-01 0.0000000e+00 -3.3606753e-05 
8.1133473e-01 0.0000000e+00 -3.3684704e-05 
ADJOINT_ROTATION 3 212  float
0.0000000e+00 3.3634447e-02 0.0000000e+00 
0.0000000e+00 3.3795647e-02 0.0000000e+00 
0.0000000e+00 3.4279242e-02 0.0000000e+00 
0.0000000e+00 3.5085242e-02 0.0000000e+00 
0.0000000e+00 3.6213636e-02 0.0000000e+00 
0.0000000e+00 3.7664428e-02 0.0000000e+00 
0.0000000e+00 3.9437622e-02 0.0000000e+00 
0.0000000e+00 4.1533213e-02 0.0000000e+00 
0.0000000e+00 4.3951202e-02 0.0000000e+00 
0.0000000e+00 4.6691593e-02 0.0000000e+00 
0.0000000e+00 4.9754377e-02 0.0000000e+00 
0.0000000e+00 5.3139564e-02 0.0000000e+00 
0.0000000e+00 5.6847148e-02 0.0000000e+00 
0.0000000e+00 7.1361765e-02 0.0000000e+00 
0.0000000e+00 8.3932720e-02 0.0000000e+00 
0.0000000e+00 9.4560012e-02 0.0000000e+00 
0.0000000e+00 1.0324365e-01 0.0000000e+00 
0.0000000e+00 1.0998362e-01 0.0000000e+00 
0.0000000e+00 1.1477993e-01 0.0000000e+00 
0.0000000e+00 1.1763257e-01 0.0000000e+00 
0.0000000e+00 1.1854155e-01 0.0000000e+00 
0.0000000e+00 1.1750688e-01 0.0000000e+00 
0.0000000e+00 1.1452854e-01 0.0000000e+00 
0.0000000e+00 1.0960653e-01 0.0000000e+00 
0.0000000e+00 1.0274088e-01 0.0000000e+00 
0.0000000e+00 1.0917094e-01 0.0000000e+00 
0.0000000e+00 1.1361907e-01 0.0000000e+00 
0.0000000e+00 1.1608527e-01 0.0000000e+00 
0.0000000e+00 1.1656955e-01 0.0000000e+00 
0.0000000e+00 1.1507189e-01 0.0000000e+00 
0.0000000e+00 1.1159232e-01 0.0000000e+00 
0.0000000e+00 1.0613081e-01 0.0000000e+00 
0.0000000e+00 9.8687381e-02 0.0000000e+00 
0.0000000e+00 8.9262016e-02 0.0000000e+00 
0.0000000e+00 7.7854730e-02 0.0000000e+00 
0.0000000e+00 6.4465508e-02 0.0000000e+00 
0.0000000e+00 4.9094364e-02 0.0000000e+00 
0.0000000e+00 4.2797238e-02 0.0000000e+00 
0.0000000e+00 3.6959317e-02 0.0000000e+00 
0.0000000e+00 3.1580601e-02 0.0000000e+00 
0.0000000e+00 2.6661087e-02 0.0000000e+00 
0.0000000e+00 2.2200778e-02 0.0000000e+00 
0.0000000e+00 1.8199675e-02 0.0000000e+00 
0.0000000e+00 1.4657773e-02 0.0000000e+00 
0.0000000e+00 1.1575077e-02 0.0000000e+00 
0.0000000e+00 8.9515848e-03 0.0000000e+00 
0.0000000e+00 6.7872969e-03 0.0000000e+00 
0.0000000e+00 5.0822129e-03 0.0000000e+00 
0.0000000e+00 3.8363333e-03 0.0000000e+00 
0.0000000e+00 4.2858412e-03 0.0000000e+00 
0.0000000e+00 4.6307887e-03 0.0000000e+00 
0.0000000e+00 4.8711742e-03 0.0000000e+00 
0.0000000e+00 5.0069992e-03 0.0000000e+00 
0.0000000e+00 5.0382628e-03 0.0000000e+00 
0.0000000e+00 4.9649654e-03 0.0000000e+00 
0.0000000e+00 4.7871070e-03 0.0000000e+00 
0.0000000e+00 4.5046872e-03 0.0000000e+00 
0.0000000e+00 4.1177063e-03 0.0000000e+00 
0.0000000e+00 3.6261645e-03 0.0000000e+00 
0.0000000e+00 3.0300615e-03 0.0000000e+00 
0.0000000e+00 2.3293972e-03 0.0000000e+00 
0.0000000e+00 2.0320211e-03 0.0000000e+00 
0.0000000e+00 1.7545557e-03 0.0000000e+00 
0.0000000e+00 1.4970012e-03 0.0000000e+00 
0.0000000e+00 1.2593573e-03 0.0000000e+00 
0.0000000e+00 1.0416242e-03 0.0000000e+00 
0.0000000e+00 8.4380183e-04 0.0000000e+00 
0.0000000e+00 6.6589029e-04 0.0000000e+00 
0.0000000e+00 5.0788943e-04 0.0000000e+00 
0.0000000e+00 3.6979938e-04 0.0000000e+00 
0.0000000e+00 2.5162008e-04 0.0000000e+00 
0.0000000e+00 1.5335152e-04 0.0000000e+00 
0.0000000e+00 7.4993717e-05 0.0000000e+00 
0.0000000e+00 3.5331920e-02 0.0000000e+00 
0.0000000e+00 6.8688989e-02 0.0000000e+00 
0.0000000e+00 3.0859688e-02 0.0000000e+00 
0.0000000e+00 1.0999886e-03 0.0000000e+00 
0.0000000e+00 1.5012724e-03 0.0000000e+00 
0.0000000e+00 -4.6038956e-05 0.0000000e+00 
0.0000000e+00 1.7256891e-02 0.0000000e+00 
0.0000000e+00 2.7567413e-02 0.0000000e+00 
0.0000000e+00 1.5497182e-02 0.0000000e+00 
0.0000000e+00 -1.0367804e-03 0.0000000e+00 
0.0000000e+00 7.9935091e-04 0.0000000e+00 
0.0000000e+00 -1.3552733e-04 0.0000000e+00 
0.0000000e+00 2.6220642e-03 0.0000000e+00 
0.0000000e+00 -2.0623859e-02 0.0000000e+00 
0.0000000e+00 3.0068448e-03 0.0000000e+00 
0.0000000e+00 -2.5739735e-03 0.0000000e+00 
0.0000000e+00 2.2363258e-04 0.0000000e+00 
0.0000000e+00 -1.9347137e-04 0.0000000e+00 
0.0000000e+00 -8.5725607e-03 0.0000000e+00 
0.0000000e+00 -7.5884826e-02 0.0000000e+00 
0.0000000e+00 -6.6113225e-03 0.0000000e+00 
0.0000000e+00 -3.5115907e-03 0.0000000e+00 
0.0000000e+00 -2.2588251e-04 0.0000000e+00 
0.0000000e+00 -2.1987110e-04 0.0000000e+00 
0.0000000e+00 -1.6326984e-02 0.0000000e+00 
0.0000000e+00 -1.3821548e-01 0.0000000e+00 
0.0000000e+00 -1.3357320e-02 0.0000000e+00 
0.0000000e+00 -3.8496321e-03 0.0000000e+00 
0.0000000e+00 -5.4919434e-04 0.0000000e+00 
0.0000000e+00 -2.1472653e-04 0.0000000e+00 
0.0000000e+00 -2.0641208e-02 0.0000000e+00 
0.0000000e+00 -2.0761584e-01 0.0000000e+00 
0.0000000e+00 -1.7231148e-02 0.0000000e+00 
0.0000000e+00 -3.5880979e-03 0.0000000e+00 
0.0000000e+00 -7.4630301e-04 0.0000000e+00 
0.0000000e+00 -1.7803765e-04 0.0000000e+00 
0.0000000e+00 -2.1515230e-02 0.0000000e+00 
0.0000000e+00 -2.8408590e-01 0.0000000e+00 
0.0000000e+00 -1.8232806e-02 0.0000000e+00 
0.0000000e+00 -2.7269877e-03 0.0000000e+00 
0.0000000e+00 -8.1720838e-04 0.0000000e+00 
0.0000000e+00 -1.0980444e-04 0.0000000e+00 
0.0000000e+00 -1.8949049e-02 0.0000000e+00 
0.0000000e+00 -3.6762562e-01 0.0000000e+00 
0.0000000e+00 -1.6362293e-02 0.0000000e+00 
0.0000000e+00 -1.2663016e-03 0.0000000e+00 
0.0000000e+00 -7.6191052e-04 0.0000000e+00 
0.0000000e+00 -1.0026926e-05 0.0000000e+00 
0.0000000e+00 -1.2942668e-02 0.0000000e+00 
0.0000000e+00 -4.5823509e-01 0.0000000e+00 
0.0000000e+00 -1.1619612e-02 0.0000000e+00 
0.0000000e+00 7.9396024e-04 0.0000000e+00 
0.0000000e+00 -5.8040943e-04 0.0000000e+00 
0.0000000e+00 1.2129490e-04 0.0000000e+00 
0.0000000e+00 -3.4960858e-03 0.0000000e+00 
0.0000000e+00 4.4408581e-01 0.0000000e+00 
0.0000000e+00 -4.0047606e-03 0.0000000e+00 
0.0000000e+00 3.4537979e-03 0.0000000e+00 
0.0000000e+00 -2.7270513e-04 0.0000000e+00 
0.0000000e+00 2.8416104e-04 0.0000000e+00 
0.0000000e+00 9.3906978e-03 0.0000000e+00 
0.0000000e+00 3.3933696e-01 0.0000000e+00 
0.0000000e+00 6.4822608e-03 0.0000000e+00 
0.0000000e+00 6.7132115e-03 0.0000000e+00 
0.0000000e+00 1.6120244e-04 0.0000000e+00 
0.0000000e+00 4.7857148e-04 0.0000000e+00 
0.0000000e+00 4.8930384e-02 0.0000000e+00 
0.0000000e+00 4.8769183e-02 0.0000000e+00 
0.0000000e+00 4.8285585e-02 0.0000000e+00 
0.0000000e+00 4.7479589e-02 0.0000000e+00 
0.0000000e+00 4.6351194e-02 0.0000000e+00 
0.0000000e+00 4.4900402e-02 0.0000000e+00 
0.0000000e+00 4.3127209e-02 0.0000000e+00 
0.0000000e+00 4.1031618e-02 0.0000000e+00 
0.0000000e+00 3.8613629e-02 0.0000000e+00 
0.0000000e+00 3.5873238e-02 0.0000000e+00 
0.0000000e+00 3.2810453e-02 0.0000000e+00 
0.0000000e+00 2.9425267e-02 0.0000000e+00 
0.0000000e+00 2.5717683e-02 0.0000000e+00 
0.0000000e+00 3.1844273e-02 0.0000000e+00 
0.0000000e+00 3.9914526e-02 0.0000000e+00 
0.0000000e+00 4.9928438e-02 0.0000000e+00 
0.0000000e+00 6.1886016e-02 0.0000000e+00 
0.0000000e+00 7.5787254e-02 0.0000000e+00 
0.0000000e+00 9.1632150e-02 0.0000000e+00 
0.0000000e+00 1.0942072e-01 0.0000000e+00 
0.0000000e+00 1.2915294e-01 0.0000000e+00 
0.0000000e+00 1.5082882e-01 0.0000000e+00 
0.0000000e+00 1.7444837e-01 0.0000000e+00 
0.0000000e+00 2.0001158e-01 0.0000000e+00 
0.0000000e+00 2.2751845e-01 0.0000000e+00 
0.0000000e+00 1.9931144e-01 0.0000000e+00 
0.0000000e+00 1.7308635e-01 0.0000000e+00 
0.0000000e+00 1.4884317e-01 0.0000000e+00 
0.0000000e+00 1.2658194e-01 0.0000000e+00 
0.0000000e+00 1.0630263e-01 0.0000000e+00 
0.0000000e+00 8.8005252e-02 0.0000000e+00 
0.0000000e+00 7.1689799e-02 0.0000000e+00 
0.0000000e+00 5.7356276e-02 0.0000000e+00 
0.0000000e+00 4.5004677e-02 0.0000000e+00 
0.0000000e+00 3.4635007e-02 0.0000000e+00 
0.0000000e+00 2.6247267e-02 0.0000000e+00 
0.0000000e+00 1.9841451e-02 0.0000000e+00 
0.0000000e+00 2.1594636e-02 0.0000000e+00 
0.0000000e+00 2.2888618e-02 0.0000000e+00 
0.0000000e+00 2.3723396e-02 0.0000000e+00 
0.0000000e+00 2.4098968e-02 0.0000000e+00 
0.0000000e+00 2.4015337e-02 0.0000000e+00 
0.0000000e+00 2.3472501e-02 0.0000000e+00 
0.0000000e+00 2.2470461e-02 0.0000000e+00 
0.0000000e+00 2.1009218e-02 0.0000000e+00 
0.0000000e+00 1.9088769e-02 0.0000000e+00 
0.0000000e+00 1.6709117e-02 0.0000000e+00 
0.0000000e+00 1.3870262e-02 0.0000000e+00 
0.0000000e+00 1.0572201e-02 0.0000000e+00 
0.0000000e+00 9.1762068e-03 0.0000000e+00 
0.0000000e+00 7.8847753e-03 0.0000000e+00 
0.0000000e+00 6.6979039e-03 0.0000000e+00 
0.0000000e+00 5.6155934e-03 0.0000000e+00 
0.0000000e+00 4.6378449e-03 0.0000000e+00 
0.0000000e+00 3.7646568e-03 0.0000000e+00 
0.0000000e+00 2.9960300e-03 0.0000000e+00 
0.0000000e+00 2.3319644e-03 0.0000000e+00 
0.0000000e+00 1.7724599e-03 0.0000000e+00 
0.0000000e+00 1.3175166e-03 0.0000000e+00 
0.0000000e+00 9.6713437e-04 0.0000000e+00 
0.0000000e+00 7.2131323e-04 0.0000000e+00 
0.0000000e+00 8.2942349e-04 0.0000000e+00 
0.0000000e+00 9.1762299e-04 0.0000000e+00 
0.0000000e+00 9.8591170e-04 0.0000000e+00 
0.0000000e+00 1.0342897e-03 0.0000000e+00 
0.0000000e+00 1.0627569e-03 0.0000000e+00 
0.0000000e+00 1.0713134e-03 0.0000000e+00 
0.0000000e+00 1.0599591e-03 0.0000000e+00 
0.0000000e+00 1.0286941e-03 0.0000000e+00 
0.0000000e+00 9.7751827e-04 0.0000000e+00 
0.0000000e+00 9.0643164e-04 0.0000000e+00 