# vtk DataFile Version 4.0
vtk output
ASCII
DATASET UNSTRUCTURED_GRID
POINTS 212 float
0.0000000e+00 0.0000000e+00 0.0000000e+00 
0.0000000e+00 0.0000000e+00 2.5000000e-01 
0.0000000e+00 0.0000000e+00 5.0000000e-01 
0.0000000e+00 0.0000000e+00 7.5000000e-01 
0.0000000e+00 0.0000000e+00 1.0000000e+00 
0.0000000e+00 0.0000000e+00 1.2500000e+00 
0.0000000e+00 0.0000000e+00 1.5000000e+00 
0.0000000e+00 0.0000000e+00 1.7500000e+00 
0.0000000e+00 0.0000000e+00 2.0000000e+00 
0.0000000e+00 0.0000000e+00 2.2500000e+00 
0.0000000e+00 0.0000000e+00 2.5000000e+00 
0.0000000e+00 0.0000000e+00 2.7500000e+00 
0.0000000e+00 0.0000000e+00 3.0000000e+00 
0.0000000e+00 0.0000000e+00 3.2500000e+00 
0.0000000e+00 0.0000000e+00 3.5000000e+00 
0.0000000e+00 0.0000000e+00 3.7500000e+00 
0.0000000e+00 0.0000000e+00 4.0000000e+00 
0.0000000e+00 0.0000000e+00 4.2500000e+00 
0.0000000e+00 0.0000000e+00 4.5000000e+00 
0.0000000e+00 0.0000000e+00 4.7500000e+00 
0.0000000e+00 0.0000000e+00 5.0000000e+00 
0.0000000e+00 0.0000000e+00 5.2500000e+00 
0.0000000e+00 0.0000000e+00 5.5000000e+00 
0.0000000e+00 0.0000000e+00 5.7500000e+00 
0.0000000e+00 0.0000000e+00 6.0000000e+00 
0.0000000e+00 0.0000000e+00 6.2500000e+00 
0.0000000e+00 0.0000000e+00 6.5000000e+00 
0.0000000e+00 0.0000000e+00 6.7500000e+00 
0.0000000e+00 0.0000000e+00 7.0000000e+00 
0.0000000e+00 0.0000000e+00 7.2500000e+00 
0.0000000e+00 0.0000000e+00 7.5000000e+00 
0.0000000e+00 0.0000000e+00 7.7500000e+00 
0.0000000e+00 0.0000000e+00 8.0000000e+00 
0.0000000e+00 0.0000000e+00 8.2500000e+00 
0.0000000e+00 0.0000000e+00 8.5000000e+00 
0.0000000e+00 0.0000000e+00 8.7500000e+00 
0.0000000e+00 0.0000000e+00 9.0000000e+00 
0.0000000e+00 0.0000000e+00 9.2500000e+00 
0.0000000e+00 0.0000000e+00 9.5000000e+00 
0.0000000e+00 0.0000000e+00 9.7500000e+00 
0.0000000e+00 0.0000000e+00 1.0000000e+01 
0.0000000e+00 0.0000000e+00 1.0250000e+01 
0.0000000e+00 0.0000000e+00 1.0500000e+01 
0.0000000e+00 0.0000000e+00 1.0750000e+01 
0.0000000e+00 0.0000000e+00 1.1000000e+01 
0.0000000e+00 0.0000000e+00 1.1250000e+01 
0.0000000e+00 0.0000000e+00 1.1500000e+01 
0.0000000e+00 0.0000000e+00 1.1750000e+01 
0.0000000e+00 0.0000000e+00 1.2000000e+01 
0.0000000e+00 0.0000000e+00 1.2250000e+01 
0.0000000e+00 0.0000000e+00 1.2500000e+01 
0.0000000e+00 0.0000000e+00 1.2750000e+01 
0.0000000e+00 0.0000000e+00 1.3000000e+01 
0.0000000e+00 0.0000000e+00 1.3250000e+01 
0.0000000e+00 0.0000000e+00 1.3500000e+01 
0.0000000e+00 0.0000000e+00 1.3750000e+01 
0.0000000e+00 0.0000000e+00 1.4000000e+01 
0.0000000e+00 0.0000000e+00 1.4250000e+01 
0.0000000e+00 0.0000000e+00 1.4500000e+01 
0.0000000e+00 0.0000000e+00 1.4750000e+01 
0.0000000e+00 0.0000000e+00 1.5000000e+01 
0.0000000e+00 0.0000000e+00 1.5250000e+01 
0.0000000e+00 0.0000000e+00 1.5500000e+01 
0.0000000e+00 0.0000000e+00 1.5750000e+01 
0.0000000e+00 0.0000000e+00 1.6000000e+01 
0.0000000e+00 0.0000000e+00 1.6250000e+01 
0.0000000e+00 0.0000000e+00 1.6500000e+01 
0.0000000e+00 0.0000000e+00 1.6750000e+01 
0.0000000e+00 0.0000000e+00 1.7000000e+01 
0.0000000e+00 0.0000000e+00 1.7250000e+01 
0.0000000e+00 0.0000000e+00 1.7500000e+01 
0.0000000e+00 0.0000000e+00 1.7750000e+01 
0.0000000e+00 0.0000000e+00 1.8000000e+01 
5.0000000e-01 0.0000000e+00 3.0000000e+00 
5.0000000e-01 0.0000000e+00 6.0000000e+00 
5.0000000e-01 0.0000000e+00 9.0000000e+00 
5.0000000e-01 0.0000000e+00 1.2000000e+01 
5.0000000e-01 0.0000000e+00 1.5000000e+01 
5.0000000e-01 0.0000000e+00 1.8000000e+01 
1.0000000e+00 0.0000000e+00 3.0000000e+00 
1.0000000e+00 0.0000000e+00 6.0000000e+00 
1.0000000e+00 0.0000000e+00 9.0000000e+00 
1.0000000e+00 0.0000000e+00 1.2000000e+01 
1.0000000e+00 0.0000000e+00 1.5000000e+01 
1.0000000e+00 0.0000000e+00 1.8000000e+01 
1.5000000e+00 0.0000000e+00 3.0000000e+00 
1.5000000e+00 0.0000000e+00 6.0000000e+00 
1.5000000e+00 0.0000000e+00 9.0000000e+00 
1.5000000e+00 0.0000000e+00 1.2000000e+01 
1.5000000e+00 0.0000000e+00 1.5000000e+01 
1.5000000e+00 0.0000000e+00 1.8000000e+01 
2.0000000e+00 0.0000000e+00 3.0000000e+00 
2.0000000e+00 0.0000000e+00 6.0000000e+00 
2.0000000e+00 0.0000000e+00 9.0000000e+00 
2.0000000e+00 0.0000000e+00 1.2000000e+01 
2.0000000e+00 0.0000000e+00 1.5000000e+01 
2.0000000e+00 0.0000000e+00 1.8000000e+01 
2.5000000e+00 0.0000000e+00 3.0000000e+00 
2.5000000e+00 0.0000000e+00 6.0000000e+00 
2.5000000e+00 0.0000000e+00 9.0000000e+00 
2.5000000e+00 0.0000000e+00 1.2000000e+01 
2.5000000e+00 0.0000000e+00 1.5000000e+01 
2.5000000e+00 0.0000000e+00 1.8000000e+01 
3.0000000e+00 0.0000000e+00 3.0000000e+00 
3.0000000e+00 0.0000000e+00 6.0000000e+00 
3.0000000e+00 0.0000000e+00 9.0000000e+00 
3.0000000e+00 0.0000000e+00 1.2000000e+01 
3.0000000e+00 0.0000000e+00 1.5000000e+01 
3.0000000e+00 0.0000000e+00 1.8000000e+01 
3.5000000e+00 0.0000000e+00 3.0000000e+00 
3.5000000e+00 0.0000000e+00 6.0000000e+00 
3.5000000e+00 0.0000000e+00 9.0000000e+00 
3.5000000e+00 0.0000000e+00 1.2000000e+01 
3.5000000e+00 0.0000000e+00 1.5000000e+01 
3.5000000e+00 0.0000000e+00 1.8000000e+01 
4.0000000e+00 0.0000000e+00 3.0000000e+00 
4.0000000e+00 0.0000000e+00 6.0000000e+00 
4.0000000e+00 0.0000000e+00 9.0000000e+00 
4.0000000e+00 0.0000000e+00 1.2000000e+01 
4.0000000e+00 0.0000000e+00 1.5000000e+01 
4.0000000e+00 0.0000000e+00 1.8000000e+01 
4.5000000e+00 0.0000000e+00 3.0000000e+00 
4.5000000e+00 0.0000000e+00 6.0000000e+00 
4.5000000e+00 0.0000000e+00 9.0000000e+00 
4.5000000e+00 0.0000000e+00 1.2000000e+01 
4.5000000e+00 0.0000000e+00 1.5000000e+01 
4.5000000e+00 0.0000000e+00 1.8000000e+01 
5.0000000e+00 0.0000000e+00 3.0000000e+00 
5.0000000e+00 0.0000000e+00 6.0000000e+00 
5.0000000e+00 0.0000000e+00 9.0000000e+00 
5.0000000e+00 0.0000000e+00 1.2000000e+01 
5.0000000e+00 0.0000000e+00 1.5000000e+01 
5.0000000e+00 0.0000000e+00 1.8000000e+01 
5.5000000e+00 0.0000000e+00 3.0000000e+00 
5.5000000e+00 0.0000000e+00 6.0000000e+00 
5.5000000e+00 0.0000000e+00 9.0000000e+00 
5.5000000e+00 0.0000000e+00 1.2000000e+01 
5.5000000e+00 0.0000000e+00 1.5000000e+01 
5.5000000e+00 0.0000000e+00 1.8000000e+01 
6.0000000e+00 0.0000000e+00 0.0000000e+00 
6.0000000e+00 0.0000000e+00 2.5000000e-01 
6.0000000e+00 0.0000000e+00 5.0000000e-01 
6.0000000e+00 0.0000000e+00 7.5000000e-01 
6.0000000e+00 0.0000000e+00 1.0000000e+00 
6.0000000e+00 0.0000000e+00 1.2500000e+00 
6.0000000e+00 0.0000000e+00 1.5000000e+00 
6.0000000e+00 0.0000000e+00 1.7500000e+00 
6.0000000e+00 0.0000000e+00 2.0000000e+00 
6.0000000e+00 0.0000000e+00 2.2500000e+00 
6.0000000e+00 0.0000000e+00 2.5000000e+00 
6.0000000e+00 0.0000000e+00 2.7500000e+00 
6.0000000e+00 0.0000000e+00 3.0000000e+00 
6.0000000e+00 0.0000000e+00 3.2500000e+00 
6.0000000e+00 0.0000000e+00 3.5000000e+00 
6.0000000e+00 0.0000000e+00 3.7500000e+00 
6.0000000e+00 0.0000000e+00 4.0000000e+00 
6.0000000e+00 0.0000000e+00 4.2500000e+00 
6.0000000e+00 0.0000000e+00 4.5000000e+00 
6.0000000e+00 0.0000000e+00 4.7500000e+00 
6.0000000e+00 0.0000000e+00 5.0000000e+00 
6.0000000e+00 0.0000000e+00 5.2500000e+00 
6.0000000e+00 0.0000000e+00 5.5000000e+00 
6.0000000e+00 0.0000000e+00 5.7500000e+00 
6.0000000e+00 0.0000000e+00 6.0000000e+00 
6.0000000e+00 0.0000000e+00 6.2500000e+00 
6.0000000e+00 0.0000000e+00 6.5000000e+00 
6.0000000e+00 0.0000000e+00 6.7500000e+00 
6.0000000e+00 0.0000000e+00 7.0000000e+00 
6.0000000e+00 0.0000000e+00 7.2500000e+00 
6.0000000e+00 0.0000000e+00 7.5000000e+00 
6.0000000e+00 0.0000000e+00 7.7500000e+00 
6.0000000e+00 0.0000000e+00 8.0000000e+00 
6.0000000e+00 0.0000000e+00 8.2500000e+00 
6.0000000e+00 0.0000000e+00 8.5000000e+00 
6.0000000e+00 0.0000000e+00 8.7500000e+00 
6.0000000e+00 0.0000000e+00 9.0000000e+00 
6.0000000e+00 0.0000000e+00 9.2500000e+00 
6.0000000e+00 0.0000000e+00 9.5000000e+00 
6.0000000e+00 0.0000000e+00 9.7500000e+00 
6.0000000e+00 0.0000000e+00 1.0000000e+01 
6.0000000e+00 0.0000000e+00 1.0250000e+01 
6.0000000e+00 0.0000000e+00 1.0500000e+01 
6.0000000e+00 0.0000000e+00 1.0750000e+01 
6.0000000e+00 0.0000000e+00 1.1000000e+01 
6.0000000e+00 0.0000000e+00 1.1250000e+01 
6.0000000e+00 0.0000000e+00 1.1500000e+01 
6.0000000e+00 0.0000000e+00 1.1750000e+01 
6.0000000e+00 0.0000000e+00 1.2000000e+01 
6.0000000e+00 0.0000000e+00 1.2250000e+01 
6.0000000e+00 0.0000000e+00 1.2500000e+01 
6.0000000e+00 0.0000000e+00 1.2750000e+01 
6.0000000e+00 0.0000000e+00 1.3000000e+01 
6.0000000e+00 0.0000000e+00 1.3250000e+01 
6.0000000e+00 0.0000000e+00 1.3500000e+01 
6.0000000e+00 0.0000000e+00 1.3750000e+01 
6.0000000e+00 0.0000000e+00 1.4000000e+01 
6.0000000e+00 0.0000000e+00 1.4250000e+01 
6.0000000e+00 0.0000000e+00 1.4500000e+01 
6.0000000e+00 0.0000000e+00 1.4750000e+01 
6.0000000e+00 0.0000000e+00 1.5000000e+01 
6.0000000e+00 0.0000000e+00 1.5250000e+01 
6.0000000e+00 0.0000000e+00 1.5500000e+01 
6.0000000e+00 0.0000000e+00 1.5750000e+01 
6.0000000e+00 0.0000000e+00 1.6000000e+01 
6.0000000e+00 0.0000000e+00 1.6250000e+01 
6.0000000e+00 0.0000000e+00 1.6500000e+01 
6.0000000e+00 0.0000000e+00 1.6750000e+01 
6.0000000e+00 0.0000000e+00 1.7000000e+01 
6.0000000e+00 0.0000000e+00 1.7250000e+01 
6.0000000e+00 0.0000000e+00 1.7500000e+01 
6.0000000e+00 0.0000000e+00 1.7750000e+01 
6.0000000e+00 0.0000000e+00 1.8000000e+01 

CELLS 216 648
2 0 1
2 1 2
2 2 3
2 3 4
2 4 5
2 5 6
2 6 7
2 7 8
2 8 9
2 9 10
2 10 11
2 11 12
2 12 13
2 13 14
2 14 15
2 15 16
2 16 17
2 17 18
2 18 19
2 19 20
2 20 21
2 21 22
2 22 23
2 23 24
2 24 25
2 25 26
2 26 27
2 27 28
2 28 29
2 29 30
2 30 31
2 31 32
2 32 33
2 33 34
2 34 35
2 35 36
2 36 37
2 37 38
2 38 39
2 39 40
2 40 41
2 41 42
2 42 43
2 43 44
2 44 45
2 45 46
2 46 47
2 47 48
2 48 49
2 49 50
2 50 51
2 51 52
2 52 53
2 53 54
2 54 55
2 55 56
2 56 57
2 57 58
2 58 59
2 59 60
2 60 61
2 61 62
2 62 63
2 63 64
2 64 65
2 65 66
2 66 67
2 67 68
2 68 69
2 69 70
2 70 71
2 71 72
2 139 140
2 140 141
2 141 142
2 142 143
2 143 144
2 144 145
2 145 146
2 146 147
2 147 148
2 148 149
2 149 150
2 150 151
2 151 152
2 152 153
2 153 154
2 154 155
2 155 156
2 156 157
2 157 158
2 158 159
2 159 160
2 160 161
2 161 162
2 162 163
2 163 164
2 164 165
2 165 166
2 166 167
2 167 168
2 168 169
2 169 170
2 170 171
2 171 172
2 172 173
2 173 174
2 174 175
2 175 176
2 176 177
2 177 178
2 178 179
2 179 180
2 180 181
2 181 182
2 182 183
2 183 184
2 184 185
2 185 186
2 186 187
2 187 188
2 188 189
2 189 190
2 190 191
2 191 192
2 192 193
2 193 194
2 194 195
2 195 196
2 196 197
2 197 198
2 198 199
2 199 200
2 200 201
2 201 202
2 202 203
2 203 204
2 204 205
2 205 206
2 206 207
2 207 208
2 208 209
2 209 210
2 210 211
2 12 73
2 73 79
2 79 85
2 85 91
2 91 97
2 97 103
2 103 109
2 109 115
2 115 121
2 121 127
2 127 133
2 133 151
2 24 74
2 74 80
2 80 86
2 86 92
2 92 98
2 98 104
2 104 110
2 110 116
2 116 122
2 122 128
2 128 134
2 134 163
2 36 75
2 75 81
2 81 87
2 87 93
2 93 99
2 99 105
2 105 111
2 111 117
2 117 123
2 123 129
2 129 135
2 135 175
2 48 76
2 76 82
2 82 88
2 88 94
2 94 100
2 100 106
2 106 112
2 112 118
2 118 124
2 124 130
2 130 136
2 136 187
2 60 77
2 77 83
2 83 89
2 89 95
2 95 101
2 101 107
2 107 113
2 113 119
2 119 125
2 125 131
2 131 137
2 137 199
2 72 78
2 78 84
2 84 90
2 90 96
2 96 102
2 102 108
2 108 114
2 114 120
2 120 126
2 126 132
2 132 138
2 138 211

CELL_TYPES 216
3
3
3
3
3
3
3
3
3
3
3
3
3
3
3
3
3
3
3
3
3
3
3
3
3
3
3
3
3
3
3
3
3
3
3
3
3
3
3
3
3
3
3
3
3
3
3
3
3
3
3
3
3
3
3
3
3
3
3
3
3
3
3
3
3
3
3
3
3
3
3
3
3
3
3
3
3
3
3
3
3
3
3
3
3
3
3
3
3
3
3
3
3
3
3
3
3
3
3
3
3
3
3
3
3
3
3
3
3
3
3
3
3
3
3
3
3
3
3
3
3
3
3
3
3
3
3
3
3
3
3
3
3
3
3
3
3
3
3
3
3
3
3
3
3
3
3
3
3
3
3
3
3
3
3
3
3
3
3
3
3
3
3
3
3
3
3
3
3
3
3
3
3
3
3
3
3
3
3
3
3
3
3
3
3
3
3
3
3
3
3
3
3
3
3
3
3
3
3
3
3
3
3
3
3
3
3
3
3
3
3
3
3
3
3
3
POINT_DATA 212
FIELD FieldData 8
DISPLACEMENT 3 212  float
0.0000000e+00 0.0000000e+00 0.0000000e+00 
-8.0141949e-04 0.0000000e+00 -4.5131161e-05 
-1.5692525e-03 0.0000000e+00 -8.9950161e-05 
-2.2699123e-03 0.0000000e+00 -1.3445699e-04 
-2.8698125e-03 0.0000000e+00 -1.7865165e-04 
-3.3353665e-03 0.0000000e+00 -2.2253416e-04 
-3.6329878e-03 0.0000000e+00 -2.6610450e-04 
-3.7290899e-03 0.0000000e+00 -3.0936266e-04 
-3.5900860e-03 0.0000000e+00 -3.5230868e-04 
-3.1823898e-03 0.0000000e+00 -3.9494250e-04 
-2.4724146e-03 0.0000000e+00 -4.3726419e-04 
-1.4265741e-03 0.0000000e+00 -4.7927370e-04 
-1.1281387e-05 0.0000000e+00 -5.2097102e-04 
1.2626367e-03 0.0000000e+00 -5.5855431e-04 
1.9358264e-03 0.0000000e+00 -5.9582543e-04 
2.1190837e-03 0.0000000e+00 -6.3278439e-04 
1.9232041e-03 0.0000000e+00 -6.6943117e-04 
1.4589835e-03 0.0000000e+00 -7.0576585e-04 
8.3721773e-04 0.0000000e+00 -7.4178830e-04 
1.6870264e-04 0.0000000e+00 -7.7749859e-04 
-4.3576604e-04 0.0000000e+00 -8.1289670e-04 
-8.6539256e-04 0.0000000e+00 -8.4798271e-04 
-1.0093810e-03 0.0000000e+00 -8.8275649e-04 
-7.5693574e-04 0.0000000e+00 -9.1721810e-04 
2.7391548e-06 0.0000000e+00 -9.5136761e-04 
7.9665892e-04 0.0000000e+00 -9.8140305e-04 
1.1393412e-03 0.0000000e+00 -1.0111262e-03 
1.1228350e-03 0.0000000e+00 -1.0405374e-03 
8.3918951e-04 0.0000000e+00 -1.0696363e-03 
3.8045394e-04 0.0000000e+00 -1.0984230e-03 
-1.6132252e-04 0.0000000e+00 -1.1268976e-03 
-6.9409079e-04 0.0000000e+00 -1.1550600e-03 
-1.1258017e-03 0.0000000e+00 -1.1829103e-03 
-1.3644061e-03 0.0000000e+00 -1.2104483e-03 
-1.3178547e-03 0.0000000e+00 -1.2376743e-03 
-8.9409854e-04 0.0000000e+00 -1.2645881e-03 
-1.0884144e-06 0.0000000e+00 -1.2911897e-03 
8.7831443e-04 0.0000000e+00 -1.3136772e-03 
1.2662148e-03 0.0000000e+00 -1.3358525e-03 
1.2621109e-03 0.0000000e+00 -1.3577158e-03 
9.6550077e-04 0.0000000e+00 -1.3792668e-03 
4.7588284e-04 0.0000000e+00 -1.4005057e-03 
-1.0724477e-04 0.0000000e+00 -1.4214325e-03 
-6.8438385e-04 0.0000000e+00 -1.4420470e-03 
-1.1560363e-03 0.0000000e+00 -1.4623493e-03 
-1.4227036e-03 0.0000000e+00 -1.4823396e-03 
-1.3848880e-03 0.0000000e+00 -1.5020176e-03 
-9.4309082e-04 0.0000000e+00 -1.5213835e-03 
2.1858057e-06 0.0000000e+00 -1.5404372e-03 
9.7478932e-04 0.0000000e+00 -1.5553769e-03 
1.4885939e-03 0.0000000e+00 -1.5700044e-03 
1.6281382e-03 0.0000000e+00 -1.5843197e-03 
1.4779611e-03 0.0000000e+00 -1.5983229e-03 
1.1226009e-03 0.0000000e+00 -1.6120139e-03 
6.4659654e-04 0.0000000e+00 -1.6253927e-03 
1.3448656e-04 0.0000000e+00 -1.6384594e-03 
-3.2919034e-04 0.0000000e+00 -1.6512140e-03 
-6.5989548e-04 0.0000000e+00 -1.6636563e-03 
-7.7309017e-04 0.0000000e+00 -1.6757865e-03 
-5.8423588e-04 0.0000000e+00 -1.6876045e-03 
-8.7937688e-06 0.0000000e+00 -1.6991104e-03 
4.5659495e-04 0.0000000e+00 -1.7065022e-03 
3.5541190e-04 0.0000000e+00 -1.7135817e-03 
-1.6762012e-04 0.0000000e+00 -1.7203492e-03 
-9.6777832e-04 0.0000000e+00 -1.7268045e-03 
-1.9003400e-03 0.0000000e+00 -1.7329477e-03 
-2.8205824e-03 0.0000000e+00 -1.7387785e-03 
-3.5837824e-03 0.0000000e+00 -1.7442974e-03 
-4.0452178e-03 0.0000000e+00 -1.7495040e-03 
-4.0601650e-03 0.0000000e+00 -1.7543985e-03 
-3.4839022e-03 0.0000000e+00 -1.7589808e-03 
-2.1717062e-03 0.0000000e+00 -1.7632509e-03 
2.1146090e-05 0.0000000e+00 -1.7672089e-03 
-9.4011557e-06 0.0000000e+00 -5.5738073e-03 
2.2826289e-06 0.0000000e+00 -4.9757175e-03 
-9.0701195e-07 0.0000000e+00 -5.5137202e-03 
1.8215047e-06 0.0000000e+00 -5.8947154e-03 
-7.3281408e-06 0.0000000e+00 -5.2590654e-03 
1.7621742e-05 0.0000000e+00 -8.7820916e-03 
-7.5209246e-06 0.0000000e+00 -1.2830341e-02 
1.8261031e-06 0.0000000e+00 -1.1390762e-02 
-7.2560960e-07 0.0000000e+00 -1.2090913e-02 
1.4572038e-06 0.0000000e+00 -1.2579702e-02 
-5.8625128e-06 0.0000000e+00 -1.1294152e-02 
1.4097393e-05 0.0000000e+00 -1.7643936e-02 
-5.6406934e-06 0.0000000e+00 -2.0417135e-02 
1.3695774e-06 0.0000000e+00 -1.8323066e-02 
-5.4420718e-07 0.0000000e+00 -1.9149331e-02 
1.0929028e-06 0.0000000e+00 -1.9721959e-02 
-4.3968844e-06 0.0000000e+00 -1.7930930e-02 
1.0573045e-05 0.0000000e+00 -2.6479306e-02 
-3.7604623e-06 0.0000000e+00 -2.6877074e-02 
9.1305157e-07 0.0000000e+00 -2.4315510e-02 
-3.6280480e-07 0.0000000e+00 -2.5231857e-02 
7.2860189e-07 0.0000000e+00 -2.5864370e-02 
-2.9312564e-06 0.0000000e+00 -2.3712287e-02 
7.0486967e-06 0.0000000e+00 -3.3831082e-02 
-1.8802311e-06 0.0000000e+00 -3.1169355e-02 
4.5652578e-07 0.0000000e+00 -2.8327296e-02 
-1.8140240e-07 0.0000000e+00 -2.9297693e-02 
3.6430094e-07 0.0000000e+00 -2.9966136e-02 
-1.4656282e-06 0.0000000e+00 -2.7597418e-02 
3.5243484e-06 0.0000000e+00 -3.8658466e-02 
6.0479160e-15 0.0000000e+00 -3.2669503e-02 
4.5506506e-15 0.0000000e+00 -2.9733943e-02 
1.0039950e-15 0.0000000e+00 -3.0722357e-02 
-4.3745156e-15 0.0000000e+00 -3.1402778e-02 
-1.1235296e-14 0.0000000e+00 -2.8961848e-02 
-1.5364568e-14 0.0000000e+00 -4.0336981e-02 
1.8802311e-06 0.0000000e+00 -3.1169355e-02 
-4.5652578e-07 0.0000000e+00 -2.8327296e-02 
1.8140240e-07 0.0000000e+00 -2.9297693e-02 
-3.6430094e-07 0.0000000e+00 -2.9966136e-02 
1.4656282e-06 0.0000000e+00 -2.7597418e-02 
-3.5243484e-06 0.0000000e+00 -3.8658466e-02 
3.7604623e-06 0.0000000e+00 -2.6877074e-02 
-9.1305157e-07 0.0000000e+00 -2.4315510e-02 
3.6280480e-07 0.0000000e+00 -2.5231857e-02 
-7.2860189e-07 0.0000000e+00 -2.5864370e-02 
2.9312564e-06 0.0000000e+00 -2.3712287e-02 
-7.0486967e-06 0.0000000e+00 -3.3831082e-02 
5.6406934e-06 0.0000000e+00 -2.0417135e-02 
-1.3695774e-06 0.0000000e+00 -1.8323066e-02 
5.4420718e-07 0.0000000e+00 -1.9149331e-02 
-1.0929028e-06 0.0000000e+00 -1.9721959e-02 
4.3968844e-06 0.0000000e+00 -1.7930930e-02 
-1.0573045e-05 0.0000000e+00 -2.6479306e-02 
7.5209246e-06 0.0000000e+00 -1.2830341e-02 
-1.8261031e-06 0.0000000e+00 -1.1390762e-02 
7.2560960e-07 0.0000000e+00 -1.2090913e-02 
-1.4572038e-06 0.0000000e+00 -1.2579702e-02 
5.8625128e-06 0.0000000e+00 -1.1294152e-02 
-1.4097393e-05 0.0000000e+00 -1.7643936e-02 
9.4011557e-06 0.0000000e+00 -5.5738073e-03 
-2.2826289e-06 0.0000000e+00 -4.9757175e-03 
9.0701195e-07 0.0000000e+00 -5.5137202e-03 
-1.8215047e-06 0.0000000e+00 -5.8947154e-03 
7.3281408e-06 0.0000000e+00 -5.2590654e-03 
-1.7621742e-05 0.0000000e+00 -8.7820916e-03 
0.0000000e+00 0.0000000e+00 0.0000000e+00 
8.0141949e-04 0.0000000e+00 -4.5131161e-05 
1.5692525e-03 0.0000000e+00 -8.9950161e-05 
2.2699123e-03 0.0000000e+00 -1.3445699e-04 
2.8698125e-03 0.0000000e+00 -1.7865165e-04 
3.3353665e-03 0.0000000e+00 -2.2253416e-04 
3.6329878e-03 0.0000000e+00 -2.6610450e-04 
3.7290899e-03 0.0000000e+00 -3.0936266e-04 
3.5900860e-03 0.0000000e+00 -3.5230868e-04 
3.1823898e-03 0.0000000e+00 -3.9494250e-04 
2.4724146e-03 0.0000000e+00 -4.3726419e-04 
1.4265741e-03 0.0000000e+00 -4.7927370e-04 
1.1281387e-05 0.0000000e+00 -5.2097102e-04 
-1.2626367e-03 0.0000000e+00 -5.5855431e-04 
-1.9358264e-03 0.0000000e+00 -5.9582543e-04 
-2.1190837e-03 0.0000000e+00 -6.3278439e-04 
-1.9232041e-03 0.0000000e+00 -6.6943117e-04 
-1.4589835e-03 0.0000000e+00 -7.0576585e-04 
-8.3721773e-04 0.0000000e+00 -7.4178830e-04 
-1.6870264e-04 0.0000000e+00 -7.7749859e-04 
4.3576604e-04 0.0000000e+00 -8.1289670e-04 
8.6539256e-04 0.0000000e+00 -8.4798271e-04 
1.0093810e-03 0.0000000e+00 -8.8275649e-04 
7.5693574e-04 0.0000000e+00 -9.1721810e-04 
-2.7391548e-06 0.0000000e+00 -9.5136761e-04 
-7.9665892e-04 0.0000000e+00 -9.8140305e-04 
-1.1393412e-03 0.0000000e+00 -1.0111262e-03 
-1.1228350e-03 0.0000000e+00 -1.0405374e-03 
-8.3918951e-04 0.0000000e+00 -1.0696363e-03 
-3.8045394e-04 0.0000000e+00 -1.0984230e-03 
1.6132252e-04 0.0000000e+00 -1.1268976e-03 
6.9409079e-04 0.0000000e+00 -1.1550600e-03 
1.1258017e-03 0.0000000e+00 -1.1829103e-03 
1.3644061e-03 0.0000000e+00 -1.2104483e-03 
1.3178547e-03 0.0000000e+00 -1.2376743e-03 
8.9409854e-04 0.0000000e+00 -1.2645881e-03 
1.0884144e-06 0.0000000e+00 -1.2911897e-03 
-8.7831443e-04 0.0000000e+00 -1.3136772e-03 
-1.2662148e-03 0.0000000e+00 -1.3358525e-03 
-1.2621109e-03 0.0000000e+00 -1.3577158e-03 
-9.6550077e-04 0.0000000e+00 -1.3792668e-03 
-4.7588284e-04 0.0000000e+00 -1.4005057e-03 
1.0724477e-04 0.0000000e+00 -1.4214325e-03 
6.8438385e-04 0.0000000e+00 -1.4420470e-03 
1.1560363e-03 0.0000000e+00 -1.4623493e-03 
1.4227036e-03 0.0000000e+00 -1.4823396e-03 
1.3848880e-03 0.0000000e+00 -1.5020176e-03 
9.4309082e-04 0.0000000e+00 -1.5213835e-03 
-2.1858057e-06 0.0000000e+00 -1.5404372e-03 
-9.7478932e-04 0.0000000e+00 -1.5553769e-03 
-1.4885939e-03 0.0000000e+00 -1.5700044e-03 
-1.6281382e-03 0.0000000e+00 -1.5843197e-03 
-1.4779611e-03 0.0000000e+00 -1.5983229e-03 
-1.1226009e-03 0.0000000e+00 -1.6120139e-03 
-6.4659654e-04 0.0000000e+00 -1.6253927e-03 
-1.3448656e-04 0.0000000e+00 -1.6384594e-03 
3.2919034e-04 0.0000000e+00 -1.6512140e-03 
6.5989548e-04 0.0000000e+00 -1.6636563e-03 
7.7309017e-04 0.0000000e+00 -1.6757865e-03 
5.8423588e-04 0.0000000e+00 -1.6876045e-03 
8.7937688e-06 0.0000000e+00 -1.6991104e-03 
-4.5659495e-04 0.0000000e+00 -1.7065022e-03 
-3.5541190e-04 0.0000000e+00 -1.7135817e-03 
1.6762012e-04 0.0000000e+00 -1.7203492e-03 
9.6777832e-04 0.0000000e+00 -1.7268045e-03 
1.9003400e-03 0.0000000e+00 -1.7329477e-03 
2.8205824e-03 0.0000000e+00 -1.7387785e-03 
3.5837824e-03 0.0000000e+00 -1.7442974e-03 
4.0452178e-03 0.0000000e+00 -1.7495040e-03 
4.0601650e-03 0.0000000e+00 -1.7543985e-03 
3.4839022e-03 0.0000000e+00 -1.7589808e-03 
2.1717062e-03 0.0000000e+00 -1.7632509e-03 
-2.1146090e-05 0.0000000e+00 -1.7672089e-03 
ROTATION 3 212  float
0.0000000e+00 -3.2280691e-03 0.0000000e+00 
0.0000000e+00 -3.1608960e-03 0.0000000e+00 
0.0000000e+00 -2.9593767e-03 0.0000000e+00 
0.0000000e+00 -2.6235112e-03 0.0000000e+00 
0.0000000e+00 -2.1532995e-03 0.0000000e+00 
0.0000000e+00 -1.5487417e-03 0.0000000e+00 
0.0000000e+00 -8.0983760e-04 0.0000000e+00 
0.0000000e+00 6.3412634e-05 0.0000000e+00 
0.0000000e+00 1.0710091e-03 0.0000000e+00 
0.0000000e+00 2.2129517e-03 0.0000000e+00 
0.0000000e+00 3.4892405e-03 0.0000000e+00 
0.0000000e+00 4.8998757e-03 0.0000000e+00 
0.0000000e+00 6.4448565e-03 0.0000000e+00 
0.0000000e+00 3.8203518e-03 0.0000000e+00 
0.0000000e+00 1.6390299e-03 0.0000000e+00 
0.0000000e+00 -9.9108671e-05 0.0000000e+00 
0.0000000e+00 -1.3940642e-03 0.0000000e+00 
0.0000000e+00 -2.2458364e-03 0.0000000e+00 
0.0000000e+00 -2.6544256e-03 0.0000000e+00 
0.0000000e+00 -2.6198314e-03 0.0000000e+00 
0.0000000e+00 -2.1420543e-03 0.0000000e+00 
0.0000000e+00 -1.2210938e-03 0.0000000e+00 
0.0000000e+00 1.4304975e-04 0.0000000e+00 
0.0000000e+00 1.9503766e-03 0.0000000e+00 
0.0000000e+00 4.2008865e-03 0.0000000e+00 
0.0000000e+00 2.2118378e-03 0.0000000e+00 
0.0000000e+00 5.9098593e-04 0.0000000e+00 
0.0000000e+00 -6.6166936e-04 0.0000000e+00 
0.0000000e+00 -1.5461281e-03 0.0000000e+00 
0.0000000e+00 -2.0623901e-03 0.0000000e+00 
0.0000000e+00 -2.2104555e-03 0.0000000e+00 
0.0000000e+00 -1.9903244e-03 0.0000000e+00 
0.0000000e+00 -1.4019966e-03 0.0000000e+00 
0.0000000e+00 -4.4547219e-04 0.0000000e+00 
0.0000000e+00 8.7924884e-04 0.0000000e+00 
0.0000000e+00 2.5721665e-03 0.0000000e+00 
0.0000000e+00 4.6332809e-03 0.0000000e+00 
0.0000000e+00 2.4682742e-03 0.0000000e+00 
0.0000000e+00 7.0126064e-04 0.0000000e+00 
0.0000000e+00 -6.6776015e-04 0.0000000e+00 
0.0000000e+00 -1.6387881e-03 0.0000000e+00 
0.0000000e+00 -2.2118234e-03 0.0000000e+00 
0.0000000e+00 -2.3868657e-03 0.0000000e+00 
0.0000000e+00 -2.1639152e-03 0.0000000e+00 
0.0000000e+00 -1.5429717e-03 0.0000000e+00 
0.0000000e+00 -5.2403554e-04 0.0000000e+00 
0.0000000e+00 8.9289347e-04 0.0000000e+00 
0.0000000e+00 2.7078153e-03 0.0000000e+00 
0.0000000e+00 4.9207299e-03 0.0000000e+00 
0.0000000e+00 2.9164571e-03 0.0000000e+00 
0.0000000e+00 1.2503389e-03 0.0000000e+00 
0.0000000e+00 -7.7624842e-05 0.0000000e+00 
0.0000000e+00 -1.0674339e-03 0.0000000e+00 
0.0000000e+00 -1.7190882e-03 0.0000000e+00 
0.0000000e+00 -2.0325878e-03 0.0000000e+00 
0.0000000e+00 -2.0079329e-03 0.0000000e+00 
0.0000000e+00 -1.6451231e-03 0.0000000e+00 
0.0000000e+00 -9.4415888e-04 0.0000000e+00 
0.0000000e+00 9.4960116e-05 0.0000000e+00 
0.0000000e+00 1.4722338e-03 0.0000000e+00 
0.0000000e+00 3.1876620e-03 0.0000000e+00 
0.0000000e+00 6.3192949e-04 0.0000000e+00 
0.0000000e+00 -1.3449120e-03 0.0000000e+00 
0.0000000e+00 -2.7428623e-03 0.0000000e+00 
0.0000000e+00 -3.5619217e-03 0.0000000e+00 
0.0000000e+00 -3.8020897e-03 0.0000000e+00 
0.0000000e+00 -3.4633668e-03 0.0000000e+00 
0.0000000e+00 -2.5457526e-03 0.0000000e+00 
0.0000000e+00 -1.0492475e-03 0.0000000e+00 
0.0000000e+00 1.0261489e-03 0.0000000e+00 
0.0000000e+00 3.6804364e-03 0.0000000e+00 
0.0000000e+00 6.9136149e-03 0.0000000e+00 
0.0000000e+00 1.0725684e-02 0.0000000e+00 
0.0000000e+00 1.3003236e-02 0.0000000e+00 
0.0000000e+00 1.1133260e-02 0.0000000e+00 
0.0000000e+00 1.1493589e-02 0.0000000e+00 
0.0000000e+00 1.1733131e-02 0.0000000e+00 
0.0000000e+00 1.0288907e-02 0.0000000e+00 
0.0000000e+00 1.6570592e-02 0.0000000e+00 
0.0000000e+00 1.5398421e-02 0.0000000e+00 
0.0000000e+00 1.3902441e-02 0.0000000e+00 
0.0000000e+00 1.4190704e-02 0.0000000e+00 
0.0000000e+00 1.4382336e-02 0.0000000e+00 
0.0000000e+00 1.3226958e-02 0.0000000e+00 
0.0000000e+00 1.8252306e-02 0.0000000e+00 
0.0000000e+00 1.4463051e-02 0.0000000e+00 
0.0000000e+00 1.3341066e-02 0.0000000e+00 
0.0000000e+00 1.3557264e-02 0.0000000e+00 
0.0000000e+00 1.3700988e-02 0.0000000e+00 
0.0000000e+00 1.2834454e-02 0.0000000e+00 
0.0000000e+00 1.6603466e-02 0.0000000e+00 
0.0000000e+00 1.1029765e-02 0.0000000e+00 
0.0000000e+00 1.0281775e-02 0.0000000e+00 
0.0000000e+00 1.0425907e-02 0.0000000e+00 
0.0000000e+00 1.0521723e-02 0.0000000e+00 
0.0000000e+00 9.9440338e-03 0.0000000e+00 
0.0000000e+00 1.2456708e-02 0.0000000e+00 
0.0000000e+00 5.9312023e-03 0.0000000e+00 
0.0000000e+00 5.5572069e-03 0.0000000e+00 
0.0000000e+00 5.6292727e-03 0.0000000e+00 
0.0000000e+00 5.6771808e-03 0.0000000e+00 
0.0000000e+00 5.3883363e-03 0.0000000e+00 
0.0000000e+00 6.6446732e-03 0.0000000e+00 
0.0000000e+00 -2.2869810e-16 0.0000000e+00 
0.0000000e+00 2.0790738e-17 0.0000000e+00 
0.0000000e+00 7.9004801e-16 0.0000000e+00 
0.0000000e+00 1.1019091e-15 0.0000000e+00 
0.0000000e+00 9.3558315e-16 0.0000000e+00 
0.0000000e+00 1.5430393e-16 0.0000000e+00 
0.0000000e+00 -5.9312023e-03 0.0000000e+00 
0.0000000e+00 -5.5572069e-03 0.0000000e+00 
0.0000000e+00 -5.6292727e-03 0.0000000e+00 
0.0000000e+00 -5.6771808e-03 0.0000000e+00 
0.0000000e+00 -5.3883363e-03 0.0000000e+00 
0.0000000e+00 -6.6446732e-03 0.0000000e+00 
0.0000000e+00 -1.1029765e-02 0.0000000e+00 
0.0000000e+00 -1.0281775e-02 0.0000000e+00 
0.0000000e+00 -1.0425907e-02 0.0000000e+00 
0.0000000e+00 -1.0521723e-02 0.0000000e+00 
0.0000000e+00 -9.9440338e-03 0.0000000e+00 
0.0000000e+00 -1.2456708e-02 0.0000000e+00 
0.0000000e+00 -1.4463051e-02 0.0000000e+00 
0.0000000e+00 -1.3341066e-02 0.0000000e+00 
0.0000000e+00 -1.3557264e-02 0.0000000e+00 
0.0000000e+00 -1.3700988e-02 0.0000000e+00 
0.0000000e+00 -1.2834454e-02 0.0000000e+00 
0.0000000e+00 -1.6603466e-02 0.0000000e+00 
0.0000000e+00 -1.5398421e-02 0.0000000e+00 
0.0000000e+00 -1.3902441e-02 0.0000000e+00 
0.0000000e+00 -1.4190704e-02 0.0000000e+00 
0.0000000e+00 -1.4382336e-02 0.0000000e+00 
0.0000000e+00 -1.3226958e-02 0.0000000e+00 
0.0000000e+00 -1.8252306e-02 0.0000000e+00 
0.0000000e+00 -1.3003236e-02 0.0000000e+00 
0.0000000e+00 -1.1133260e-02 0.0000000e+00 
0.0000000e+00 -1.1493589e-02 0.0000000e+00 
0.0000000e+00 -1.1733131e-02 0.0000000e+00 
0.0000000e+00 -1.0288907e-02 0.0000000e+00 
0.0000000e+00 -1.6570592e-02 0.0000000e+00 
0.0000000e+00 3.2280691e-03 0.0000000e+00 
0.0000000e+00 3.1608960e-03 0.0000000e+00 
0.0000000e+00 2.9593767e-03 0.0000000e+00 
0.0000000e+00 2.6235112e-03 0.0000000e+00 
0.0000000e+00 2.1532995e-03 0.0000000e+00 
0.0000000e+00 1.5487417e-03 0.0000000e+00 
0.0000000e+00 8.0983760e-04 0.0000000e+00 
0.0000000e+00 -6.3412634e-05 0.0000000e+00 
0.0000000e+00 -1.0710091e-03 0.0000000e+00 
0.0000000e+00 -2.2129517e-03 0.0000000e+00 
0.0000000e+00 -3.4892405e-03 0.0000000e+00 
0.0000000e+00 -4.8998757e-03 0.0000000e+00 
0.0000000e+00 -6.4448565e-03 0.0000000e+00 
0.0000000e+00 -3.8203518e-03 0.0000000e+00 
0.0000000e+00 -1.6390299e-03 0.0000000e+00 
0.0000000e+00 9.9108671e-05 0.0000000e+00 
0.0000000e+00 1.3940642e-03 0.0000000e+00 
0.0000000e+00 2.2458364e-03 0.0000000e+00 
0.0000000e+00 2.6544256e-03 0.0000000e+00 
0.0000000e+00 2.6198314e-03 0.0000000e+00 
0.0000000e+00 2.1420543e-03 0.0000000e+00 
0.0000000e+00 1.2210938e-03 0.0000000e+00 
0.0000000e+00 -1.4304975e-04 0.0000000e+00 
0.0000000e+00 -1.9503766e-03 0.0000000e+00 
0.0000000e+00 -4.2008865e-03 0.0000000e+00 
0.0000000e+00 -2.2118378e-03 0.0000000e+00 
0.0000000e+00 -5.9098593e-04 0.0000000e+00 
0.0000000e+00 6.6166936e-04 0.0000000e+00 
0.0000000e+00 1.5461281e-03 0.0000000e+00 
0.0000000e+00 2.0623901e-03 0.0000000e+00 
0.0000000e+00 2.2104555e-03 0.0000000e+00 
0.0000000e+00 1.9903244e-03 0.0000000e+00 
0.0000000e+00 1.4019966e-03 0.0000000e+00 
0.0000000e+00 4.4547219e-04 0.0000000e+00 
0.0000000e+00 -8.7924884e-04 0.0000000e+00 
0.0000000e+00 -2.5721665e-03 0.0000000e+00 
0.0000000e+00 -4.6332809e-03 0.0000000e+00 
0.0000000e+00 -2.4682742e-03 0.0000000e+00 
0.0000000e+00 -7.0126064e-04 0.0000000e+00 
0.0000000e+00 6.6776015e-04 0.0000000e+00 
0.0000000e+00 1.6387881e-03 0.0000000e+00 
0.0000000e+00 2.2118234e-03 0.0000000e+00 
0.0000000e+00 2.3868657e-03 0.0000000e+00 
0.0000000e+00 2.1639152e-03 0.0000000e+00 
0.0000000e+00 1.5429717e-03 0.0000000e+00 
0.0000000e+00 5.2403554e-04 0.0000000e+00 
0.0000000e+00 -8.9289347e-04 0.0000000e+00 
0.0000000e+00 -2.7078153e-03 0.0000000e+00 
0.0000000e+00 -4.9207299e-03 0.0000000e+00 
0.0000000e+00 -2.9164571e-03 0.0000000e+00 
0.0000000e+00 -1.2503389e-03 0.0000000e+00 
0.0000000e+00 7.7624842e-05 0.0000000e+00 
0.0000000e+00 1.0674339e-03 0.0000000e+00 
0.0000000e+00 1.7190882e-03 0.0000000e+00 
0.0000000e+00 2.0325878e-03 0.0000000e+00 
0.0000000e+00 2.0079329e-03 0.0000000e+00 
0.0000000e+00 1.6451231e-03 0.0000000e+00 
0.0000000e+00 9.4415888e-04 0.0000000e+00 
0.0000000e+00 -9.4960116e-05 0.0000000e+00 
0.0000000e+00 -1.4722338e-03 0.0000000e+00 
0.0000000e+00 -3.1876620e-03 0.0000000e+00 
0.0000000e+00 -6.3192949e-04 0.0000000e+00 
0.0000000e+00 1.3449120e-03 0.0000000e+00 
0.0000000e+00 2.7428623e-03 0.0000000e+00 
0.0000000e+00 3.5619217e-03 0.0000000e+00 