# vtk DataFile Version 4.0
vtk output
ASCII
DATASET UNSTRUCTURED_GRID
POINTS 86 float
0.0000000e+00 0.0000000e+00 0.0000000e+00 
0.0000000e+00 0.0000000e+00 6.0000002e-01 
0.0000000e+00 0.0000000e+00 1.2000000e+00 
0.0000000e+00 0.0000000e+00 1.8000000e+00 
0.0000000e+00 0.0000000e+00 2.4000001e+00 
0.0000000e+00 0.0000000e+00 3.0000000e+00 
0.0000000e+00 0.0000000e+00 3.5999999e+00 
0.0000000e+00 0.0000000e+00 4.1999998e+00 
0.0000000e+00 0.0000000e+00 4.8000002e+00 
0.0000000e+00 0.0000000e+00 5.4000001e+00 
0.0000000e+00 0.0000000e+00 6.0000000e+00 
0.0000000e+00 0.0000000e+00 6.5999999e+00 
0.0000000e+00 0.0000000e+00 7.1999998e+00 
0.0000000e+00 0.0000000e+00 7.8000002e+00 
0.0000000e+00 0.0000000e+00 8.3999996e+00 
0.0000000e+00 0.0000000e+00 9.0000000e+00 
0.0000000e+00 0.0000000e+00 9.6000004e+00 
0.0000000e+00 0.0000000e+00 1.0200000e+01 
0.0000000e+00 0.0000000e+00 1.0800000e+01 
0.0000000e+00 0.0000000e+00 1.1400000e+01 
0.0000000e+00 0.0000000e+00 1.2000000e+01 
0.0000000e+00 0.0000000e+00 1.2600000e+01 
0.0000000e+00 0.0000000e+00 1.3200000e+01 
0.0000000e+00 0.0000000e+00 1.3800000e+01 
0.0000000e+00 0.0000000e+00 1.4400000e+01 
0.0000000e+00 0.0000000e+00 1.5000000e+01 
0.0000000e+00 0.0000000e+00 1.5600000e+01 
0.0000000e+00 0.0000000e+00 1.6200001e+01 
0.0000000e+00 0.0000000e+00 1.6799999e+01 
0.0000000e+00 0.0000000e+00 1.7400000e+01 
0.0000000e+00 0.0000000e+00 1.8000000e+01 
6.0000000e+00 0.0000000e+00 0.0000000e+00 
6.0000000e+00 0.0000000e+00 6.0000002e-01 
6.0000000e+00 0.0000000e+00 1.2000000e+00 
6.0000000e+00 0.0000000e+00 1.8000000e+00 
6.0000000e+00 0.0000000e+00 2.4000001e+00 
6.0000000e+00 0.0000000e+00 3.0000000e+00 
6.0000000e+00 0.0000000e+00 3.5999999e+00 
6.0000000e+00 0.0000000e+00 4.1999998e+00 
6.0000000e+00 0.0000000e+00 4.8000002e+00 
6.0000000e+00 0.0000000e+00 5.4000001e+00 
6.0000000e+00 0.0000000e+00 6.0000000e+00 
6.0000000e+00 0.0000000e+00 6.5999999e+00 
6.0000000e+00 0.0000000e+00 7.1999998e+00 
6.0000000e+00 0.0000000e+00 7.8000002e+00 
6.0000000e+00 0.0000000e+00 8.3999996e+00 
6.0000000e+00 0.0000000e+00 9.0000000e+00 
6.0000000e+00 0.0000000e+00 9.6000004e+00 
6.0000000e+00 0.0000000e+00 1.0200000e+01 
6.0000000e+00 0.0000000e+00 1.0800000e+01 
6.0000000e+00 0.0000000e+00 1.1400000e+01 
6.0000000e+00 0.0000000e+00 1.2000000e+01 
6.0000000e+00 0.0000000e+00 1.2600000e+01 
6.0000000e+00 0.0000000e+00 1.3200000e+01 
6.0000000e+00 0.0000000e+00 1.3800000e+01 
6.0000000e+00 0.0000000e+00 1.4400000e+01 
6.0000000e+00 0.0000000e+00 1.5000000e+01 
6.0000000e+00 0.0000000e+00 1.5600000e+01 
6.0000000e+00 0.0000000e+00 1.6200001e+01 
6.0000000e+00 0.0000000e+00 1.6799999e+01 
6.0000000e+00 0.0000000e+00 1.7400000e+01 
6.0000000e+00 0.0000000e+00 1.8000000e+01 
1.2000000e+00 0.0000000e+00 3.0000000e+00 
2.4000001e+00 0.0000000e+00 3.0000000e+00 
3.5999999e+00 0.0000000e+00 3.0000000e+00 
4.8000002e+00 0.0000000e+00 3.0000000e+00 
1.2000000e+00 0.0000000e+00 6.0000000e+00 
2.4000001e+00 0.0000000e+00 6.0000000e+00 
3.5999999e+00 0.0000000e+00 6.0000000e+00 
4.8000002e+00 0.0000000e+00 6.0000000e+00 
1.2000000e+00 0.0000000e+00 9.0000000e+00 
2.4000001e+00 0.0000000e+00 9.0000000e+00 
3.5999999e+00 0.0000000e+00 9.0000000e+00 
4.8000002e+00 0.0000000e+00 9.0000000e+00 
1.2000000e+00 0.0000000e+00 1.2000000e+01 
2.4000001e+00 0.0000000e+00 1.2000000e+01 
3.5999999e+00 0.0000000e+00 1.2000000e+01 
4.8000002e+00 0.0000000e+00 1.2000000e+01 
1.2000000e+00 0.0000000e+00 1.5000000e+01 
2.4000001e+00 0.0000000e+00 1.5000000e+01 
3.5999999e+00 0.0000000e+00 1.5000000e+01 
4.8000002e+00 0.0000000e+00 1.5000000e+01 
1.2000000e+00 0.0000000e+00 1.8000000e+01 
2.4000001e+00 0.0000000e+00 1.8000000e+01 
3.5999999e+00 0.0000000e+00 1.8000000e+01 
4.8000002e+00 0.0000000e+00 1.8000000e+01 

CELLS 90 270
2 0 1
2 1 2
2 2 3
2 3 4
2 4 5
2 5 6
2 6 7
2 7 8
2 8 9
2 9 10
2 10 11
2 11 12
2 12 13
2 13 14
2 14 15
2 15 16
2 16 17
2 17 18
2 18 19
2 19 20
2 20 21
2 21 22
2 22 23
2 23 24
2 24 25
2 25 26
2 26 27
2 27 28
2 28 29
2 29 30
2 31 32
2 32 33
2 33 34
2 34 35
2 35 36
2 36 37
2 37 38
2 38 39
2 39 40
2 40 41
2 41 42
2 42 43
2 43 44
2 44 45
2 45 46
2 46 47
2 47 48
2 48 49
2 49 50
2 50 51
2 51 52
2 52 53
2 53 54
2 54 55
2 55 56
2 56 57
2 57 58
2 58 59
2 59 60
2 60 61
2 5 62
2 62 63
2 63 64
2 64 65
2 65 36
2 10 66
2 66 67
2 67 68
2 68 69
2 69 41
2 15 70
2 70 71
2 71 72
2 72 73
2 73 46
2 20 74
2 74 75
2 75 76
2 76 77
2 77 51
2 25 78
2 78 79
2 79 80
2 80 81
2 81 56
2 30 82
2 82 83
2 83 84
2 84 85
2 85 61

CELL_TYPES 90
3
3
3
3
3
3
3
3
3
3
3
3
3
3
3
3
3
3
3
3
3
3
3
3
3
3
3
3
3
3
3
3
3
3
3
3
3
3
3
3
3
3
3
3
3
3
3
3
3
3
3
3
3
3
3
3
3
3
3
3
3
3
3
3
3
3
3
3
3
3
3
3
3
3
3
3
3
3
3
3
3
3
3
3
3
3
3
3
3
3
POINT_DATA 86
FIELD FieldData 3
ADJOINT_DISPLACEMENT 3 86  float
0.0000000e+00 0.0000000e+00 0.0000000e+00 
-6.2111728e-03 0.0000000e+00 1.6326911e-14 
-1.2470218e-02 0.0000000e+00 3.2653821e-14 
-1.8825009e-02 0.0000000e+00 4.8980734e-14 
-2.5323419e-02 0.0000000e+00 6.5307643e-14 
-3.2013316e-02 0.0000000e+00 8.1634555e-14 
-4.0682681e-02 0.0000000e+00 2.0423086e-04 
-5.2457720e-02 0.0000000e+00 4.0846172e-04 
-6.6393644e-02 0.0000000e+00 6.1269262e-04 
-8.1545681e-02 0.0000000e+00 8.1692345e-04 
-9.6969038e-02 0.0000000e+00 1.0211543e-03 
-1.1943642e-01 0.0000000e+00 2.0491164e-03 
-1.6064157e-01 0.0000000e+00 3.0770784e-03 
-2.2702123e-01 0.0000000e+00 4.1050403e-03 
-3.2501224e-01 0.0000000e+00 5.1330025e-03 
-4.6105132e-01 0.0000000e+00 6.1609643e-03 
-5.9707063e-01 0.0000000e+00 5.1308093e-03 
-6.9500232e-01 0.0000000e+00 4.1006538e-03 
-7.6128298e-01 0.0000000e+00 3.0704986e-03 
-8.0234933e-01 0.0000000e+00 2.0403431e-03 
-8.2463801e-01 0.0000000e+00 1.0101878e-03 
-8.3978289e-01 0.0000000e+00 7.9711061e-04 
-8.5449773e-01 0.0000000e+00 5.8403343e-04 
-8.6783880e-01 0.0000000e+00 3.7095623e-04 
-8.7886268e-01 0.0000000e+00 1.5787903e-04 
-8.8662571e-01 0.0000000e+00 -5.5198168e-05 
-8.9195406e-01 0.0000000e+00 -9.7531389e-05 
-8.9633197e-01 0.0000000e+00 -1.3986460e-04 
-8.9980304e-01 0.0000000e+00 -1.8219782e-04 
-9.0241092e-01 0.0000000e+00 -2.2453103e-04 
-9.0419924e-01 0.0000000e+00 -2.6686426e-04 
0.0000000e+00 0.0000000e+00 0.0000000e+00 
-6.0426788e-03 0.0000000e+00 -1.6435944e-14 
-1.2037486e-02 0.0000000e+00 -3.2871929e-14 
-1.7936546e-02 0.0000000e+00 -4.9308166e-14 
-2.3691989e-02 0.0000000e+00 -6.5744346e-14 
-2.9255943e-02 0.0000000e+00 -8.2180431e-14 
-3.6516584e-02 0.0000000e+00 -2.0423086e-04 
-4.8023868e-02 0.0000000e+00 -4.0846172e-04 
-6.4722568e-02 0.0000000e+00 -6.1269262e-04 
-8.7557480e-02 0.0000000e+00 -8.1692345e-04 
-1.1747337e-01 0.0000000e+00 -1.0211543e-03 
-1.6252472e-01 0.0000000e+00 -2.0491164e-03 
-2.2584493e-01 0.0000000e+00 -3.0770784e-03 
-3.0099726e-01 0.0000000e+00 -4.1050403e-03 
-3.8154486e-01 0.0000000e+00 -5.1330025e-03 
-4.6105105e-01 0.0000000e+00 -6.1609643e-03 
-5.4053748e-01 0.0000000e+00 -5.1308093e-03 
-6.2102604e-01 0.0000000e+00 -4.1006538e-03 
-6.9607997e-01 0.0000000e+00 -3.0704986e-03 
-7.5926262e-01 0.0000000e+00 -2.0403431e-03 
-8.0413729e-01 0.0000000e+00 -1.0101878e-03 
-8.3377761e-01 0.0000000e+00 -7.9711061e-04 
-8.5617727e-01 0.0000000e+00 -5.8403343e-04 
-8.7227982e-01 0.0000000e+00 -3.7095623e-04 
-8.8302886e-01 0.0000000e+00 -1.5787903e-04 
-8.8936794e-01 0.0000000e+00 5.5198168e-05 
-8.9354432e-01 0.0000000e+00 9.7531389e-05 
-8.9714718e-01 0.0000000e+00 1.3986460e-04 
-9.0013278e-01 0.0000000e+00 1.8219782e-04 
-9.0245765e-01 0.0000000e+00 2.2453103e-04 
-9.0407807e-01 0.0000000e+00 2.6686426e-04 
-3.1461842e-02 0.0000000e+00 6.9613303e-03 
-3.0910367e-02 0.0000000e+00 4.5601469e-03 
-3.0358892e-02 0.0000000e+00 -1.3217021e-03 
-2.9807417e-02 0.0000000e+00 -4.8023676e-03 
-1.0106990e-01 0.0000000e+00 9.5143737e-03 
-1.0517077e-01 0.0000000e+00 -1.0166706e-02 
-1.0927164e-01 0.0000000e+00 -3.4298625e-02 
-1.1337250e-01 0.0000000e+00 -3.9157927e-02 
-4.6105126e-01 0.0000000e+00 4.8871791e-01 
-4.6105120e-01 0.0000000e+00 6.8037964e-02 
-4.6105117e-01 0.0000000e+00 -1.1515264e-01 
-4.6105111e-01 0.0000000e+00 -1.2012769e-01 
-8.2053787e-01 0.0000000e+00 9.3141673e-03 
-8.1643772e-01 0.0000000e+00 -1.0267731e-02 
-8.1233758e-01 0.0000000e+00 -3.4203656e-02 
-8.0823743e-01 0.0000000e+00 -3.8961761e-02 
-8.8717419e-01 0.0000000e+00 5.9798826e-03 
-8.8772261e-01 0.0000000e+00 4.0910356e-03 
-8.8827103e-01 0.0000000e+00 -8.0431165e-04 
-8.8881952e-01 0.0000000e+00 -3.7887329e-03 
-9.0417498e-01 0.0000000e+00 1.1706202e-03 
-9.0415078e-01 0.0000000e+00 7.2353863e-04 
-9.0412652e-01 0.0000000e+00 -3.8891233e-04 
-9.0410227e-01 0.0000000e+00 -9.4753603e-04 
ADJOINT_ROTATION 3 86  float
0.0000000e+00 -1.0338657e-02 0.0000000e+00 
0.0000000e+00 -1.0378551e-02 0.0000000e+00 
0.0000000e+00 -1.0498232e-02 0.0000000e+00 
0.0000000e+00 -1.0697702e-02 0.0000000e+00 
0.0000000e+00 -1.0976959e-02 0.0000000e+00 
0.0000000e+00 -1.1336003e-02 0.0000000e+00 
0.0000000e+00 -1.7299442e-02 0.0000000e+00 
0.0000000e+00 -2.1688242e-02 0.0000000e+00 
0.0000000e+00 -2.4502406e-02 0.0000000e+00 
0.0000000e+00 -2.5741933e-02 0.0000000e+00 
0.0000000e+00 -2.5406823e-02 0.0000000e+00 
0.0000000e+00 -5.1272441e-02 0.0000000e+00 
0.0000000e+00 -8.7866023e-02 0.0000000e+00 
0.0000000e+00 -1.3518757e-01 0.0000000e+00 
0.0000000e+00 -1.9323708e-01 0.0000000e+00 
0.0000000e+00 -2.6201454e-01 0.0000000e+00 
0.0000000e+00 -1.9317119e-01 0.0000000e+00 
0.0000000e+00 -1.3505563e-01 0.0000000e+00 
0.0000000e+00 -8.7667868e-02 0.0000000e+00 
0.0000000e+00 -5.1007900e-02 0.0000000e+00 
0.0000000e+00 -2.5075724e-02 0.0000000e+00 
0.0000000e+00 -2.5145188e-02 0.0000000e+00 
0.0000000e+00 -2.3642030e-02 0.0000000e+00 
0.0000000e+00 -2.0566249e-02 0.0000000e+00 
0.0000000e+00 -1.5917847e-02 0.0000000e+00 
0.0000000e+00 -9.6968217e-03 0.0000000e+00 
0.0000000e+00 -8.0764033e-03 0.0000000e+00 
0.0000000e+00 -6.5286928e-03 0.0000000e+00 
0.0000000e+00 -5.0536892e-03 0.0000000e+00 
0.0000000e+00 -3.6513936e-03 0.0000000e+00 
0.0000000e+00 -2.3218053e-03 0.0000000e+00 
0.0000000e+00 -1.0084430e-02 0.0000000e+00 
0.0000000e+00 -1.0044536e-02 0.0000000e+00 
0.0000000e+00 -9.9248542e-03 0.0000000e+00 
0.0000000e+00 -9.7253853e-03 0.0000000e+00 
0.0000000e+00 -9.4461283e-03 0.0000000e+00 
0.0000000e+00 -9.0870829e-03 0.0000000e+00 
0.0000000e+00 -1.5377497e-02 0.0000000e+00 
0.0000000e+00 -2.3242548e-02 0.0000000e+00 
0.0000000e+00 -3.2682236e-02 0.0000000e+00 
0.0000000e+00 -4.3696560e-02 0.0000000e+00 
0.0000000e+00 -5.6285523e-02 0.0000000e+00 
0.0000000e+00 -9.2097625e-02 0.0000000e+00 
0.0000000e+00 -1.1718177e-01 0.0000000e+00 
0.0000000e+00 -1.3153794e-01 0.0000000e+00 
0.0000000e+00 -1.3516615e-01 0.0000000e+00 
0.0000000e+00 -1.2806641e-01 0.0000000e+00 
0.0000000e+00 -1.3510044e-01 0.0000000e+00 
0.0000000e+00 -1.3140668e-01 0.0000000e+00 
0.0000000e+00 -1.1698513e-01 0.0000000e+00 
0.0000000e+00 -9.1835774e-02 0.0000000e+00 
0.0000000e+00 -5.5958632e-02 0.0000000e+00 
0.0000000e+00 -4.3104537e-02 0.0000000e+00 
0.0000000e+00 -3.1823061e-02 0.0000000e+00 
0.0000000e+00 -2.2114210e-02 0.0000000e+00 
0.0000000e+00 -1.3977981e-02 0.0000000e+00 
0.0000000e+00 -7.4143745e-03 0.0000000e+00 
0.0000000e+00 -6.4948001e-03 0.0000000e+00 
0.0000000e+00 -5.5025178e-03 0.0000000e+00 
0.0000000e+00 -4.4375281e-03 0.0000000e+00 
0.0000000e+00 -3.2998307e-03 0.0000000e+00 
0.0000000e+00 -2.0894259e-03 0.0000000e+00 
0.0000000e+00 -1.0831377e-03 0.0000000e+00 
0.0000000e+00 4.2681871e-03 0.0000000e+00 
0.0000000e+00 4.7179712e-03 0.0000000e+00 
0.0000000e+00 2.6621422e-04 0.0000000e+00 
0.0000000e+00 7.9565328e-03 0.0000000e+00 
0.0000000e+00 2.1550341e-02 0.0000000e+00 
0.0000000e+00 1.5374600e-02 0.0000000e+00 
0.0000000e+00 -1.0570688e-02 0.0000000e+00 
0.0000000e+00 -5.3401458e-01 0.0000000e+00 
0.0000000e+00 2.4338026e-01 0.0000000e+00 
0.0000000e+00 7.0169888e-02 0.0000000e+00 
0.0000000e+00 -5.3645667e-02 0.0000000e+00 
0.0000000e+00 7.9674451e-03 0.0000000e+00 
0.0000000e+00 2.1400739e-02 0.0000000e+00 
0.0000000e+00 1.5224158e-02 0.0000000e+00 
0.0000000e+00 -1.0562300e-02 0.0000000e+00 
0.0000000e+00 -1.0446216e-03 0.0000000e+00 
0.0000000e+00 3.5097233e-03 0.0000000e+00 
0.0000000e+00 3.9662127e-03 0.0000000e+00 
0.0000000e+00 3.2484683e-04 0.0000000e+00 
0.0000000e+00 -2.4333500e-04 0.0000000e+00 
0.0000000e+00 8.1913808e-04 0.0000000e+00 
0.0000000e+00 8.6561398e-04 0.0000000e+00 
0.0000000e+00 -1.0390737e-04 0.0000000e+00 
SHAPE_SENSITIVITY 3 86  float
0.0000000e+00 0.0000000e+00 0.0000000e+00 
0.0000000e+00 0.0000000e+00 0.0000000e+00 
0.0000000e+00 0.0000000e+00 0.0000000e+00 
0.0000000e+00 0.0000000e+00 0.0000000e+00 
0.0000000e+00 0.0000000e+00 0.0000000e+00 
0.0000000e+00 0.0000000e+00 0.0000000e+00 
0.0000000e+00 0.0000000e+00 0.0000000e+00 
0.0000000e+00 0.0000000e+00 0.0000000e+00 
0.0000000e+00 0.0000000e+00 0.0000000e+00 
0.0000000e+00 0.0000000e+00 0.0000000e+00 
0.0000000e+00 0.0000000e+00 0.0000000e+00 
0.0000000e+00 0.0000000e+00 0.0000000e+00 
0.0000000e+00 0.0000000e+00 0.0000000e+00 
0.0000000e+00 0.0000000e+00 0.0000000e+00 
0.0000000e+00 0.0000000e+00 0.0000000e+00 
0.0000000e+00 0.0000000e+00 0.0000000e+00 
0.0000000e+00 0.0000000e+00 0.0000000e+00 
0.0000000e+00 0.0000000e+00 0.0000000e+00 
0.0000000e+00 0.0000000e+00 0.0000000e+00 
0.0000000e+00 0.0000000e+00 0.0000000e+00 
0.0000000e+00 0.0000000e+00 0.0000000e+00 
0.0000000e+00 0.0000000e+00 0.0000000e+00 
0.0000000e+00 0.0000000e+00 0.0000000e+00 
0.0000000e+00 0.0000000e+00 0.0000000e+00 
0.0000000e+00 0.0000000e+00 0.0000000e+00 
0.0000000e+00 0.0000000e+00 0.0000000e+00 
0.0000000e+00 0.0000000e+00 0.0000000e+00 
0.0000000e+00 0.0000000e+00 0.0000000e+00 
0.0000000e+00 0.0000000e+00 0.0000000e+00 
0.0000000e+00 0.0000000e+00 0.0000000e+00 
0.0000000e+00 0.0000000e+00 0.0000000e+00 
0.0000000e+00 0.0000000e+00 0.0000000e+00 
0.0000000e+00 0.0000000e+00 0.0000000e+00 
0.0000000e+00 0.0000000e+00 0.0000000e+00 
0.0000000e+00 0.0000000e+00 0.0000000e+00 
0.0000000e+00 0.0000000e+00 0.0000000e+00 
0.0000000e+00 0.0000000e+00 0.0000000e+00 
0.0000000e+00 0.0000000e+00 0.0000000e+00 
0.0000000e+00 0.0000000e+00 0.0000000e+00 
0.0000000e+00 0.0000000e+00 0.0000000e+00 
0.0000000e+00 0.0000000e+00 0.0000000e+00 
0.0000000e+00 0.0000000e+00 0.0000000e+00 
0.0000000e+00 0.0000000e+00 0.0000000e+00 
0.0000000e+00 0.0000000e+00 0.0000000e+00 
0.0000000e+00 0.0000000e+00 0.0000000e+00 
0.0000000e+00 0.0000000e+00 0.0000000e+00 
0.0000000e+00 0.0000000e+00 0.0000000e+00 
0.0000000e+00 0.0000000e+00 0.0000000e+00 
0.0000000e+00 0.0000000e+00 0.0000000e+00 
0.0000000e+00 0.0000000e+00 0.0000000e+00 
0.0000000e+00 0.0000000e+00 0.0000000e+00 
0.0000000e+00 0.0000000e+00 0.0000000e+00 
0.0000000e+00 0.0000000e+00 0.0000000e+00 
0.0000000e+00 0.0000000e+00 0.0000000e+00 
0.0000000e+00 0.0000000e+00 0.0000000e+00 
0.0000000e+00 0.0000000e+00 0.0000000e+00 
0.0000000e+00 0.0000000e+00 0.0000000e+00 
0.0000000e+00 0.0000000e+00 0.0000000e+00 
0.0000000e+00 0.0000000e+00 0.0000000e+00 
0.0000000e+00 0.0000000e+00 0.0000000e+00 
0.0000000e+00 0.0000000e+00 0.0000000e+00 
0.0000000e+00 0.0000000e+00 0.0000000e+00 
0.0000000e+00 0.0000000e+00 0.0000000e+00 
0.0000000e+00 0.0000000e+00 0.0000000e+00 
0.0000000e+00 0.0000000e+00 0.0000000e+00 
0.0000000e+00 0.0000000e+00 0.0000000e+00 
0.0000000e+00 0.0000000e+00 0.0000000e+00 
0.0000000e+00 0.0000000e+00 0.0000000e+00 
0.0000000e+00 0.0000000e+00 0.0000000e+00 
0.0000000e+00 0.0000000e+00 0.0000000e+00 
0.0000000e+00 0.0000000e+00 0.0000000e+00 
0.0000000e+00 0.0000000e+00 0.0000000e+00 
0.0000000e+00 0.0000000e+00 0.0000000e+00 
0.0000000e+00 0.0000000e+00 0.0000000e+00 
0.0000000e+00 0.0000000e+00 0.0000000e+00 
0.0000000e+00 0.0000000e+00 0.0000000e+00 
0.0000000e+00 0.0000000e+00 0.0000000e+00 
0.0000000e+00 0.0000000e+00 0.0000000e+00 
0.0000000e+00 0.0000000e+00 0.0000000e+00 
0.0000000e+00 0.0000000e+00 0.0000000e+00 
0.0000000e+00 0.0000000e+00 0.0000000e+00 
0.0000000e+00 0.0000000e+00 0.0000000e+00 
0.0000000e+00 0.0000000e+00 0.0000000e+00 
0.0000000e+00 0.0000000e+00 0.0000000e+00 
0.0000000e+00 0.0000000e+00 0.0000000e+00 
0.0000000e+00 0.0000000e+00 0.0000000e+00 
CELL_DATA 90
FIELD FieldData 1
I22_SENSITIVITY 1 90  float
-4.9116737e-03
-3.3983760e-02
-9.1490097e-02
-1.7750929e-01
-2.9092526e-01
1.1375817e+00
1.3819757e-01
-3.3921689e-01
-3.2300571e-01
1.5848760e-01
4.7272930e+00
2.3147531e+00
-2.6881802e+00
-1.0281519e+01
-2.0253571e+01
-9.3348608e+00
-2.1997712e+00
2.5505993e+00
5.1094241e+00
5.6697540e+00
1.3892110e-02
-9.2997048e-03
1.6245788e-01
5.0185078e-01
9.8056966e-01
-3.2514680e-02
1.8704731e-02
6.0792062e-02
9.8642334e-02
1.2830287e-01
4.8224051e-03
3.3755783e-02
9.0984486e-02
1.7587046e-01
2.8761497e-01
1.0602694e+00
1.3905555e-01
-1.2030119e+00
-2.9375830e+00
-5.0748811e+00
6.3305283e+00
1.3953240e+00
-8.3038294e-01
-5.3963047e-01
2.0744207e+00
9.4571888e-01
-6.6220969e-02
7.4785703e-01
3.3071604e+00
7.5258031e+00
-7.5437999e-01
-9.8071713e-03
4.9460050e-01
8.1078017e-01
9.5445865e-01
-5.1541240e-03
1.6085468e-02
3.7347283e-02
5.7902817e-02
7.7170283e-02
9.6728334e+00
2.6236322e+00
1.8544655e-01
2.2602458e+00
8.7085838e+00
1.9946474e+01
4.3389544e+00
5.4137599e-01
8.1583481e+00
2.6579500e+01
-1.1549147e+02
-4.5250511e+01
9.9373806e-01
2.5019487e+01
2.9002081e+01
9.7832508e+00
2.0112312e+00
3.0834186e-01
3.9686270e+00
1.2578118e+01
1.4855497e+00
3.6627787e-01
2.2233315e-02
3.3183926e-01
1.2131386e+00
1.6788207e-01
3.0259756e-02
2.2301325e-03
4.7217295e-02
1.2864533e-01
