# vtk DataFile Version 4.0
vtk output
ASCII
DATASET UNSTRUCTURED_GRID
POINTS 212 float
0.0000000e+00 0.0000000e+00 0.0000000e+00 
0.0000000e+00 0.0000000e+00 2.5000000e-01 
0.0000000e+00 0.0000000e+00 5.0000000e-01 
0.0000000e+00 0.0000000e+00 7.5000000e-01 
0.0000000e+00 0.0000000e+00 1.0000000e+00 
0.0000000e+00 0.0000000e+00 1.2500000e+00 
0.0000000e+00 0.0000000e+00 1.5000000e+00 
0.0000000e+00 0.0000000e+00 1.7500000e+00 
0.0000000e+00 0.0000000e+00 2.0000000e+00 
0.0000000e+00 0.0000000e+00 2.2500000e+00 
0.0000000e+00 0.0000000e+00 2.5000000e+00 
0.0000000e+00 0.0000000e+00 2.7500000e+00 
0.0000000e+00 0.0000000e+00 3.0000000e+00 
0.0000000e+00 0.0000000e+00 3.2500000e+00 
0.0000000e+00 0.0000000e+00 3.5000000e+00 
0.0000000e+00 0.0000000e+00 3.7500000e+00 
0.0000000e+00 0.0000000e+00 4.0000000e+00 
0.0000000e+00 0.0000000e+00 4.2500000e+00 
0.0000000e+00 0.0000000e+00 4.5000000e+00 
0.0000000e+00 0.0000000e+00 4.7500000e+00 
0.0000000e+00 0.0000000e+00 5.0000000e+00 
0.0000000e+00 0.0000000e+00 5.2500000e+00 
0.0000000e+00 0.0000000e+00 5.5000000e+00 
0.0000000e+00 0.0000000e+00 5.7500000e+00 
0.0000000e+00 0.0000000e+00 6.0000000e+00 
0.0000000e+00 0.0000000e+00 6.2500000e+00 
0.0000000e+00 0.0000000e+00 6.5000000e+00 
0.0000000e+00 0.0000000e+00 6.7500000e+00 
0.0000000e+00 0.0000000e+00 7.0000000e+00 
0.0000000e+00 0.0000000e+00 7.2500000e+00 
0.0000000e+00 0.0000000e+00 7.5000000e+00 
0.0000000e+00 0.0000000e+00 7.7500000e+00 
0.0000000e+00 0.0000000e+00 8.0000000e+00 
0.0000000e+00 0.0000000e+00 8.2500000e+00 
0.0000000e+00 0.0000000e+00 8.5000000e+00 
0.0000000e+00 0.0000000e+00 8.7500000e+00 
0.0000000e+00 0.0000000e+00 9.0000000e+00 
0.0000000e+00 0.0000000e+00 9.2500000e+00 
0.0000000e+00 0.0000000e+00 9.5000000e+00 
0.0000000e+00 0.0000000e+00 9.7500000e+00 
0.0000000e+00 0.0000000e+00 1.0000000e+01 
0.0000000e+00 0.0000000e+00 1.0250000e+01 
0.0000000e+00 0.0000000e+00 1.0500000e+01 
0.0000000e+00 0.0000000e+00 1.0750000e+01 
0.0000000e+00 0.0000000e+00 1.1000000e+01 
0.0000000e+00 0.0000000e+00 1.1250000e+01 
0.0000000e+00 0.0000000e+00 1.1500000e+01 
0.0000000e+00 0.0000000e+00 1.1750000e+01 
0.0000000e+00 0.0000000e+00 1.2000000e+01 
0.0000000e+00 0.0000000e+00 1.2250000e+01 
0.0000000e+00 0.0000000e+00 1.2500000e+01 
0.0000000e+00 0.0000000e+00 1.2750000e+01 
0.0000000e+00 0.0000000e+00 1.3000000e+01 
0.0000000e+00 0.0000000e+00 1.3250000e+01 
0.0000000e+00 0.0000000e+00 1.3500000e+01 
0.0000000e+00 0.0000000e+00 1.3750000e+01 
0.0000000e+00 0.0000000e+00 1.4000000e+01 
0.0000000e+00 0.0000000e+00 1.4250000e+01 
0.0000000e+00 0.0000000e+00 1.4500000e+01 
0.0000000e+00 0.0000000e+00 1.4750000e+01 
0.0000000e+00 0.0000000e+00 1.5000000e+01 
0.0000000e+00 0.0000000e+00 1.5250000e+01 
0.0000000e+00 0.0000000e+00 1.5500000e+01 
0.0000000e+00 0.0000000e+00 1.5750000e+01 
0.0000000e+00 0.0000000e+00 1.6000000e+01 
0.0000000e+00 0.0000000e+00 1.6250000e+01 
0.0000000e+00 0.0000000e+00 1.6500000e+01 
0.0000000e+00 0.0000000e+00 1.6750000e+01 
0.0000000e+00 0.0000000e+00 1.7000000e+01 
0.0000000e+00 0.0000000e+00 1.7250000e+01 
0.0000000e+00 0.0000000e+00 1.7500000e+01 
0.0000000e+00 0.0000000e+00 1.7750000e+01 
0.0000000e+00 0.0000000e+00 1.8000000e+01 
5.0000000e-01 0.0000000e+00 3.0000000e+00 
5.0000000e-01 0.0000000e+00 6.0000000e+00 
5.0000000e-01 0.0000000e+00 9.0000000e+00 
5.0000000e-01 0.0000000e+00 1.2000000e+01 
5.0000000e-01 0.0000000e+00 1.5000000e+01 
5.0000000e-01 0.0000000e+00 1.8000000e+01 
1.0000000e+00 0.0000000e+00 3.0000000e+00 
1.0000000e+00 0.0000000e+00 6.0000000e+00 
1.0000000e+00 0.0000000e+00 9.0000000e+00 
1.0000000e+00 0.0000000e+00 1.2000000e+01 
1.0000000e+00 0.0000000e+00 1.5000000e+01 
1.0000000e+00 0.0000000e+00 1.8000000e+01 
1.5000000e+00 0.0000000e+00 3.0000000e+00 
1.5000000e+00 0.0000000e+00 6.0000000e+00 
1.5000000e+00 0.0000000e+00 9.0000000e+00 
1.5000000e+00 0.0000000e+00 1.2000000e+01 
1.5000000e+00 0.0000000e+00 1.5000000e+01 
1.5000000e+00 0.0000000e+00 1.8000000e+01 
2.0000000e+00 0.0000000e+00 3.0000000e+00 
2.0000000e+00 0.0000000e+00 6.0000000e+00 
2.0000000e+00 0.0000000e+00 9.0000000e+00 
2.0000000e+00 0.0000000e+00 1.2000000e+01 
2.0000000e+00 0.0000000e+00 1.5000000e+01 
2.0000000e+00 0.0000000e+00 1.8000000e+01 
2.5000000e+00 0.0000000e+00 3.0000000e+00 
2.5000000e+00 0.0000000e+00 6.0000000e+00 
2.5000000e+00 0.0000000e+00 9.0000000e+00 
2.5000000e+00 0.0000000e+00 1.2000000e+01 
2.5000000e+00 0.0000000e+00 1.5000000e+01 
2.5000000e+00 0.0000000e+00 1.8000000e+01 
3.0000000e+00 0.0000000e+00 3.0000000e+00 
3.0000000e+00 0.0000000e+00 6.0000000e+00 
3.0000000e+00 0.0000000e+00 9.0000000e+00 
3.0000000e+00 0.0000000e+00 1.2000000e+01 
3.0000000e+00 0.0000000e+00 1.5000000e+01 
3.0000000e+00 0.0000000e+00 1.8000000e+01 
3.5000000e+00 0.0000000e+00 3.0000000e+00 
3.5000000e+00 0.0000000e+00 6.0000000e+00 
3.5000000e+00 0.0000000e+00 9.0000000e+00 
3.5000000e+00 0.0000000e+00 1.2000000e+01 
3.5000000e+00 0.0000000e+00 1.5000000e+01 
3.5000000e+00 0.0000000e+00 1.8000000e+01 
4.0000000e+00 0.0000000e+00 3.0000000e+00 
4.0000000e+00 0.0000000e+00 6.0000000e+00 
4.0000000e+00 0.0000000e+00 9.0000000e+00 
4.0000000e+00 0.0000000e+00 1.2000000e+01 
4.0000000e+00 0.0000000e+00 1.5000000e+01 
4.0000000e+00 0.0000000e+00 1.8000000e+01 
4.5000000e+00 0.0000000e+00 3.0000000e+00 
4.5000000e+00 0.0000000e+00 6.0000000e+00 
4.5000000e+00 0.0000000e+00 9.0000000e+00 
4.5000000e+00 0.0000000e+00 1.2000000e+01 
4.5000000e+00 0.0000000e+00 1.5000000e+01 
4.5000000e+00 0.0000000e+00 1.8000000e+01 
5.0000000e+00 0.0000000e+00 3.0000000e+00 
5.0000000e+00 0.0000000e+00 6.0000000e+00 
5.0000000e+00 0.0000000e+00 9.0000000e+00 
5.0000000e+00 0.0000000e+00 1.2000000e+01 
5.0000000e+00 0.0000000e+00 1.5000000e+01 
5.0000000e+00 0.0000000e+00 1.8000000e+01 
5.5000000e+00 0.0000000e+00 3.0000000e+00 
5.5000000e+00 0.0000000e+00 6.0000000e+00 
5.5000000e+00 0.0000000e+00 9.0000000e+00 
5.5000000e+00 0.0000000e+00 1.2000000e+01 
5.5000000e+00 0.0000000e+00 1.5000000e+01 
5.5000000e+00 0.0000000e+00 1.8000000e+01 
6.0000000e+00 0.0000000e+00 0.0000000e+00 
6.0000000e+00 0.0000000e+00 2.5000000e-01 
6.0000000e+00 0.0000000e+00 5.0000000e-01 
6.0000000e+00 0.0000000e+00 7.5000000e-01 
6.0000000e+00 0.0000000e+00 1.0000000e+00 
6.0000000e+00 0.0000000e+00 1.2500000e+00 
6.0000000e+00 0.0000000e+00 1.5000000e+00 
6.0000000e+00 0.0000000e+00 1.7500000e+00 
6.0000000e+00 0.0000000e+00 2.0000000e+00 
6.0000000e+00 0.0000000e+00 2.2500000e+00 
6.0000000e+00 0.0000000e+00 2.5000000e+00 
6.0000000e+00 0.0000000e+00 2.7500000e+00 
6.0000000e+00 0.0000000e+00 3.0000000e+00 
6.0000000e+00 0.0000000e+00 3.2500000e+00 
6.0000000e+00 0.0000000e+00 3.5000000e+00 
6.0000000e+00 0.0000000e+00 3.7500000e+00 
6.0000000e+00 0.0000000e+00 4.0000000e+00 
6.0000000e+00 0.0000000e+00 4.2500000e+00 
6.0000000e+00 0.0000000e+00 4.5000000e+00 
6.0000000e+00 0.0000000e+00 4.7500000e+00 
6.0000000e+00 0.0000000e+00 5.0000000e+00 
6.0000000e+00 0.0000000e+00 5.2500000e+00 
6.0000000e+00 0.0000000e+00 5.5000000e+00 
6.0000000e+00 0.0000000e+00 5.7500000e+00 
6.0000000e+00 0.0000000e+00 6.0000000e+00 
6.0000000e+00 0.0000000e+00 6.2500000e+00 
6.0000000e+00 0.0000000e+00 6.5000000e+00 
6.0000000e+00 0.0000000e+00 6.7500000e+00 
6.0000000e+00 0.0000000e+00 7.0000000e+00 
6.0000000e+00 0.0000000e+00 7.2500000e+00 
6.0000000e+00 0.0000000e+00 7.5000000e+00 
6.0000000e+00 0.0000000e+00 7.7500000e+00 
6.0000000e+00 0.0000000e+00 8.0000000e+00 
6.0000000e+00 0.0000000e+00 8.2500000e+00 
6.0000000e+00 0.0000000e+00 8.5000000e+00 
6.0000000e+00 0.0000000e+00 8.7500000e+00 
6.0000000e+00 0.0000000e+00 9.0000000e+00 
6.0000000e+00 0.0000000e+00 9.2500000e+00 
6.0000000e+00 0.0000000e+00 9.5000000e+00 
6.0000000e+00 0.0000000e+00 9.7500000e+00 
6.0000000e+00 0.0000000e+00 1.0000000e+01 
6.0000000e+00 0.0000000e+00 1.0250000e+01 
6.0000000e+00 0.0000000e+00 1.0500000e+01 
6.0000000e+00 0.0000000e+00 1.0750000e+01 
6.0000000e+00 0.0000000e+00 1.1000000e+01 
6.0000000e+00 0.0000000e+00 1.1250000e+01 
6.0000000e+00 0.0000000e+00 1.1500000e+01 
6.0000000e+00 0.0000000e+00 1.1750000e+01 
6.0000000e+00 0.0000000e+00 1.2000000e+01 
6.0000000e+00 0.0000000e+00 1.2250000e+01 
6.0000000e+00 0.0000000e+00 1.2500000e+01 
6.0000000e+00 0.0000000e+00 1.2750000e+01 
6.0000000e+00 0.0000000e+00 1.3000000e+01 
6.0000000e+00 0.0000000e+00 1.3250000e+01 
6.0000000e+00 0.0000000e+00 1.3500000e+01 
6.0000000e+00 0.0000000e+00 1.3750000e+01 
6.0000000e+00 0.0000000e+00 1.4000000e+01 
6.0000000e+00 0.0000000e+00 1.4250000e+01 
6.0000000e+00 0.0000000e+00 1.4500000e+01 
6.0000000e+00 0.0000000e+00 1.4750000e+01 
6.0000000e+00 0.0000000e+00 1.5000000e+01 
6.0000000e+00 0.0000000e+00 1.5250000e+01 
6.0000000e+00 0.0000000e+00 1.5500000e+01 
6.0000000e+00 0.0000000e+00 1.5750000e+01 
6.0000000e+00 0.0000000e+00 1.6000000e+01 
6.0000000e+00 0.0000000e+00 1.6250000e+01 
6.0000000e+00 0.0000000e+00 1.6500000e+01 
6.0000000e+00 0.0000000e+00 1.6750000e+01 
6.0000000e+00 0.0000000e+00 1.7000000e+01 
6.0000000e+00 0.0000000e+00 1.7250000e+01 
6.0000000e+00 0.0000000e+00 1.7500000e+01 
6.0000000e+00 0.0000000e+00 1.7750000e+01 
6.0000000e+00 0.0000000e+00 1.8000000e+01 

CELLS 216 648
2 0 1
2 1 2
2 2 3
2 3 4
2 4 5
2 5 6
2 6 7
2 7 8
2 8 9
2 9 10
2 10 11
2 11 12
2 12 13
2 13 14
2 14 15
2 15 16
2 16 17
2 17 18
2 18 19
2 19 20
2 20 21
2 21 22
2 22 23
2 23 24
2 24 25
2 25 26
2 26 27
2 27 28
2 28 29
2 29 30
2 30 31
2 31 32
2 32 33
2 33 34
2 34 35
2 35 36
2 36 37
2 37 38
2 38 39
2 39 40
2 40 41
2 41 42
2 42 43
2 43 44
2 44 45
2 45 46
2 46 47
2 47 48
2 48 49
2 49 50
2 50 51
2 51 52
2 52 53
2 53 54
2 54 55
2 55 56
2 56 57
2 57 58
2 58 59
2 59 60
2 60 61
2 61 62
2 62 63
2 63 64
2 64 65
2 65 66
2 66 67
2 67 68
2 68 69
2 69 70
2 70 71
2 71 72
2 139 140
2 140 141
2 141 142
2 142 143
2 143 144
2 144 145
2 145 146
2 146 147
2 147 148
2 148 149
2 149 150
2 150 151
2 151 152
2 152 153
2 153 154
2 154 155
2 155 156
2 156 157
2 157 158
2 158 159
2 159 160
2 160 161
2 161 162
2 162 163
2 163 164
2 164 165
2 165 166
2 166 167
2 167 168
2 168 169
2 169 170
2 170 171
2 171 172
2 172 173
2 173 174
2 174 175
2 175 176
2 176 177
2 177 178
2 178 179
2 179 180
2 180 181
2 181 182
2 182 183
2 183 184
2 184 185
2 185 186
2 186 187
2 187 188
2 188 189
2 189 190
2 190 191
2 191 192
2 192 193
2 193 194
2 194 195
2 195 196
2 196 197
2 197 198
2 198 199
2 199 200
2 200 201
2 201 202
2 202 203
2 203 204
2 204 205
2 205 206
2 206 207
2 207 208
2 208 209
2 209 210
2 210 211
2 12 73
2 73 79
2 79 85
2 85 91
2 91 97
2 97 103
2 103 109
2 109 115
2 115 121
2 121 127
2 127 133
2 133 151
2 24 74
2 74 80
2 80 86
2 86 92
2 92 98
2 98 104
2 104 110
2 110 116
2 116 122
2 122 128
2 128 134
2 134 163
2 36 75
2 75 81
2 81 87
2 87 93
2 93 99
2 99 105
2 105 111
2 111 117
2 117 123
2 123 129
2 129 135
2 135 175
2 48 76
2 76 82
2 82 88
2 88 94
2 94 100
2 100 106
2 106 112
2 112 118
2 118 124
2 124 130
2 130 136
2 136 187
2 60 77
2 77 83
2 83 89
2 89 95
2 95 101
2 101 107
2 107 113
2 113 119
2 119 125
2 125 131
2 131 137
2 137 199
2 72 78
2 78 84
2 84 90
2 90 96
2 96 102
2 102 108
2 108 114
2 114 120
2 120 126
2 126 132
2 132 138
2 138 211

CELL_TYPES 216
3
3
3
3
3
3
3
3
3
3
3
3
3
3
3
3
3
3
3
3
3
3
3
3
3
3
3
3
3
3
3
3
3
3
3
3
3
3
3
3
3
3
3
3
3
3
3
3
3
3
3
3
3
3
3
3
3
3
3
3
3
3
3
3
3
3
3
3
3
3
3
3
3
3
3
3
3
3
3
3
3
3
3
3
3
3
3
3
3
3
3
3
3
3
3
3
3
3
3
3
3
3
3
3
3
3
3
3
3
3
3
3
3
3
3
3
3
3
3
3
3
3
3
3
3
3
3
3
3
3
3
3
3
3
3
3
3
3
3
3
3
3
3
3
3
3
3
3
3
3
3
3
3
3
3
3
3
3
3
3
3
3
3
3
3
3
3
3
3
3
3
3
3
3
3
3
3
3
3
3
3
3
3
3
3
3
3
3
3
3
3
3
3
3
3
3
3
3
3
3
3
3
3
3
3
3
3
3
3
3
3
3
3
3
3
3
POINT_DATA 212
FIELD FieldData 8
DISPLACEMENT 3 212  float
0.0000000e+00 0.0000000e+00 0.0000000e+00 
-3.6405443e-05 0.0000000e+00 -5.8209389e-06 
-7.1288443e-05 0.0000000e+00 -1.1601460e-05 
-1.0312656e-04 0.0000000e+00 -1.7341563e-05 
-1.3039734e-04 0.0000000e+00 -2.3041248e-05 
-1.5157835e-04 0.0000000e+00 -2.8700515e-05 
-1.6514715e-04 0.0000000e+00 -3.4319364e-05 
-1.6958130e-04 0.0000000e+00 -3.9897797e-05 
-1.6335833e-04 0.0000000e+00 -4.5435809e-05 
-1.4495582e-04 0.0000000e+00 -5.0933406e-05 
-1.1285132e-04 0.0000000e+00 -5.6390581e-05 
-6.5522399e-05 0.0000000e+00 -6.1807339e-05 
-1.4465959e-06 0.0000000e+00 -6.7183682e-05 
5.6258581e-05 0.0000000e+00 -7.2031100e-05 
8.6800414e-05 0.0000000e+00 -7.6838092e-05 
9.5188501e-05 0.0000000e+00 -8.1604674e-05 
8.6432468e-05 0.0000000e+00 -8.6330831e-05 
6.5541899e-05 0.0000000e+00 -9.1016576e-05 
3.7526421e-05 0.0000000e+00 -9.5661897e-05 
7.3956326e-06 0.0000000e+00 -1.0026681e-04 
-1.9840856e-05 0.0000000e+00 -1.0483130e-04 
-3.9173439e-05 0.0000000e+00 -1.0935537e-04 
-4.5592507e-05 0.0000000e+00 -1.1383902e-04 
-3.4088451e-05 0.0000000e+00 -1.1828225e-04 
3.4833241e-07 0.0000000e+00 -1.2268507e-04 
3.6308717e-05 0.0000000e+00 -1.2655897e-04 
5.1823772e-05 0.0000000e+00 -1.3039244e-04 
5.1063424e-05 0.0000000e+00 -1.3418548e-04 
3.8197584e-05 0.0000000e+00 -1.3793813e-04 
1.7396169e-05 0.0000000e+00 -1.4165034e-04 
-7.1709019e-06 0.0000000e+00 -1.4532213e-04 
-3.1333711e-05 0.0000000e+00 -1.4895352e-04 
-5.0922339e-05 0.0000000e+00 -1.5254448e-04 
-6.1766870e-05 0.0000000e+00 -1.5609503e-04 
-5.9697391e-05 0.0000000e+00 -1.5960516e-04 
-4.0543979e-05 0.0000000e+00 -1.6307487e-04 
-1.3671537e-07 0.0000000e+00 -1.6650416e-04 
3.9672581e-05 0.0000000e+00 -1.6940452e-04 
5.7251807e-05 0.0000000e+00 -1.7226447e-04 
5.7100449e-05 0.0000000e+00 -1.7508400e-04 
4.3717992e-05 0.0000000e+00 -1.7786311e-04 
2.1603912e-05 0.0000000e+00 -1.8060181e-04 
-4.7423009e-06 0.0000000e+00 -1.8330009e-04 
-3.0821164e-05 0.0000000e+00 -1.8595794e-04 
-5.2133197e-05 0.0000000e+00 -1.8857537e-04 
-6.4178916e-05 0.0000000e+00 -1.9115240e-04 
-6.2458828e-05 0.0000000e+00 -1.9368900e-04 
-4.2473464e-05 0.0000000e+00 -1.9618520e-04 
2.7666744e-07 0.0000000e+00 -1.9864096e-04 
4.4236909e-05 0.0000000e+00 -2.0056780e-04 
6.7407978e-05 0.0000000e+00 -2.0245422e-04 
7.3622425e-05 0.0000000e+00 -2.0430022e-04 
6.6712804e-05 0.0000000e+00 -2.0610580e-04 
5.0511651e-05 0.0000000e+00 -2.0787098e-04 
2.8851528e-05 0.0000000e+00 -2.0959573e-04 
5.5649743e-06 0.0000000e+00 -2.1128006e-04 
-1.5515456e-05 0.0000000e+00 -2.1292397e-04 
-3.0557214e-05 0.0000000e+00 -2.1452748e-04 
-3.5727753e-05 0.0000000e+00 -2.1609056e-04 
-2.7194523e-05 0.0000000e+00 -2.1761321e-04 
-1.1249751e-06 0.0000000e+00 -2.1909545e-04 
2.0009218e-05 0.0000000e+00 -2.2004877e-04 
1.5544298e-05 0.0000000e+00 -2.2096167e-04 
-7.9753272e-06 0.0000000e+00 -2.2183415e-04 
-4.4005239e-05 0.0000000e+00 -2.2266620e-04 
-8.6001019e-05 0.0000000e+00 -2.2345786e-04 
-1.2741826e-04 0.0000000e+00 -2.2420908e-04 
-1.6171255e-04 0.0000000e+00 -2.2491989e-04 
-1.8233947e-04 0.0000000e+00 -2.2559028e-04 
-1.8275461e-04 0.0000000e+00 -2.2622025e-04 
-1.5641353e-04 0.0000000e+00 -2.2680980e-04 
-9.6771859e-05 0.0000000e+00 -2.2735893e-04 
2.7148483e-06 0.0000000e+00 -2.2786765e-04 
-1.2054966e-06 0.0000000e+00 -2.9593075e-04 
2.9027703e-07 0.0000000e+00 -3.0489534e-04 
-1.1392947e-07 0.0000000e+00 -3.5760819e-04 
2.3055621e-07 0.0000000e+00 -3.9562667e-04 
-9.3747929e-07 0.0000000e+00 -3.8029978e-04 
2.2623738e-06 0.0000000e+00 -5.4577697e-04 
-9.6439726e-07 0.0000000e+00 -6.2439946e-04 
2.3222161e-07 0.0000000e+00 -5.9528853e-04 
-9.1143583e-08 0.0000000e+00 -6.5527804e-04 
1.8444497e-07 0.0000000e+00 -6.9810881e-04 
-7.4998343e-07 0.0000000e+00 -6.5350626e-04 
1.8098989e-06 0.0000000e+00 -9.4719668e-04 
-7.2329794e-07 0.0000000e+00 -9.6780260e-04 
1.7416620e-07 0.0000000e+00 -9.0907729e-04 
-6.8357686e-08 0.0000000e+00 -9.7472651e-04 
1.3833372e-07 0.0000000e+00 -1.0213002e-03 
-5.6248757e-07 0.0000000e+00 -9.5392764e-04 
1.3574241e-06 0.0000000e+00 -1.3473395e-03 
-4.8219863e-07 0.0000000e+00 -1.2601946e-03 
1.1611080e-07 0.0000000e+00 -1.1803162e-03 
-4.5571792e-08 0.0000000e+00 -1.2500080e-03 
9.2222479e-08 0.0000000e+00 -1.2992552e-03 
-3.7499171e-07 0.0000000e+00 -1.2156183e-03 
9.0494945e-07 0.0000000e+00 -1.6802597e-03 
-2.4109931e-07 0.0000000e+00 -1.4544714e-03 
5.8055402e-08 0.0000000e+00 -1.3619012e-03 
-2.2785898e-08 0.0000000e+00 -1.4340185e-03 
4.6111239e-08 0.0000000e+00 -1.4848697e-03 
-1.8749586e-07 0.0000000e+00 -1.3914744e-03 
4.5247472e-07 0.0000000e+00 -1.8988535e-03 
-1.4103883e-15 0.0000000e+00 -1.5223705e-03 
-2.0585967e-15 0.0000000e+00 -1.4255696e-03 
-2.4804797e-15 0.0000000e+00 -1.4984956e-03 
-2.7679855e-15 0.0000000e+00 -1.5498815e-03 
-2.8488007e-15 0.0000000e+00 -1.4532333e-03 
-2.8792257e-15 0.0000000e+00 -1.9748583e-03 
2.4109931e-07 0.0000000e+00 -1.4544714e-03 
-5.8055406e-08 0.0000000e+00 -1.3619012e-03 
2.2785892e-08 0.0000000e+00 -1.4340185e-03 
-4.6111246e-08 0.0000000e+00 -1.4848697e-03 
1.8749586e-07 0.0000000e+00 -1.3914744e-03 
-4.5247472e-07 0.0000000e+00 -1.8988535e-03 
4.8219863e-07 0.0000000e+00 -1.2601946e-03 
-1.1611081e-07 0.0000000e+00 -1.1803162e-03 
4.5571788e-08 0.0000000e+00 -1.2500080e-03 
-9.2222486e-08 0.0000000e+00 -1.2992552e-03 
3.7499171e-07 0.0000000e+00 -1.2156183e-03 
-9.0494945e-07 0.0000000e+00 -1.6802597e-03 
7.2329794e-07 0.0000000e+00 -9.6780260e-04 
-1.7416622e-07 0.0000000e+00 -9.0907729e-04 
6.8357679e-08 0.0000000e+00 -9.7472651e-04 
-1.3833373e-07 0.0000000e+00 -1.0213002e-03 
5.6248757e-07 0.0000000e+00 -9.5392764e-04 
-1.3574241e-06 0.0000000e+00 -1.3473395e-03 
9.6439726e-07 0.0000000e+00 -6.2439946e-04 
-2.3222162e-07 0.0000000e+00 -5.9528853e-04 
9.1143576e-08 0.0000000e+00 -6.5527804e-04 
-1.8444497e-07 0.0000000e+00 -6.9810881e-04 
7.4998343e-07 0.0000000e+00 -6.5350626e-04 
-1.8098989e-06 0.0000000e+00 -9.4719668e-04 
1.2054966e-06 0.0000000e+00 -2.9593075e-04 
-2.9027703e-07 0.0000000e+00 -3.0489534e-04 
1.1392947e-07 0.0000000e+00 -3.5760819e-04 
-2.3055621e-07 0.0000000e+00 -3.9562667e-04 
9.3747929e-07 0.0000000e+00 -3.8029978e-04 
-2.2623738e-06 0.0000000e+00 -5.4577697e-04 
0.0000000e+00 0.0000000e+00 0.0000000e+00 
3.6405443e-05 0.0000000e+00 -5.8209389e-06 
7.1288443e-05 0.0000000e+00 -1.1601460e-05 
1.0312656e-04 0.0000000e+00 -1.7341563e-05 
1.3039734e-04 0.0000000e+00 -2.3041248e-05 
1.5157835e-04 0.0000000e+00 -2.8700515e-05 
1.6514715e-04 0.0000000e+00 -3.4319364e-05 
1.6958130e-04 0.0000000e+00 -3.9897797e-05 
1.6335833e-04 0.0000000e+00 -4.5435809e-05 
1.4495582e-04 0.0000000e+00 -5.0933406e-05 
1.1285132e-04 0.0000000e+00 -5.6390581e-05 
6.5522399e-05 0.0000000e+00 -6.1807339e-05 
1.4465959e-06 0.0000000e+00 -6.7183682e-05 
-5.6258581e-05 0.0000000e+00 -7.2031100e-05 
-8.6800414e-05 0.0000000e+00 -7.6838092e-05 
-9.5188501e-05 0.0000000e+00 -8.1604674e-05 
-8.6432468e-05 0.0000000e+00 -8.6330831e-05 
-6.5541899e-05 0.0000000e+00 -9.1016576e-05 
-3.7526421e-05 0.0000000e+00 -9.5661897e-05 
-7.3956326e-06 0.0000000e+00 -1.0026681e-04 
1.9840856e-05 0.0000000e+00 -1.0483130e-04 
3.9173439e-05 0.0000000e+00 -1.0935537e-04 
4.5592507e-05 0.0000000e+00 -1.1383902e-04 
3.4088451e-05 0.0000000e+00 -1.1828225e-04 
-3.4833243e-07 0.0000000e+00 -1.2268507e-04 
-3.6308717e-05 0.0000000e+00 -1.2655897e-04 
-5.1823772e-05 0.0000000e+00 -1.3039244e-04 
-5.1063424e-05 0.0000000e+00 -1.3418548e-04 
-3.8197584e-05 0.0000000e+00 -1.3793813e-04 
-1.7396169e-05 0.0000000e+00 -1.4165034e-04 
7.1709019e-06 0.0000000e+00 -1.4532213e-04 
3.1333711e-05 0.0000000e+00 -1.4895352e-04 
5.0922339e-05 0.0000000e+00 -1.5254448e-04 
6.1766870e-05 0.0000000e+00 -1.5609503e-04 
5.9697391e-05 0.0000000e+00 -1.5960516e-04 
4.0543979e-05 0.0000000e+00 -1.6307487e-04 
1.3671537e-07 0.0000000e+00 -1.6650416e-04 
-3.9672581e-05 0.0000000e+00 -1.6940452e-04 
-5.7251807e-05 0.0000000e+00 -1.7226447e-04 
-5.7100449e-05 0.0000000e+00 -1.7508400e-04 
-4.3717992e-05 0.0000000e+00 -1.7786311e-04 
-2.1603912e-05 0.0000000e+00 -1.8060181e-04 
4.7423009e-06 0.0000000e+00 -1.8330009e-04 
3.0821164e-05 0.0000000e+00 -1.8595794e-04 
5.2133197e-05 0.0000000e+00 -1.8857537e-04 
6.4178916e-05 0.0000000e+00 -1.9115240e-04 
6.2458828e-05 0.0000000e+00 -1.9368900e-04 
4.2473464e-05 0.0000000e+00 -1.9618520e-04 
-2.7666746e-07 0.0000000e+00 -1.9864096e-04 
-4.4236909e-05 0.0000000e+00 -2.0056780e-04 
-6.7407978e-05 0.0000000e+00 -2.0245422e-04 
-7.3622425e-05 0.0000000e+00 -2.0430022e-04 
-6.6712804e-05 0.0000000e+00 -2.0610580e-04 
-5.0511651e-05 0.0000000e+00 -2.0787098e-04 
-2.8851528e-05 0.0000000e+00 -2.0959573e-04 
-5.5649743e-06 0.0000000e+00 -2.1128006e-04 
1.5515456e-05 0.0000000e+00 -2.1292397e-04 
3.0557214e-05 0.0000000e+00 -2.1452748e-04 
3.5727753e-05 0.0000000e+00 -2.1609056e-04 
2.7194523e-05 0.0000000e+00 -2.1761321e-04 
1.1249751e-06 0.0000000e+00 -2.1909545e-04 
-2.0009218e-05 0.0000000e+00 -2.2004877e-04 
-1.5544298e-05 0.0000000e+00 -2.2096167e-04 
7.9753272e-06 0.0000000e+00 -2.2183415e-04 
4.4005239e-05 0.0000000e+00 -2.2266620e-04 
8.6001019e-05 0.0000000e+00 -2.2345786e-04 
1.2741826e-04 0.0000000e+00 -2.2420908e-04 
1.6171255e-04 0.0000000e+00 -2.2491989e-04 
1.8233947e-04 0.0000000e+00 -2.2559028e-04 
1.8275461e-04 0.0000000e+00 -2.2622025e-04 
1.5641353e-04 0.0000000e+00 -2.2680980e-04 
9.6771859e-05 0.0000000e+00 -2.2735893e-04 
-2.7148483e-06 0.0000000e+00 -2.2786765e-04 
ROTATION 3 212  float
0.0000000e+00 -1.4663674e-04 0.0000000e+00 
0.0000000e+00 -1.4359185e-04 0.0000000e+00 
0.0000000e+00 -1.3445719e-04 0.0000000e+00 
0.0000000e+00 -1.1923276e-04 0.0000000e+00 
0.0000000e+00 -9.7918557e-05 0.0000000e+00 
0.0000000e+00 -7.0514579e-05 0.0000000e+00 
0.0000000e+00 -3.7020833e-05 0.0000000e+00 
0.0000000e+00 2.5626875e-06 0.0000000e+00 
0.0000000e+00 4.8235983e-05 0.0000000e+00 
0.0000000e+00 9.9999052e-05 0.0000000e+00 
0.0000000e+00 1.5785189e-04 0.0000000e+00 
0.0000000e+00 2.2179450e-04 0.0000000e+00 
0.0000000e+00 2.9182687e-04 0.0000000e+00 
0.0000000e+00 1.7315427e-04 0.0000000e+00 
0.0000000e+00 7.4520103e-05 0.0000000e+00 
0.0000000e+00 -4.0756349e-06 0.0000000e+00 
0.0000000e+00 -6.2632949e-05 0.0000000e+00 
0.0000000e+00 -1.0115183e-04 0.0000000e+00 
0.0000000e+00 -1.1963228e-04 0.0000000e+00 
0.0000000e+00 -1.1807429e-04 0.0000000e+00 
0.0000000e+00 -9.6477881e-05 0.0000000e+00 
0.0000000e+00 -5.4843040e-05 0.0000000e+00 
0.0000000e+00 6.8302352e-06 0.0000000e+00 
0.0000000e+00 8.8541943e-05 0.0000000e+00 
0.0000000e+00 1.9029208e-04 0.0000000e+00 
0.0000000e+00 1.0017094e-04 0.0000000e+00 
0.0000000e+00 2.6729471e-05 0.0000000e+00 
0.0000000e+00 -3.0032328e-05 0.0000000e+00 
0.0000000e+00 -7.0114453e-05 0.0000000e+00 
0.0000000e+00 -9.3516916e-05 0.0000000e+00 
0.0000000e+00 -1.0023970e-04 0.0000000e+00 
0.0000000e+00 -9.0282818e-05 0.0000000e+00 
0.0000000e+00 -6.3646272e-05 0.0000000e+00 
0.0000000e+00 -2.0330048e-05 0.0000000e+00 
0.0000000e+00 3.9665843e-05 0.0000000e+00 
0.0000000e+00 1.1634141e-04 0.0000000e+00 
0.0000000e+00 2.0969663e-04 0.0000000e+00 
0.0000000e+00 1.1177739e-04 0.0000000e+00 
0.0000000e+00 3.1856081e-05 0.0000000e+00 
0.0000000e+00 -3.0067293e-05 0.0000000e+00 
0.0000000e+00 -7.3992735e-05 0.0000000e+00 
0.0000000e+00 -9.9920238e-05 0.0000000e+00 
0.0000000e+00 -1.0784981e-04 0.0000000e+00 
0.0000000e+00 -9.7781449e-05 0.0000000e+00 
0.0000000e+00 -6.9715155e-05 0.0000000e+00 
0.0000000e+00 -2.3650922e-05 0.0000000e+00 
0.0000000e+00 4.0411243e-05 0.0000000e+00 
0.0000000e+00 1.2247133e-04 0.0000000e+00 
0.0000000e+00 2.2252937e-04 0.0000000e+00 
0.0000000e+00 1.3170759e-04 0.0000000e+00 
0.0000000e+00 5.6216006e-05 0.0000000e+00 
0.0000000e+00 -3.9453871e-06 0.0000000e+00 
0.0000000e+00 -4.8776583e-05 0.0000000e+00 
0.0000000e+00 -7.8277582e-05 0.0000000e+00 
0.0000000e+00 -9.2448390e-05 0.0000000e+00 
0.0000000e+00 -9.1288995e-05 0.0000000e+00 
0.0000000e+00 -7.4799413e-05 0.0000000e+00 
0.0000000e+00 -4.2979627e-05 0.0000000e+00 
0.0000000e+00 4.1703497e-06 0.0000000e+00 
0.0000000e+00 6.6650522e-05 0.0000000e+00 
0.0000000e+00 1.4446089e-04 0.0000000e+00 
0.0000000e+00 2.8975601e-05 0.0000000e+00 
0.0000000e+00 -6.0332033e-05 0.0000000e+00 
0.0000000e+00 -1.2346201e-04 0.0000000e+00 
0.0000000e+00 -1.6041433e-04 0.0000000e+00 
0.0000000e+00 -1.7118899e-04 0.0000000e+00 
0.0000000e+00 -1.5578601e-04 0.0000000e+00 
0.0000000e+00 -1.1420535e-04 0.0000000e+00 
0.0000000e+00 -4.6447043e-05 0.0000000e+00 
0.0000000e+00 4.7488924e-05 0.0000000e+00 
0.0000000e+00 1.6760254e-04 0.0000000e+00 
0.0000000e+00 3.1389383e-04 0.0000000e+00 
0.0000000e+00 4.8636275e-04 0.0000000e+00 
0.0000000e+00 5.8861845e-04 0.0000000e+00 
0.0000000e+00 5.0400611e-04 0.0000000e+00 
0.0000000e+00 5.2017655e-04 0.0000000e+00 
0.0000000e+00 5.3087051e-04 0.0000000e+00 
0.0000000e+00 4.6581344e-04 0.0000000e+00 
0.0000000e+00 7.5073168e-04 0.0000000e+00 
0.0000000e+00 6.9699396e-04 0.0000000e+00 
0.0000000e+00 6.2930409e-04 0.0000000e+00 
0.0000000e+00 6.4224045e-04 0.0000000e+00 
0.0000000e+00 6.5079564e-04 0.0000000e+00 
0.0000000e+00 5.9874996e-04 0.0000000e+00 
0.0000000e+00 8.2668458e-04 0.0000000e+00 
0.0000000e+00 6.5463671e-04 0.0000000e+00 
0.0000000e+00 6.0386927e-04 0.0000000e+00 
0.0000000e+00 6.1357155e-04 0.0000000e+00 
0.0000000e+00 6.1998796e-04 0.0000000e+00 
0.0000000e+00 5.8095373e-04 0.0000000e+00 
0.0000000e+00 7.5190462e-04 0.0000000e+00 
0.0000000e+00 4.9922982e-04 0.0000000e+00 
0.0000000e+00 4.6538486e-04 0.0000000e+00 
0.0000000e+00 4.7185307e-04 0.0000000e+00 
0.0000000e+00 4.7613063e-04 0.0000000e+00 
0.0000000e+00 4.5010782e-04 0.0000000e+00 
0.0000000e+00 5.6407508e-04 0.0000000e+00 
0.0000000e+00 2.6845650e-04 0.0000000e+00 
0.0000000e+00 2.5153405e-04 0.0000000e+00 
0.0000000e+00 2.5476812e-04 0.0000000e+00 
0.0000000e+00 2.5690693e-04 0.0000000e+00 
0.0000000e+00 2.4389551e-04 0.0000000e+00 
0.0000000e+00 3.0087915e-04 0.0000000e+00 
0.0000000e+00 1.3425832e-16 0.0000000e+00 
0.0000000e+00 6.6300405e-17 0.0000000e+00 
0.0000000e+00 5.0554060e-17 0.0000000e+00 
0.0000000e+00 1.8232611e-17 0.0000000e+00 
0.0000000e+00 7.4587959e-18 0.0000000e+00 
0.0000000e+00 -1.5389070e-18 0.0000000e+00 
0.0000000e+00 -2.6845650e-04 0.0000000e+00 
0.0000000e+00 -2.5153405e-04 0.0000000e+00 
0.0000000e+00 -2.5476812e-04 0.0000000e+00 
0.0000000e+00 -2.5690693e-04 0.0000000e+00 
0.0000000e+00 -2.4389551e-04 0.0000000e+00 
0.0000000e+00 -3.0087915e-04 0.0000000e+00 
0.0000000e+00 -4.9922982e-04 0.0000000e+00 
0.0000000e+00 -4.6538486e-04 0.0000000e+00 
0.0000000e+00 -4.7185307e-04 0.0000000e+00 
0.0000000e+00 -4.7613063e-04 0.0000000e+00 
0.0000000e+00 -4.5010782e-04 0.0000000e+00 
0.0000000e+00 -5.6407508e-04 0.0000000e+00 
0.0000000e+00 -6.5463671e-04 0.0000000e+00 
0.0000000e+00 -6.0386927e-04 0.0000000e+00 
0.0000000e+00 -6.1357155e-04 0.0000000e+00 
0.0000000e+00 -6.1998796e-04 0.0000000e+00 
0.0000000e+00 -5.8095373e-04 0.0000000e+00 
0.0000000e+00 -7.5190462e-04 0.0000000e+00 
0.0000000e+00 -6.9699396e-04 0.0000000e+00 
0.0000000e+00 -6.2930409e-04 0.0000000e+00 
0.0000000e+00 -6.4224045e-04 0.0000000e+00 
0.0000000e+00 -6.5079564e-04 0.0000000e+00 
0.0000000e+00 -5.9874996e-04 0.0000000e+00 
0.0000000e+00 -8.2668458e-04 0.0000000e+00 
0.0000000e+00 -5.8861845e-04 0.0000000e+00 
0.0000000e+00 -5.0400611e-04 0.0000000e+00 
0.0000000e+00 -5.2017655e-04 0.0000000e+00 
0.0000000e+00 -5.3087051e-04 0.0000000e+00 
0.0000000e+00 -4.6581344e-04 0.0000000e+00 
0.0000000e+00 -7.5073168e-04 0.0000000e+00 
0.0000000e+00 1.4663674e-04 0.0000000e+00 
0.0000000e+00 1.4359185e-04 0.0000000e+00 
0.0000000e+00 1.3445719e-04 0.0000000e+00 
0.0000000e+00 1.1923276e-04 0.0000000e+00 
0.0000000e+00 9.7918557e-05 0.0000000e+00 
0.0000000e+00 7.0514579e-05 0.0000000e+00 
0.0000000e+00 3.7020833e-05 0.0000000e+00 
0.0000000e+00 -2.5626875e-06 0.0000000e+00 
0.0000000e+00 -4.8235983e-05 0.0000000e+00 
0.0000000e+00 -9.9999052e-05 0.0000000e+00 
0.0000000e+00 -1.5785189e-04 0.0000000e+00 
0.0000000e+00 -2.2179450e-04 0.0000000e+00 
0.0000000e+00 -2.9182687e-04 0.0000000e+00 
0.0000000e+00 -1.7315427e-04 0.0000000e+00 
0.0000000e+00 -7.4520103e-05 0.0000000e+00 
0.0000000e+00 4.0756349e-06 0.0000000e+00 
0.0000000e+00 6.2632949e-05 0.0000000e+00 
0.0000000e+00 1.0115183e-04 0.0000000e+00 
0.0000000e+00 1.1963228e-04 0.0000000e+00 
0.0000000e+00 1.1807429e-04 0.0000000e+00 
0.0000000e+00 9.6477881e-05 0.0000000e+00 
0.0000000e+00 5.4843040e-05 0.0000000e+00 
0.0000000e+00 -6.8302352e-06 0.0000000e+00 
0.0000000e+00 -8.8541943e-05 0.0000000e+00 
0.0000000e+00 -1.9029208e-04 0.0000000e+00 
0.0000000e+00 -1.0017094e-04 0.0000000e+00 
0.0000000e+00 -2.6729471e-05 0.0000000e+00 
0.0000000e+00 3.0032328e-05 0.0000000e+00 
0.0000000e+00 7.0114453e-05 0.0000000e+00 
0.0000000e+00 9.3516916e-05 0.0000000e+00 
0.0000000e+00 1.0023970e-04 0.0000000e+00 
0.0000000e+00 9.0282818e-05 0.0000000e+00 
0.0000000e+00 6.3646272e-05 0.0000000e+00 
0.0000000e+00 2.0330048e-05 0.0000000e+00 
0.0000000e+00 -3.9665843e-05 0.0000000e+00 
0.0000000e+00 -1.1634141e-04 0.0000000e+00 
0.0000000e+00 -2.0969663e-04 0.0000000e+00 
0.0000000e+00 -1.1177739e-04 0.0000000e+00 
0.0000000e+00 -3.1856081e-05 0.0000000e+00 
0.0000000e+00 3.0067293e-05 0.0000000e+00 
0.0000000e+00 7.3992735e-05 0.0000000e+00 
0.0000000e+00 9.9920238e-05 0.0000000e+00 
0.0000000e+00 1.0784981e-04 0.0000000e+00 
0.0000000e+00 9.7781449e-05 0.0000000e+00 
0.0000000e+00 6.9715155e-05 0.0000000e+00 
0.0000000e+00 2.3650922e-05 0.0000000e+00 
0.0000000e+00 -4.0411243e-05 0.0000000e+00 
0.0000000e+00 -1.2247133e-04 0.0000000e+00 
0.0000000e+00 -2.2252937e-04 0.0000000e+00 
0.0000000e+00 -1.3170759e-04 0.0000000e+00 
0.0000000e+00 -5.6216006e-05 0.0000000e+00 
0.0000000e+00 3.9453871e-06 0.0000000e+00 
0.0000000e+00 4.8776583e-05 0.0000000e+00 
0.0000000e+00 7.8277582e-05 0.0000000e+00 
0.0000000e+00 9.2448390e-05 0.0000000e+00 
0.0000000e+00 9.1288995e-05 0.0000000e+00 
0.0000000e+00 7.4799413e-05 0.0000000e+00 
0.0000000e+00 4.2979627e-05 0.0000000e+00 
0.0000000e+00 -4.1703497e-06 0.0000000e+00 
0.0000000e+00 -6.6650522e-05 0.0000000e+00 
0.0000000e+00 -1.4446089e-04 0.0000000e+00 
0.0000000e+00 -2.8975601e-05 0.0000000e+00 
0.0000000e+00 6.0332033e-05 0.0000000e+00 
0.0000000e+00 1.2346201e-04 0.0000000e+00 
0.0000000e+00 1.6041433e-04 0.0000000e+00 