# vtk DataFile Version 4.0
vtk output
ASCII
DATASET UNSTRUCTURED_GRID
POINTS 14 float
0.0000000e+00 0.0000000e+00 0.0000000e+00 
0.0000000e+00 0.0000000e+00 3.0000000e+00 
0.0000000e+00 0.0000000e+00 6.0000000e+00 
0.0000000e+00 0.0000000e+00 9.0000000e+00 
0.0000000e+00 0.0000000e+00 1.2000000e+01 
0.0000000e+00 0.0000000e+00 1.5000000e+01 
0.0000000e+00 0.0000000e+00 1.8000000e+01 
6.0000000e+00 0.0000000e+00 0.0000000e+00 
6.0000000e+00 0.0000000e+00 3.0000000e+00 
6.0000000e+00 0.0000000e+00 6.0000000e+00 
6.0000000e+00 0.0000000e+00 9.0000000e+00 
6.0000000e+00 0.0000000e+00 1.2000000e+01 
6.0000000e+00 0.0000000e+00 1.5000000e+01 
6.0000000e+00 0.0000000e+00 1.8000000e+01 

CELLS 18 54
2 0 1
2 1 2
2 2 3
2 3 4
2 4 5
2 5 6
2 7 8
2 8 9
2 9 10
2 10 11
2 11 12
2 12 13
2 1 8
2 2 9
2 3 10
2 4 11
2 5 12
2 6 13

CELL_TYPES 18
3
3
3
3
3
3
3
3
3
3
3
3
3
3
3
3
3
3
POINT_DATA 14
FIELD FieldData 8
DISPLACEMENT 3 14  float
0.0000000e+00 0.0000000e+00 0.0000000e+00 
-1.5736238e-06 0.0000000e+00 -7.5533768e-05 
3.5605260e-07 0.0000000e+00 -1.3793899e-04 
-1.2669605e-07 0.0000000e+00 -1.8721567e-04 
2.7258699e-07 0.0000000e+00 -2.2336381e-04 
-1.2025871e-06 0.0000000e+00 -2.4638340e-04 
2.9796333e-06 0.0000000e+00 -2.5627445e-04 
0.0000000e+00 0.0000000e+00 0.0000000e+00 
1.5736238e-06 0.0000000e+00 -7.5533768e-05 
-3.5605260e-07 0.0000000e+00 -1.3793899e-04 
1.2669605e-07 0.0000000e+00 -1.8721567e-04 
-2.7258699e-07 0.0000000e+00 -2.2336381e-04 
1.2025871e-06 0.0000000e+00 -2.4638340e-04 
-2.9796333e-06 0.0000000e+00 -2.5627445e-04 
ROTATION 3 14  float
0.0000000e+00 -2.8385937e-05 0.0000000e+00 
0.0000000e+00 5.5198252e-05 0.0000000e+00 
0.0000000e+00 3.6106467e-05 0.0000000e+00 
0.0000000e+00 3.9526174e-05 0.0000000e+00 
0.0000000e+00 4.1698881e-05 0.0000000e+00 
0.0000000e+00 2.7509570e-05 0.0000000e+00 
0.0000000e+00 9.2971699e-05 0.0000000e+00 
0.0000000e+00 2.8385937e-05 0.0000000e+00 
0.0000000e+00 -5.5198252e-05 0.0000000e+00 
0.0000000e+00 -3.6106467e-05 0.0000000e+00 
0.0000000e+00 -3.9526174e-05 0.0000000e+00 
0.0000000e+00 -4.1698881e-05 0.0000000e+00 
0.0000000e+00 -2.7509570e-05 0.0000000e+00 
0.0000000e+00 -9.2971699e-05 0.0000000e+00 
REACTION 3 14  float
4.4859369e+02 -0.0000000e+00 5.0096324e+04 
-0.0000000e+00 -0.0000000e+00 -9.2450537e-02 
-1.1368684e-13 -0.0000000e+00 -7.7151597e-02 
-1.9610980e-12 -0.0000000e+00 -5.8449954e-02 
-5.6843419e-14 -0.0000000e+00 -4.0992409e-02 
1.1368684e-13 -0.0000000e+00 -2.0890951e-02 
-2.2737368e-13 -0.0000000e+00 -1.0991169e-02 
-4.4859369e+02 -0.0000000e+00 5.0096324e+04 
-1.1368684e-13 -0.0000000e+00 -9.2450537e-02 
1.1368684e-13 -0.0000000e+00 -7.7151597e-02 
-8.5265128e-14 -0.0000000e+00 -5.8449954e-02 
7.3896445e-13 -0.0000000e+00 -4.0992409e-02 
-1.1368684e-13 -0.0000000e+00 -2.0890951e-02 
-1.3642421e-12 -0.0000000e+00 -1.0991169e-02 
REACTION_MOMENT 3 14  float
-0.0000000e+00 5.3994689e-04 -0.0000000e+00 
-0.0000000e+00 -5.5220812e-03 -0.0000000e+00 
-0.0000000e+00 1.8047814e-03 -0.0000000e+00 
-0.0000000e+00 -6.5023708e-04 -0.0000000e+00 
-0.0000000e+00 1.3917580e-03 -0.0000000e+00 
-0.0000000e+00 -5.2428609e-03 -0.0000000e+00 
-0.0000000e+00 9.6151112e-03 -0.0000000e+00 
-0.0000000e+00 -5.3994689e-04 -0.0000000e+00 
-0.0000000e+00 5.5220812e-03 -0.0000000e+00 
-0.0000000e+00 -1.8047814e-03 -0.0000000e+00 
-0.0000000e+00 6.5023708e-04 -0.0000000e+00 
-0.0000000e+00 -1.3917580e-03 -0.0000000e+00 
-0.0000000e+00 5.2428609e-03 -0.0000000e+00 
-0.0000000e+00 -9.6151112e-03 -0.0000000e+00 
VOLUME_ACCELERATION 3 14  float
0.0000000e+00 0.0000000e+00 -9.8100004e+00 
0.0000000e+00 0.0000000e+00 -9.8100004e+00 
0.0000000e+00 0.0000000e+00 -9.8100004e+00 
0.0000000e+00 0.0000000e+00 -9.8100004e+00 
0.0000000e+00 0.0000000e+00 -9.8100004e+00 
0.0000000e+00 0.0000000e+00 -9.8100004e+00 
0.0000000e+00 0.0000000e+00 -9.8100004e+00 
0.0000000e+00 0.0000000e+00 -9.8100004e+00 
0.0000000e+00 0.0000000e+00 -9.8100004e+00 
0.0000000e+00 0.0000000e+00 -9.8100004e+00 
0.0000000e+00 0.0000000e+00 -9.8100004e+00 
0.0000000e+00 0.0000000e+00 -9.8100004e+00 
0.0000000e+00 0.0000000e+00 -9.8100004e+00 
0.0000000e+00 0.0000000e+00 -9.8100004e+00 
LINE_LOAD 3 14  float
0.0000000e+00 0.0000000e+00 0.0000000e+00 
0.0000000e+00 0.0000000e+00 -3.7856857e+01 
0.0000000e+00 0.0000000e+00 -3.7856857e+01 
0.0000000e+00 0.0000000e+00 -3.7856857e+01 
0.0000000e+00 0.0000000e+00 -3.7856857e+01 
0.0000000e+00 0.0000000e+00 -3.7856857e+01 
0.0000000e+00 0.0000000e+00 -3.7856857e+01 
0.0000000e+00 0.0000000e+00 0.0000000e+00 
0.0000000e+00 0.0000000e+00 -3.7856857e+01 
0.0000000e+00 0.0000000e+00 -3.7856857e+01 
0.0000000e+00 0.0000000e+00 -3.7856857e+01 
0.0000000e+00 0.0000000e+00 -3.7856857e+01 
0.0000000e+00 0.0000000e+00 -3.7856857e+01 
0.0000000e+00 0.0000000e+00 -3.7856857e+01 
POINT_LOAD 3 14  float
0.0000000e+00 0.0000000e+00 0.0000000e+00 
0.0000000e+00 0.0000000e+00 0.0000000e+00 
0.0000000e+00 0.0000000e+00 0.0000000e+00 
0.0000000e+00 0.0000000e+00 0.0000000e+00 
0.0000000e+00 0.0000000e+00 0.0000000e+00 
0.0000000e+00 0.0000000e+00 0.0000000e+00 
0.0000000e+00 0.0000000e+00 0.0000000e+00 
0.0000000e+00 0.0000000e+00 0.0000000e+00 
0.0000000e+00 0.0000000e+00 0.0000000e+00 
0.0000000e+00 0.0000000e+00 0.0000000e+00 
0.0000000e+00 0.0000000e+00 0.0000000e+00 
0.0000000e+00 0.0000000e+00 0.0000000e+00 
0.0000000e+00 0.0000000e+00 0.0000000e+00 
0.0000000e+00 0.0000000e+00 0.0000000e+00 
POINT_MOMENT 3 14  float
0.0000000e+00 0.0000000e+00 0.0000000e+00 
0.0000000e+00 0.0000000e+00 0.0000000e+00 
0.0000000e+00 0.0000000e+00 0.0000000e+00 
0.0000000e+00 0.0000000e+00 0.0000000e+00 
0.0000000e+00 0.0000000e+00 0.0000000e+00 
0.0000000e+00 0.0000000e+00 0.0000000e+00 
0.0000000e+00 0.0000000e+00 0.0000000e+00 
0.0000000e+00 0.0000000e+00 0.0000000e+00 
0.0000000e+00 0.0000000e+00 0.0000000e+00 
0.0000000e+00 0.0000000e+00 0.0000000e+00 
0.0000000e+00 0.0000000e+00 0.0000000e+00 
0.0000000e+00 0.0000000e+00 0.0000000e+00 
0.0000000e+00 0.0000000e+00 0.0000000e+00 
0.0000000e+00 0.0000000e+00 0.0000000e+00 
CELL_DATA 18
FIELD FieldData 9
YOUNG_MODULUS 1 18  float
1.0703913e+11
1.0703913e+11
1.0703913e+11
1.0703913e+11
1.0703913e+11
1.0703913e+11
1.0703913e+11
1.0703913e+11
1.0703913e+11
1.0703913e+11
1.0703913e+11
1.0703913e+11
1.0703913e+11
1.0703913e+11
1.0703913e+11
1.0703913e+11
1.0703913e+11
1.0703913e+11
DENSITY 1 18  float
7.8500000e+03
7.8500000e+03
7.8500000e+03
7.8500000e+03
7.8500000e+03
7.8500000e+03
7.8500000e+03
7.8500000e+03
7.8500000e+03
7.8500000e+03
7.8500000e+03
7.8500000e+03
7.8500000e+03
7.8500000e+03
7.8500000e+03
7.8500000e+03
7.8500000e+03
7.8500000e+03
CROSS_AREA 1 18  float
1.7824495e-02
1.7824495e-02
1.7824495e-02
1.7824495e-02
1.7824495e-02
1.7824495e-02
1.7824495e-02
1.7824495e-02
1.7824495e-02
1.7824495e-02
1.7824495e-02
1.7824495e-02
1.7824495e-02
1.7824495e-02
1.7824495e-02
1.7824495e-02
1.7824495e-02
1.7824495e-02
I22 1 18  float
2.2563111e-04
2.2563111e-04
2.2563111e-04
2.2563111e-04
2.2563111e-04
2.2563111e-04
2.2563111e-04
2.2563111e-04
2.2563111e-04
2.2563111e-04
2.2563111e-04
2.2563111e-04
2.2563111e-04
2.2563111e-04
2.2563111e-04
2.2563111e-04
2.2563111e-04
2.2563111e-04
I33 1 18  float
9.9999997e-06
9.9999997e-06
9.9999997e-06
9.9999997e-06
9.9999997e-06
9.9999997e-06
9.9999997e-06
9.9999997e-06
9.9999997e-06
9.9999997e-06
9.9999997e-06
9.9999997e-06
9.9999997e-06
9.9999997e-06
9.9999997e-06
9.9999997e-06
9.9999997e-06
9.9999997e-06
TORSIONAL_INERTIA 1 18  float
6.9798107e-06
6.9798107e-06
6.9798107e-06
6.9798107e-06
6.9798107e-06
6.9798107e-06
6.9798107e-06
6.9798107e-06
6.9798107e-06
6.9798107e-06
6.9798107e-06
6.9798107e-06
6.9798107e-06
6.9798107e-06
6.9798107e-06
6.9798107e-06
6.9798107e-06
6.9798107e-06
POISSON_RATIO 1 18  float
3.0000001e-01
3.0000001e-01
3.0000001e-01
3.0000001e-01
3.0000001e-01
3.0000001e-01
3.0000001e-01
3.0000001e-01
3.0000001e-01
3.0000001e-01
3.0000001e-01
3.0000001e-01
3.0000001e-01
3.0000001e-01
3.0000001e-01
3.0000001e-01
3.0000001e-01
3.0000001e-01
MOMENT 3 18  float
0.0000000e+00 6.7289056e+02 0.0000000e+00 
0.0000000e+00 -1.5369749e+02 0.0000000e+00 
0.0000000e+00 2.7530191e+01 0.0000000e+00 
0.0000000e+00 1.7491270e+01 0.0000000e+00 
0.0000000e+00 -1.1423038e+02 0.0000000e+00 
0.0000000e+00 5.2699976e+02 0.0000000e+00 
0.0000000e+00 -6.7289056e+02 0.0000000e+00 
0.0000000e+00 1.5369749e+02 0.0000000e+00 
0.0000000e+00 -2.7530191e+01 0.0000000e+00 
0.0000000e+00 -1.7491270e+01 0.0000000e+00 
0.0000000e+00 1.1423038e+02 0.0000000e+00 
0.0000000e+00 -5.2699976e+02 0.0000000e+00 
0.0000000e+00 -4.4437091e+02 0.0000000e+00 
0.0000000e+00 -2.9067340e+02 0.0000000e+00 
0.0000000e+00 -3.1820361e+02 0.0000000e+00 
0.0000000e+00 -3.3569489e+02 0.0000000e+00 
0.0000000e+00 -2.2146449e+02 0.0000000e+00 
0.0000000e+00 -7.4846429e+02 0.0000000e+00 
FORCE 3 18  float
-4.8037422e+04 0.0000000e+00 4.4859369e+02 
-3.9688023e+04 0.0000000e+00 1.4493756e+03 
-3.1338629e+04 0.0000000e+00 1.2229358e+03 
-2.2989232e+04 0.0000000e+00 1.3035111e+03 
-1.4639836e+04 0.0000000e+00 1.1301532e+03 
-6.2904399e+03 0.0000000e+00 1.8949658e+03 
-4.8037422e+04 0.0000000e+00 -4.4859369e+02 
-3.9688023e+04 0.0000000e+00 -1.4493756e+03 
-3.1338629e+04 0.0000000e+00 -1.2229358e+03 
-2.2989232e+04 0.0000000e+00 -1.3035111e+03 
-1.4639836e+04 0.0000000e+00 -1.1301532e+03 
-6.2904399e+03 0.0000000e+00 -1.8949658e+03 
1.0007819e+03 0.0000000e+00 -2.2737368e-12 
-2.2643977e+02 0.0000000e+00 -1.7337243e-12 
8.0575249e+01 0.0000000e+00 -1.1368684e-12 
-1.7335791e+02 0.0000000e+00 -6.8212103e-13 
7.6481268e+02 0.0000000e+00 -5.9685590e-13 
-1.8949658e+03 0.0000000e+00 -2.8421709e-13 
