# vtk DataFile Version 4.0
vtk output
ASCII
DATASET UNSTRUCTURED_GRID
POINTS 600 float
0.0000000e+00 0.0000000e+00 0.0000000e+00 
0.0000000e+00 2.0000000e+00 0.0000000e+00 
0.0000000e+00 4.0000000e+00 0.0000000e+00 
2.0000000e+00 4.0000000e+00 0.0000000e+00 
2.0000000e+00 2.0000000e+00 0.0000000e+00 
2.0000000e+00 0.0000000e+00 0.0000000e+00 
0.0000000e+00 2.0000000e-02 0.0000000e+00 
0.0000000e+00 3.9999999e-02 0.0000000e+00 
0.0000000e+00 5.9999999e-02 0.0000000e+00 
0.0000000e+00 7.9999998e-02 0.0000000e+00 
0.0000000e+00 1.0000000e-01 0.0000000e+00 
0.0000000e+00 1.2000000e-01 0.0000000e+00 
0.0000000e+00 1.4000000e-01 0.0000000e+00 
0.0000000e+00 1.6000000e-01 0.0000000e+00 
0.0000000e+00 1.8000001e-01 0.0000000e+00 
0.0000000e+00 2.0000000e-01 0.0000000e+00 
0.0000000e+00 2.2000000e-01 0.0000000e+00 
0.0000000e+00 2.3999999e-01 0.0000000e+00 
0.0000000e+00 2.5999999e-01 0.0000000e+00 
0.0000000e+00 2.8000000e-01 0.0000000e+00 
0.0000000e+00 3.0000001e-01 0.0000000e+00 
0.0000000e+00 3.1999999e-01 0.0000000e+00 
0.0000000e+00 3.4000000e-01 0.0000000e+00 
0.0000000e+00 3.6000001e-01 0.0000000e+00 
0.0000000e+00 3.8000000e-01 0.0000000e+00 
0.0000000e+00 4.0000001e-01 0.0000000e+00 
0.0000000e+00 4.1999999e-01 0.0000000e+00 
0.0000000e+00 4.4000000e-01 0.0000000e+00 
0.0000000e+00 4.6000001e-01 0.0000000e+00 
0.0000000e+00 4.7999999e-01 0.0000000e+00 
0.0000000e+00 5.0000000e-01 0.0000000e+00 
0.0000000e+00 5.1999998e-01 0.0000000e+00 
0.0000000e+00 5.4000002e-01 0.0000000e+00 
0.0000000e+00 5.6000000e-01 0.0000000e+00 
0.0000000e+00 5.7999998e-01 0.0000000e+00 
0.0000000e+00 6.0000002e-01 0.0000000e+00 
0.0000000e+00 6.2000000e-01 0.0000000e+00 
0.0000000e+00 6.3999999e-01 0.0000000e+00 
0.0000000e+00 6.6000003e-01 0.0000000e+00 
0.0000000e+00 6.8000001e-01 0.0000000e+00 
0.0000000e+00 6.9999999e-01 0.0000000e+00 
0.0000000e+00 7.2000003e-01 0.0000000e+00 
0.0000000e+00 7.4000001e-01 0.0000000e+00 
0.0000000e+00 7.5999999e-01 0.0000000e+00 
0.0000000e+00 7.7999997e-01 0.0000000e+00 
0.0000000e+00 8.0000001e-01 0.0000000e+00 
0.0000000e+00 8.1999999e-01 0.0000000e+00 
0.0000000e+00 8.3999997e-01 0.0000000e+00 
0.0000000e+00 8.6000001e-01 0.0000000e+00 
0.0000000e+00 8.8000000e-01 0.0000000e+00 
0.0000000e+00 8.9999998e-01 0.0000000e+00 
0.0000000e+00 9.2000002e-01 0.0000000e+00 
0.0000000e+00 9.4000000e-01 0.0000000e+00 
0.0000000e+00 9.5999998e-01 0.0000000e+00 
0.0000000e+00 9.8000002e-01 0.0000000e+00 
0.0000000e+00 1.0000000e+00 0.0000000e+00 
0.0000000e+00 1.0200000e+00 0.0000000e+00 
0.0000000e+00 1.0400000e+00 0.0000000e+00 
0.0000000e+00 1.0599999e+00 0.0000000e+00 
0.0000000e+00 1.0800000e+00 0.0000000e+00 
0.0000000e+00 1.1000000e+00 0.0000000e+00 
0.0000000e+00 1.1200000e+00 0.0000000e+00 
0.0000000e+00 1.1400000e+00 0.0000000e+00 
0.0000000e+00 1.1600000e+00 0.0000000e+00 
0.0000000e+00 1.1799999e+00 0.0000000e+00 
0.0000000e+00 1.2000000e+00 0.0000000e+00 
0.0000000e+00 1.2200000e+00 0.0000000e+00 
0.0000000e+00 1.2400000e+00 0.0000000e+00 
0.0000000e+00 1.2600000e+00 0.0000000e+00 
0.0000000e+00 1.2800000e+00 0.0000000e+00 
0.0000000e+00 1.3000000e+00 0.0000000e+00 
0.0000000e+00 1.3200001e+00 0.0000000e+00 
0.0000000e+00 1.3400000e+00 0.0000000e+00 
0.0000000e+00 1.3600000e+00 0.0000000e+00 
0.0000000e+00 1.3800000e+00 0.0000000e+00 
0.0000000e+00 1.4000000e+00 0.0000000e+00 
0.0000000e+00 1.4200000e+00 0.0000000e+00 
0.0000000e+00 1.4400001e+00 0.0000000e+00 
0.0000000e+00 1.4600000e+00 0.0000000e+00 
0.0000000e+00 1.4800000e+00 0.0000000e+00 
0.0000000e+00 1.5000000e+00 0.0000000e+00 
0.0000000e+00 1.5200000e+00 0.0000000e+00 
0.0000000e+00 1.5400000e+00 0.0000000e+00 
0.0000000e+00 1.5599999e+00 0.0000000e+00 
0.0000000e+00 1.5800000e+00 0.0000000e+00 
0.0000000e+00 1.6000000e+00 0.0000000e+00 
0.0000000e+00 1.6200000e+00 0.0000000e+00 
0.0000000e+00 1.6400000e+00 0.0000000e+00 
0.0000000e+00 1.6600000e+00 0.0000000e+00 
0.0000000e+00 1.6799999e+00 0.0000000e+00 
0.0000000e+00 1.7000000e+00 0.0000000e+00 
0.0000000e+00 1.7200000e+00 0.0000000e+00 
0.0000000e+00 1.7400000e+00 0.0000000e+00 
0.0000000e+00 1.7600000e+00 0.0000000e+00 
0.0000000e+00 1.7800000e+00 0.0000000e+00 
0.0000000e+00 1.8000000e+00 0.0000000e+00 
0.0000000e+00 1.8200001e+00 0.0000000e+00 
0.0000000e+00 1.8400000e+00 0.0000000e+00 
0.0000000e+00 1.8600000e+00 0.0000000e+00 
0.0000000e+00 1.8800000e+00 0.0000000e+00 
0.0000000e+00 1.9000000e+00 0.0000000e+00 
0.0000000e+00 1.9200000e+00 0.0000000e+00 
0.0000000e+00 1.9400001e+00 0.0000000e+00 
0.0000000e+00 1.9600000e+00 0.0000000e+00 
0.0000000e+00 1.9800000e+00 0.0000000e+00 
0.0000000e+00 2.0200000e+00 0.0000000e+00 
0.0000000e+00 2.0400000e+00 0.0000000e+00 
0.0000000e+00 2.0599999e+00 0.0000000e+00 
0.0000000e+00 2.0799999e+00 0.0000000e+00 
0.0000000e+00 2.0999999e+00 0.0000000e+00 
0.0000000e+00 2.1199999e+00 0.0000000e+00 
0.0000000e+00 2.1400001e+00 0.0000000e+00 
0.0000000e+00 2.1600001e+00 0.0000000e+00 
0.0000000e+00 2.1800001e+00 0.0000000e+00 
0.0000000e+00 2.2000000e+00 0.0000000e+00 
0.0000000e+00 2.2200000e+00 0.0000000e+00 
0.0000000e+00 2.2400000e+00 0.0000000e+00 
0.0000000e+00 2.2600000e+00 0.0000000e+00 
0.0000000e+00 2.2800000e+00 0.0000000e+00 
0.0000000e+00 2.3000000e+00 0.0000000e+00 
0.0000000e+00 2.3199999e+00 0.0000000e+00 
0.0000000e+00 2.3399999e+00 0.0000000e+00 
0.0000000e+00 2.3599999e+00 0.0000000e+00 
0.0000000e+00 2.3800001e+00 0.0000000e+00 
0.0000000e+00 2.4000001e+00 0.0000000e+00 
0.0000000e+00 2.4200001e+00 0.0000000e+00 
0.0000000e+00 2.4400001e+00 0.0000000e+00 
0.0000000e+00 2.4600000e+00 0.0000000e+00 
0.0000000e+00 2.4800000e+00 0.0000000e+00 
0.0000000e+00 2.5000000e+00 0.0000000e+00 
0.0000000e+00 2.5200000e+00 0.0000000e+00 
0.0000000e+00 2.5400000e+00 0.0000000e+00 
0.0000000e+00 2.5599999e+00 0.0000000e+00 
0.0000000e+00 2.5799999e+00 0.0000000e+00 
0.0000000e+00 2.5999999e+00 0.0000000e+00 
0.0000000e+00 2.6199999e+00 0.0000000e+00 
0.0000000e+00 2.6400001e+00 0.0000000e+00 
0.0000000e+00 2.6600001e+00 0.0000000e+00 
0.0000000e+00 2.6800001e+00 0.0000000e+00 
0.0000000e+00 2.7000000e+00 0.0000000e+00 
0.0000000e+00 2.7200000e+00 0.0000000e+00 
0.0000000e+00 2.7400000e+00 0.0000000e+00 
0.0000000e+00 2.7600000e+00 0.0000000e+00 
0.0000000e+00 2.7800000e+00 0.0000000e+00 
0.0000000e+00 2.8000000e+00 0.0000000e+00 
0.0000000e+00 2.8199999e+00 0.0000000e+00 
0.0000000e+00 2.8399999e+00 0.0000000e+00 
0.0000000e+00 2.8599999e+00 0.0000000e+00 
0.0000000e+00 2.8800001e+00 0.0000000e+00 
0.0000000e+00 2.9000001e+00 0.0000000e+00 
0.0000000e+00 2.9200001e+00 0.0000000e+00 
0.0000000e+00 2.9400001e+00 0.0000000e+00 
0.0000000e+00 2.9600000e+00 0.0000000e+00 
0.0000000e+00 2.9800000e+00 0.0000000e+00 
0.0000000e+00 3.0000000e+00 0.0000000e+00 
0.0000000e+00 3.0200000e+00 0.0000000e+00 
0.0000000e+00 3.0400000e+00 0.0000000e+00 
0.0000000e+00 3.0599999e+00 0.0000000e+00 
0.0000000e+00 3.0799999e+00 0.0000000e+00 
0.0000000e+00 3.0999999e+00 0.0000000e+00 
0.0000000e+00 3.1199999e+00 0.0000000e+00 
0.0000000e+00 3.1400001e+00 0.0000000e+00 
0.0000000e+00 3.1600001e+00 0.0000000e+00 
0.0000000e+00 3.1800001e+00 0.0000000e+00 
0.0000000e+00 3.2000000e+00 0.0000000e+00 
0.0000000e+00 3.2200000e+00 0.0000000e+00 
0.0000000e+00 3.2400000e+00 0.0000000e+00 
0.0000000e+00 3.2600000e+00 0.0000000e+00 
0.0000000e+00 3.2800000e+00 0.0000000e+00 
0.0000000e+00 3.3000000e+00 0.0000000e+00 
0.0000000e+00 3.3199999e+00 0.0000000e+00 
0.0000000e+00 3.3399999e+00 0.0000000e+00 
0.0000000e+00 3.3599999e+00 0.0000000e+00 
0.0000000e+00 3.3800001e+00 0.0000000e+00 
0.0000000e+00 3.4000001e+00 0.0000000e+00 
0.0000000e+00 3.4200001e+00 0.0000000e+00 
0.0000000e+00 3.4400001e+00 0.0000000e+00 
0.0000000e+00 3.4600000e+00 0.0000000e+00 
0.0000000e+00 3.4800000e+00 0.0000000e+00 
0.0000000e+00 3.5000000e+00 0.0000000e+00 
0.0000000e+00 3.5200000e+00 0.0000000e+00 
0.0000000e+00 3.5400000e+00 0.0000000e+00 
0.0000000e+00 3.5599999e+00 0.0000000e+00 
0.0000000e+00 3.5799999e+00 0.0000000e+00 
0.0000000e+00 3.5999999e+00 0.0000000e+00 
0.0000000e+00 3.6199999e+00 0.0000000e+00 
0.0000000e+00 3.6400001e+00 0.0000000e+00 
0.0000000e+00 3.6600001e+00 0.0000000e+00 
0.0000000e+00 3.6800001e+00 0.0000000e+00 
0.0000000e+00 3.7000000e+00 0.0000000e+00 
0.0000000e+00 3.7200000e+00 0.0000000e+00 
0.0000000e+00 3.7400000e+00 0.0000000e+00 
0.0000000e+00 3.7600000e+00 0.0000000e+00 
0.0000000e+00 3.7800000e+00 0.0000000e+00 
0.0000000e+00 3.8000000e+00 0.0000000e+00 
0.0000000e+00 3.8199999e+00 0.0000000e+00 
0.0000000e+00 3.8399999e+00 0.0000000e+00 
0.0000000e+00 3.8599999e+00 0.0000000e+00 
0.0000000e+00 3.8800001e+00 0.0000000e+00 
0.0000000e+00 3.9000001e+00 0.0000000e+00 
0.0000000e+00 3.9200001e+00 0.0000000e+00 
0.0000000e+00 3.9400001e+00 0.0000000e+00 
0.0000000e+00 3.9600000e+00 0.0000000e+00 
0.0000000e+00 3.9800000e+00 0.0000000e+00 
2.0000000e-02 4.0000000e+00 0.0000000e+00 
3.9999999e-02 4.0000000e+00 0.0000000e+00 
5.9999999e-02 4.0000000e+00 0.0000000e+00 
7.9999998e-02 4.0000000e+00 0.0000000e+00 
1.0000000e-01 4.0000000e+00 0.0000000e+00 
1.2000000e-01 4.0000000e+00 0.0000000e+00 
1.4000000e-01 4.0000000e+00 0.0000000e+00 
1.6000000e-01 4.0000000e+00 0.0000000e+00 
1.8000001e-01 4.0000000e+00 0.0000000e+00 
2.0000000e-01 4.0000000e+00 0.0000000e+00 
2.2000000e-01 4.0000000e+00 0.0000000e+00 
2.3999999e-01 4.0000000e+00 0.0000000e+00 
2.5999999e-01 4.0000000e+00 0.0000000e+00 
2.8000000e-01 4.0000000e+00 0.0000000e+00 
3.0000001e-01 4.0000000e+00 0.0000000e+00 
3.1999999e-01 4.0000000e+00 0.0000000e+00 
3.4000000e-01 4.0000000e+00 0.0000000e+00 
3.6000001e-01 4.0000000e+00 0.0000000e+00 
3.8000000e-01 4.0000000e+00 0.0000000e+00 
4.0000001e-01 4.0000000e+00 0.0000000e+00 
4.1999999e-01 4.0000000e+00 0.0000000e+00 
4.4000000e-01 4.0000000e+00 0.0000000e+00 
4.6000001e-01 4.0000000e+00 0.0000000e+00 
4.7999999e-01 4.0000000e+00 0.0000000e+00 
5.0000000e-01 4.0000000e+00 0.0000000e+00 
5.1999998e-01 4.0000000e+00 0.0000000e+00 
[...]
POINT_DATA 600
FIELD FieldData 6
DISPLACEMENT 3 600  float
0.0000000e+00 0.0000000e+00 0.0000000e+00 
-8.5697796e-09 -1.9047619e-07 0.0000000e+00 
1.0475748e-08 -2.8571429e-07 0.0000000e+00 
-1.0474425e-08 -2.8571429e-07 0.0000000e+00 
8.5711953e-09 -1.9047619e-07 0.0000000e+00 
0.0000000e+00 0.0000000e+00 0.0000000e+00 
-5.0785079e-06 -1.9047619e-09 0.0000000e+00 
-1.0153969e-05 -3.8095238e-09 0.0000000e+00 
-1.5223335e-05 -5.7142859e-09 0.0000000e+00 
-2.0283558e-05 -7.6190476e-09 0.0000000e+00 
-2.5331594e-05 -9.5238093e-09 0.0000000e+00 
-3.0364390e-05 -1.1428572e-08 0.0000000e+00 
-3.5378904e-05 -1.3333334e-08 0.0000000e+00 
-4.0372088e-05 -1.5238095e-08 0.0000000e+00 
-4.5340890e-05 -1.7142858e-08 0.0000000e+00 
-5.0282266e-05 -1.9047619e-08 0.0000000e+00 
-5.5193170e-05 -2.0952381e-08 0.0000000e+00 
-6.0070553e-05 -2.2857144e-08 0.0000000e+00 
-6.4911364e-05 -2.4761905e-08 0.0000000e+00 
-6.9712565e-05 -2.6666667e-08 0.0000000e+00 
-7.4471100e-05 -2.8571428e-08 0.0000000e+00 
-7.9183927e-05 -3.0476190e-08 0.0000000e+00 
-8.3847990e-05 -3.2380953e-08 0.0000000e+00 
-8.8460256e-05 -3.4285716e-08 0.0000000e+00 
-9.3017668e-05 -3.6190475e-08 0.0000000e+00 
-9.7517179e-05 -3.8095237e-08 0.0000000e+00 
-1.0195574e-04 -4.0000000e-08 0.0000000e+00 
-1.0633031e-04 -4.1904762e-08 0.0000000e+00 
-1.1063783e-04 -4.3809525e-08 0.0000000e+00 
-1.1487527e-04 -4.5714287e-08 0.0000000e+00 
-1.1903957e-04 -4.7619046e-08 0.0000000e+00 
-1.2312768e-04 -4.9523809e-08 0.0000000e+00 
-1.2713658e-04 -5.1428572e-08 0.0000000e+00 
-1.3106318e-04 -5.3333334e-08 0.0000000e+00 
-1.3490446e-04 -5.5238097e-08 0.0000000e+00 
-1.3865737e-04 -5.7142856e-08 0.0000000e+00 
-1.4231885e-04 -5.9047618e-08 0.0000000e+00 
-1.4588588e-04 -6.0952381e-08 0.0000000e+00 
-1.4935537e-04 -6.2857140e-08 0.0000000e+00 
-1.5272431e-04 -6.4761906e-08 0.0000000e+00 
-1.5598965e-04 -6.6666665e-08 0.0000000e+00 
-1.5914832e-04 -6.8571431e-08 0.0000000e+00 
-1.6219729e-04 -7.0476190e-08 0.0000000e+00 
-1.6513350e-04 -7.2380949e-08 0.0000000e+00 
-1.6795391e-04 -7.4285715e-08 0.0000000e+00 
-1.7065549e-04 -7.6190474e-08 0.0000000e+00 
-1.7323517e-04 -7.8095240e-08 0.0000000e+00 
-1.7568989e-04 -8.0000000e-08 0.0000000e+00 
-1.7801663e-04 -8.1904759e-08 0.0000000e+00 
-1.8021234e-04 -8.3809525e-08 0.0000000e+00 
-1.8227397e-04 -8.5714284e-08 0.0000000e+00 
-1.8419846e-04 -8.7619050e-08 0.0000000e+00 
-1.8598278e-04 -8.9523809e-08 0.0000000e+00 
-1.8762387e-04 -9.1428575e-08 0.0000000e+00 
-1.8911867e-04 -9.3333334e-08 0.0000000e+00 
-1.9046417e-04 -9.5238093e-08 0.0000000e+00 
-1.9165729e-04 -9.7142859e-08 0.0000000e+00 
-1.9269501e-04 -9.9047618e-08 0.0000000e+00 
-1.9357426e-04 -1.0095238e-07 0.0000000e+00 
-1.9429199e-04 -1.0285714e-07 0.0000000e+00 
-1.9484518e-04 -1.0476190e-07 0.0000000e+00 
-1.9523075e-04 -1.0666667e-07 0.0000000e+00 
-1.9544568e-04 -1.0857143e-07 0.0000000e+00 
-1.9548691e-04 -1.1047619e-07 0.0000000e+00 
-1.9535139e-04 -1.1238095e-07 0.0000000e+00 
-1.9503606e-04 -1.1428571e-07 0.0000000e+00 
-1.9453790e-04 -1.1619048e-07 0.0000000e+00 
-1.9385386e-04 -1.1809524e-07 0.0000000e+00 
-1.9298088e-04 -1.2000000e-07 0.0000000e+00 
-1.9191591e-04 -1.2190476e-07 0.0000000e+00 
-1.9065592e-04 -1.2380953e-07 0.0000000e+00 
-1.8919785e-04 -1.2571428e-07 0.0000000e+00 
-1.8753864e-04 -1.2761905e-07 0.0000000e+00 
-1.8567526e-04 -1.2952381e-07 0.0000000e+00 
-1.8360467e-04 -1.3142858e-07 0.0000000e+00 
-1.8132381e-04 -1.3333333e-07 0.0000000e+00 
-1.7882964e-04 -1.3523810e-07 0.0000000e+00 
-1.7611909e-04 -1.3714286e-07 0.0000000e+00 
-1.7318914e-04 -1.3904761e-07 0.0000000e+00 
-1.7003674e-04 -1.4095238e-07 0.0000000e+00 
-1.6665882e-04 -1.4285715e-07 0.0000000e+00 
-1.6305236e-04 -1.4476190e-07 0.0000000e+00 
-1.5921431e-04 -1.4666666e-07 0.0000000e+00 
-1.5514159e-04 -1.4857143e-07 0.0000000e+00 
-1.5083120e-04 -1.5047620e-07 0.0000000e+00 
-1.4628004e-04 -1.5238095e-07 0.0000000e+00 
-1.4148511e-04 -1.5428571e-07 0.0000000e+00 
-1.3644334e-04 -1.5619048e-07 0.0000000e+00 
-1.3115170e-04 -1.5809523e-07 0.0000000e+00 
-1.2560711e-04 -1.6000000e-07 0.0000000e+00 
-1.1980655e-04 -1.6190477e-07 0.0000000e+00 
-1.1374697e-04 -1.6380952e-07 0.0000000e+00 
-1.0742531e-04 -1.6571428e-07 0.0000000e+00 
-1.0083853e-04 -1.6761905e-07 0.0000000e+00 
-9.3983581e-05 -1.6952382e-07 0.0000000e+00 
-8.6857421e-05 -1.7142857e-07 0.0000000e+00 
-7.9456993e-05 -1.7333333e-07 0.0000000e+00 
-7.1779265e-05 -1.7523810e-07 0.0000000e+00 
-6.3821171e-05 -1.7714285e-07 0.0000000e+00 
-5.5579680e-05 -1.7904762e-07 0.0000000e+00 
-4.7051733e-05 -1.8095238e-07 0.0000000e+00 
-3.8234288e-05 -1.8285715e-07 0.0000000e+00 
-2.9124296e-05 -1.8476190e-07 0.0000000e+00 
-1.9718711e-05 -1.8666667e-07 0.0000000e+00 
-1.0014484e-05 -1.8857143e-07 0.0000000e+00 
9.7710872e-06 -1.9142857e-07 0.0000000e+00 
1.8805680e-05 -1.9238095e-07 0.0000000e+00 
2.7111972e-05 -1.9333334e-07 0.0000000e+00 
3.4706722e-05 -1.9428572e-07 0.0000000e+00 
4.1606687e-05 -1.9523810e-07 0.0000000e+00 
4.7828631e-05 -1.9619047e-07 0.0000000e+00 
5.3389314e-05 -1.9714285e-07 0.0000000e+00 
5.8305493e-05 -1.9809524e-07 0.0000000e+00 
6.2593928e-05 -1.9904762e-07 0.0000000e+00 
6.6271386e-05 -2.0000000e-07 0.0000000e+00 
6.9354624e-05 -2.0095239e-07 0.0000000e+00 
7.1860391e-05 -2.0190477e-07 0.0000000e+00 
7.3805466e-05 -2.0285714e-07 0.0000000e+00 
7.5206597e-05 -2.0380952e-07 0.0000000e+00 
7.6080549e-05 -2.0476190e-07 0.0000000e+00 
7.6444077e-05 -2.0571429e-07 0.0000000e+00 
7.6313947e-05 -2.0666667e-07 0.0000000e+00 
7.5706914e-05 -2.0761905e-07 0.0000000e+00 
7.4639735e-05 -2.0857142e-07 0.0000000e+00 
7.3129188e-05 -2.0952380e-07 0.0000000e+00 
7.1192007e-05 -2.1047619e-07 0.0000000e+00 
6.8844980e-05 -2.1142857e-07 0.0000000e+00 
6.6104840e-05 -2.1238095e-07 0.0000000e+00 
6.2988373e-05 -2.1333334e-07 0.0000000e+00 
5.9512317e-05 -2.1428572e-07 0.0000000e+00 
5.5693443e-05 -2.1523809e-07 0.0000000e+00 
5.1548512e-05 -2.1619047e-07 0.0000000e+00 
4.7094280e-05 -2.1714285e-07 0.0000000e+00 
4.2347510e-05 -2.1809524e-07 0.0000000e+00 
3.7324960e-05 -2.1904762e-07 0.0000000e+00 
3.2043394e-05 -2.2000000e-07 0.0000000e+00 
2.6519567e-05 -2.2095239e-07 0.0000000e+00 
2.0770241e-05 -2.2190476e-07 0.0000000e+00 
1.4812178e-05 -2.2285714e-07 0.0000000e+00 
8.6621367e-06 -2.2380952e-07 0.0000000e+00 
2.3368762e-06 -2.2476191e-07 0.0000000e+00 
-4.1468420e-06 -2.2571429e-07 0.0000000e+00 
-1.0772258e-05 -2.2666667e-07 0.0000000e+00 
-1.7522611e-05 -2.2761905e-07 0.0000000e+00 
-2.4381143e-05 -2.2857142e-07 0.0000000e+00 
-3.1331092e-05 -2.2952381e-07 0.0000000e+00 
-3.8355698e-05 -2.3047619e-07 0.0000000e+00 
-4.5438199e-05 -2.3142857e-07 0.0000000e+00 
-5.2561842e-05 -2.3238096e-07 0.0000000e+00 
-5.9709855e-05 -2.3333334e-07 0.0000000e+00 
-6.6865490e-05 -2.3428571e-07 0.0000000e+00 
-7.4011979e-05 -2.3523809e-07 0.0000000e+00 
-8.1132566e-05 -2.3619047e-07 0.0000000e+00 
-8.8210487e-05 -2.3714286e-07 0.0000000e+00 
-9.5228992e-05 -2.3809524e-07 0.0000000e+00 
-1.0217130e-04 -2.3904761e-07 0.0000000e+00 
-1.0902068e-04 -2.3999999e-07 0.0000000e+00 
-1.1576034e-04 -2.4095237e-07 0.0000000e+00 
-1.2237355e-04 -2.4190476e-07 0.0000000e+00 
-1.2884353e-04 -2.4285714e-07 0.0000000e+00 
-1.3515352e-04 -2.4380952e-07 0.0000000e+00 
-1.4128677e-04 -2.4476191e-07 0.0000000e+00 
-1.4722651e-04 -2.4571429e-07 0.0000000e+00 
-1.5295598e-04 -2.4666667e-07 0.0000000e+00 
-1.5845844e-04 -2.4761906e-07 0.0000000e+00 
-1.6371711e-04 -2.4857144e-07 0.0000000e+00 
-1.6871523e-04 -2.4952382e-07 0.0000000e+00 
-1.7343606e-04 -2.5047618e-07 0.0000000e+00 
-1.7786281e-04 -2.5142856e-07 0.0000000e+00 
-1.8197873e-04 -2.5238094e-07 0.0000000e+00 
-1.8576707e-04 -2.5333333e-07 0.0000000e+00 
-1.8921106e-04 -2.5428571e-07 0.0000000e+00 
-1.9229394e-04 -2.5523809e-07 0.0000000e+00 
-1.9499897e-04 -2.5619048e-07 0.0000000e+00 
-1.9730936e-04 -2.5714286e-07 0.0000000e+00 
-1.9920837e-04 -2.5809524e-07 0.0000000e+00 
-2.0067922e-04 -2.5904762e-07 0.0000000e+00 
-2.0170517e-04 -2.6000001e-07 0.0000000e+00 
-2.0226947e-04 -2.6095239e-07 0.0000000e+00 
-2.0235532e-04 -2.6190477e-07 0.0000000e+00 
-2.0194599e-04 -2.6285716e-07 0.0000000e+00 
-2.0102473e-04 -2.6380951e-07 0.0000000e+00 
-1.9957473e-04 -2.6476189e-07 0.0000000e+00 
-1.9757928e-04 -2.6571428e-07 0.0000000e+00 
-1.9502161e-04 -2.6666666e-07 0.0000000e+00 
-1.9188493e-04 -2.6761904e-07 0.0000000e+00 
-1.8815252e-04 -2.6857143e-07 0.0000000e+00 
-1.8380760e-04 -2.6952381e-07 0.0000000e+00 
-1.7883340e-04 -2.7047619e-07 0.0000000e+00 
-1.7321318e-04 -2.7142858e-07 0.0000000e+00 
-1.6693017e-04 -2.7238096e-07 0.0000000e+00 
-1.5996762e-04 -2.7333334e-07 0.0000000e+00 
-1.5230874e-04 -2.7428572e-07 0.0000000e+00 
-1.4393681e-04 -2.7523811e-07 0.0000000e+00 
-1.3483503e-04 -2.7619046e-07 0.0000000e+00 
-1.2498668e-04 -2.7714285e-07 0.0000000e+00 
-1.1437498e-04 -2.7809523e-07 0.0000000e+00 
-1.0298316e-04 -2.7904761e-07 0.0000000e+00 
-9.0794478e-05 -2.7999999e-07 0.0000000e+00 
-7.7792160e-05 -2.8095238e-07 0.0000000e+00 
-6.3959451e-05 -2.8190476e-07 0.0000000e+00 
-4.9279595e-05 -2.8285714e-07 0.0000000e+00 
-3.3735829e-05 -2.8380953e-07 0.0000000e+00 
-1.7311393e-05 -2.8476191e-07 0.0000000e+00 
1.0266247e-08 -1.8506409e-05 0.0000000e+00 
1.0056745e-08 -3.7566118e-05 0.0000000e+00 
9.8472430e-09 -5.7390942e-05 0.0000000e+00 
9.6377413e-09 -7.7908495e-05 0.0000000e+00 
9.4282395e-09 -9.9047917e-05 0.0000000e+00 
9.2187378e-09 -1.2073989e-04 0.0000000e+00 
9.0092360e-09 -1.4291659e-04 0.0000000e+00 
8.7997343e-09 -1.6551172e-04 0.0000000e+00 
8.5902325e-09 -1.8846054e-04 0.0000000e+00 
8.3807308e-09 -2.1169982e-04 0.0000000e+00 
8.1712290e-09 -2.3516781e-04 0.0000000e+00 
7.9617273e-09 -2.5880436e-04 0.0000000e+00 
7.7522255e-09 -2.8255078e-04 0.0000000e+00 
7.5427238e-09 -3.0634992e-04 0.0000000e+00 
7.3332220e-09 -3.3014617e-04 0.0000000e+00 
7.1237203e-09 -3.5388544e-04 0.0000000e+00 
6.9142185e-09 -3.7751516e-04 0.0000000e+00 
6.7047168e-09 -4.0098428e-04 0.0000000e+00 
6.4952150e-09 -4.2424325e-04 0.0000000e+00 
6.2857133e-09 -4.4724412e-04 0.0000000e+00 
6.0762115e-09 -4.6994037e-04 0.0000000e+00 
5.8667098e-09 -4.9228710e-04 0.0000000e+00 
5.6572080e-09 -5.1424082e-04 0.0000000e+00 
5.4477063e-09 -5.3575961e-04 0.0000000e+00 
5.2382045e-09 -5.5680319e-04 0.0000000e+00 
5.0287028e-09 -5.7733263e-04 0.0000000e+00 
4.8192010e-09 -5.9731060e-04 0.0000000e+00 
4.6096993e-09 -6.1670132e-04 0.0000000e+00 
4.4001975e-09 -6.3547044e-04 0.0000000e+00 
4.1906958e-09 -6.5358530e-04 0.0000000e+00 
3.9811945e-09 -6.7101454e-04 0.0000000e+00 
3.7716927e-09 -6.8772858e-04 0.0000000e+00 
3.5621908e-09 -7.0369913e-04 0.0000000e+00 
3.3526890e-09 -7.1889954e-04 0.0000000e+00 
3.1431873e-09 -7.3330471e-04 0.0000000e+00 
2.9336855e-09 -7.4689096e-04 0.0000000e+00 
2.7241840e-09 -7.5963623e-04 0.0000000e+00 
2.5146822e-09 -7.7151996e-04 0.0000000e+00 
2.3051805e-09 -7.8252307e-04 0.0000000e+00 
2.0956787e-09 -7.9262810e-04 0.0000000e+00 
1.8861770e-09 -8.0181897e-04 0.0000000e+00 
1.6766752e-09 -8.1008120e-04 0.0000000e+00 
1.4671735e-09 -8.1740192e-04 0.0000000e+00 
1.2576717e-09 -8.2376966e-04 0.0000000e+00 
1.0481700e-09 -8.2917447e-04 0.0000000e+00 
8.3866830e-10 -8.3360809e-04 0.0000000e+00 
6.2916655e-10 -8.3706353e-04 0.0000000e+00 
4.1966483e-10 -8.3953550e-04 0.0000000e+00 
2.1016311e-10 -8.4102020e-04 0.0000000e+00 
6.6138154e-13 -8.4151537e-04 0.0000000e+00 
-2.0884035e-10 -8.4102020e-04 0.0000000e+00 
-4.1834208e-10 -8.3953550e-04 0.0000000e+00 
-6.2784383e-10 -8.3706353e-04 0.0000000e+00 
-8.3734553e-10 -8.3360809e-04 0.0000000e+00 
-1.0468473e-09 -8.2917447e-04 0.0000000e+00 
-1.2563490e-09 -8.2376966e-04 0.0000000e+00 
-1.4658508e-09 -8.1740192e-04 0.0000000e+00 
-1.6753525e-09 -8.1008120e-04 0.0000000e+00 
-1.8848543e-09 -8.0181897e-04 0.0000000e+00 
-2.0943560e-09 -7.9262810e-04 0.0000000e+00 
-2.3038578e-09 -7.8252307e-04 0.0000000e+00 
-2.5133593e-09 -7.7151996e-04 0.0000000e+00 
-2.7228610e-09 -7.5963623e-04 0.0000000e+00 
-2.9323628e-09 -7.4689096e-04 0.0000000e+00 
-3.1418645e-09 -7.3330471e-04 0.0000000e+00 
-3.3513663e-09 -7.1889954e-04 0.0000000e+00 
-3.5608680e-09 -7.0369913e-04 0.0000000e+00 
-3.7703698e-09 -6.8772858e-04 0.0000000e+00 
-3.9798715e-09 -6.7101454e-04 0.0000000e+00 
-4.1893733e-09 -6.5358530e-04 0.0000000e+00 
-4.3988750e-09 -6.3547044e-04 0.0000000e+00 
-4.6083768e-09 -6.1670132e-04 0.0000000e+00 
-4.8178785e-09 -5.9731060e-04 0.0000000e+00 
-5.0273803e-09 -5.7733263e-04 0.0000000e+00 
-5.2368820e-09 -5.5680319e-04 0.0000000e+00 
-5.4463838e-09 -5.3575961e-04 0.0000000e+00 
-5.6558855e-09 -5.1424082e-04 0.0000000e+00 
-5.8653873e-09 -4.9228710e-04 0.0000000e+00 
-6.0748890e-09 -4.6994037e-04 0.0000000e+00 
-6.2843908e-09 -4.4724412e-04 0.0000000e+00 
-6.4938921e-09 -4.2424325e-04 0.0000000e+00 
-6.7033938e-09 -4.0098428e-04 0.0000000e+00 
-6.9128956e-09 -3.7751516e-04 0.0000000e+00 
-7.1223973e-09 -3.5388544e-04 0.0000000e+00 
-7.3318991e-09 -3.3014617e-04 0.0000000e+00 
-7.5414013e-09 -3.0634992e-04 0.0000000e+00 
-7.7509030e-09 -2.8255078e-04 0.0000000e+00 
-7.9604048e-09 -2.5880436e-04 0.0000000e+00 
-8.1699065e-09 -2.3516781e-04 0.0000000e+00 
-8.3794083e-09 -2.1169982e-04 0.0000000e+00 
-8.5889100e-09 -1.8846054e-04 0.0000000e+00 
-8.7984118e-09 -1.6551172e-04 0.0000000e+00 
-9.0079126e-09 -1.4291659e-04 0.0000000e+00 
-9.2174144e-09 -1.2073989e-04 0.0000000e+00 
-9.4269161e-09 -9.9047917e-05 0.0000000e+00 
-9.6364179e-09 -7.7908495e-05 0.0000000e+00 
-9.8459196e-09 -5.7390942e-05 0.0000000e+00 
-1.0055421e-08 -3.7566118e-05 0.0000000e+00 
-1.0264923e-08 -1.8506409e-05 0.0000000e+00 
1.7311393e-05 -2.8476191e-07 0.0000000e+00 
3.3735832e-05 -2.8380953e-07 0.0000000e+00 
4.9279599e-05 -2.8285714e-07 0.0000000e+00 
6.3959451e-05 -2.8190476e-07 0.0000000e+00 
7.7792160e-05 -2.8095238e-07 0.0000000e+00 
9.0794478e-05 -2.7999999e-07 0.0000000e+00 
1.0298316e-04 -2.7904761e-07 0.0000000e+00 
1.1437498e-04 -2.7809523e-07 0.0000000e+00 
1.2498669e-04 -2.7714285e-07 0.0000000e+00 
1.3483503e-04 -2.7619046e-07 0.0000000e+00 
1.4393681e-04 -2.7523811e-07 0.0000000e+00 
1.5230874e-04 -2.7428572e-07 0.0000000e+00 
1.5996762e-04 -2.7333334e-07 0.0000000e+00 
1.6693017e-04 -2.7238096e-07 0.0000000e+00 
1.7321318e-04 -2.7142858e-07 0.0000000e+00 
1.7883340e-04 -2.7047619e-07 0.0000000e+00 
1.8380760e-04 -2.6952381e-07 0.0000000e+00 
1.8815252e-04 -2.6857143e-07 0.0000000e+00 
1.9188494e-04 -2.6761904e-07 0.0000000e+00 
1.9502161e-04 -2.6666666e-07 0.0000000e+00 
1.9757928e-04 -2.6571428e-07 0.0000000e+00 
1.9957474e-04 -2.6476189e-07 0.0000000e+00 
2.0102473e-04 -2.6380951e-07 0.0000000e+00 
2.0194599e-04 -2.6285716e-07 0.0000000e+00 
2.0235532e-04 -2.6190477e-07 0.0000000e+00 
2.0226947e-04 -2.6095239e-07 0.0000000e+00 
2.0170519e-04 -2.6000001e-07 0.0000000e+00 
2.0067923e-04 -2.5904762e-07 0.0000000e+00 
1.9920837e-04 -2.5809524e-07 0.0000000e+00 
1.9730936e-04 -2.5714286e-07 0.0000000e+00 
1.9499897e-04 -2.5619048e-07 0.0000000e+00 
1.9229394e-04 -2.5523809e-07 0.0000000e+00 
1.8921106e-04 -2.5428571e-07 0.0000000e+00 
1.8576707e-04 -2.5333333e-07 0.0000000e+00 
1.8197873e-04 -2.5238094e-07 0.0000000e+00 
1.7786281e-04 -2.5142856e-07 0.0000000e+00 
1.7343606e-04 -2.5047618e-07 0.0000000e+00 
1.6871524e-04 -2.4952382e-07 0.0000000e+00 
1.6371711e-04 -2.4857144e-07 0.0000000e+00 
1.5845844e-04 -2.4761906e-07 0.0000000e+00 
1.5295600e-04 -2.4666667e-07 0.0000000e+00 
1.4722651e-04 -2.4571429e-07 0.0000000e+00 
1.4128677e-04 -2.4476191e-07 0.0000000e+00 
1.3515352e-04 -2.4380952e-07 0.0000000e+00 
1.2884353e-04 -2.4285714e-07 0.0000000e+00 
1.2237355e-04 -2.4190476e-07 0.0000000e+00 
1.1576035e-04 -2.4095237e-07 0.0000000e+00 
1.0902068e-04 -2.3999999e-07 0.0000000e+00 
1.0217130e-04 -2.3904761e-07 0.0000000e+00 
9.5228992e-05 -2.3809524e-07 0.0000000e+00 
8.8210494e-05 -2.3714286e-07 0.0000000e+00 
8.1132566e-05 -2.3619047e-07 0.0000000e+00 
7.4011979e-05 -2.3523809e-07 0.0000000e+00 
6.6865490e-05 -2.3428571e-07 0.0000000e+00 
5.9709859e-05 -2.3333334e-07 0.0000000e+00 
5.2561842e-05 -2.3238096e-07 0.0000000e+00 
4.5438203e-05 -2.3142857e-07 0.0000000e+00 
3.8355698e-05 -2.3047619e-07 0.0000000e+00 
3.1331092e-05 -2.2952381e-07 0.0000000e+00 
2.4381145e-05 -2.2857142e-07 0.0000000e+00 
1.7522612e-05 -2.2761905e-07 0.0000000e+00 
1.0772259e-05 -2.2666667e-07 0.0000000e+00 
4.1468434e-06 -2.2571429e-07 0.0000000e+00 
-2.3368748e-06 -2.2476191e-07 0.0000000e+00 
-8.6621349e-06 -2.2380952e-07 0.0000000e+00 
-1.4812176e-05 -2.2285714e-07 0.0000000e+00 
-2.0770240e-05 -2.2190476e-07 0.0000000e+00 
-2.6519565e-05 -2.2095239e-07 0.0000000e+00 
-3.2043394e-05 -2.2000000e-07 0.0000000e+00 
-3.7324960e-05 -2.1904762e-07 0.0000000e+00 
-4.2347510e-05 -2.1809524e-07 0.0000000e+00 
-4.7094280e-05 -2.1714285e-07 0.0000000e+00 
-5.1548512e-05 -2.1619047e-07 0.0000000e+00 
-5.5693443e-05 -2.1523809e-07 0.0000000e+00 
-5.9512317e-05 -2.1428572e-07 0.0000000e+00 
-6.2988365e-05 -2.1333334e-07 0.0000000e+00 
-6.6104840e-05 -2.1238095e-07 0.0000000e+00 
-6.8844973e-05 -2.1142857e-07 0.0000000e+00 
-7.1192007e-05 -2.1047619e-07 0.0000000e+00 
-7.3129180e-05 -2.0952380e-07 0.0000000e+00 
-7.4639735e-05 -2.0857142e-07 0.0000000e+00 
-7.5706907e-05 -2.0761905e-07 0.0000000e+00 
-7.6313940e-05 -2.0666667e-07 0.0000000e+00 
-7.6444077e-05 -2.0571429e-07 0.0000000e+00 
-7.6080541e-05 -2.0476190e-07 0.0000000e+00 
-7.5206597e-05 -2.0380952e-07 0.0000000e+00 
-7.3805466e-05 -2.0285714e-07 0.0000000e+00 
-7.1860391e-05 -2.0190477e-07 0.0000000e+00 
-6.9354617e-05 -2.0095239e-07 0.0000000e+00 
-6.6271386e-05 -2.0000000e-07 0.0000000e+00 
-6.2593928e-05 -1.9904762e-07 0.0000000e+00 
-5.8305490e-05 -1.9809524e-07 0.0000000e+00 
-5.3389311e-05 -1.9714285e-07 0.0000000e+00 
-4.7828631e-05 -1.9619047e-07 0.0000000e+00 
-4.1606687e-05 -1.9523810e-07 0.0000000e+00 
-3.4706718e-05 -1.9428572e-07 0.0000000e+00 
-2.7111970e-05 -1.9333334e-07 0.0000000e+00 
-1.8805680e-05 -1.9238095e-07 0.0000000e+00 
-9.7710854e-06 -1.9142857e-07 0.0000000e+00 
1.0014486e-05 -1.8857143e-07 0.0000000e+00 
1.9718713e-05 -1.8666667e-07 0.0000000e+00 
2.9124298e-05 -1.8476190e-07 0.0000000e+00 
3.8234288e-05 -1.8285715e-07 0.0000000e+00 
4.7051733e-05 -1.8095238e-07 0.0000000e+00 
5.5579680e-05 -1.7904762e-07 0.0000000e+00 
6.3821171e-05 -1.7714285e-07 0.0000000e+00 
7.1779265e-05 -1.7523810e-07 0.0000000e+00 
7.9457001e-05 -1.7333333e-07 0.0000000e+00 
8.6857421e-05 -1.7142857e-07 0.0000000e+00 
9.3983581e-05 -1.6952382e-07 0.0000000e+00 
1.0083853e-04 -1.6761905e-07 0.0000000e+00 
1.0742531e-04 -1.6571428e-07 0.0000000e+00 
1.1374697e-04 -1.6380952e-07 0.0000000e+00 
1.1980655e-04 -1.6190477e-07 0.0000000e+00 
1.2560711e-04 -1.6000000e-07 0.0000000e+00 
1.3115170e-04 -1.5809523e-07 0.0000000e+00 
1.3644334e-04 -1.5619048e-07 0.0000000e+00 
1.4148511e-04 -1.5428571e-07 0.0000000e+00 
1.4628004e-04 -1.5238095e-07 0.0000000e+00 
1.5083120e-04 -1.5047620e-07 0.0000000e+00 
1.5514159e-04 -1.4857143e-07 0.0000000e+00 
1.5921431e-04 -1.4666666e-07 0.0000000e+00 
1.6305236e-04 -1.4476190e-07 0.0000000e+00 
1.6665882e-04 -1.4285715e-07 0.0000000e+00 
1.7003674e-04 -1.4095238e-07 0.0000000e+00 
1.7318914e-04 -1.3904761e-07 0.0000000e+00 
1.7611909e-04 -1.3714286e-07 0.0000000e+00 
1.7882964e-04 -1.3523810e-07 0.0000000e+00 
1.8132381e-04 -1.3333333e-07 0.0000000e+00 
1.8360467e-04 -1.3142858e-07 0.0000000e+00 
1.8567526e-04 -1.2952381e-07 0.0000000e+00 
1.8753864e-04 -1.2761905e-07 0.0000000e+00 
1.8919785e-04 -1.2571428e-07 0.0000000e+00 
1.9065592e-04 -1.2380953e-07 0.0000000e+00 
1.9191591e-04 -1.2190476e-07 0.0000000e+00 
1.9298088e-04 -1.2000000e-07 0.0000000e+00 
1.9385386e-04 -1.1809524e-07 0.0000000e+00 
1.9453790e-04 -1.1619048e-07 0.0000000e+00 
1.9503606e-04 -1.1428571e-07 0.0000000e+00 
1.9535139e-04 -1.1238095e-07 0.0000000e+00 
1.9548691e-04 -1.1047619e-07 0.0000000e+00 
1.9544568e-04 -1.0857143e-07 0.0000000e+00 
1.9523075e-04 -1.0666667e-07 0.0000000e+00 
1.9484518e-04 -1.0476190e-07 0.0000000e+00 