# vtk DataFile Version 4.0
vtk output
ASCII
DATASET UNSTRUCTURED_GRID
POINTS 212 float
0.0000000e+00 0.0000000e+00 0.0000000e+00 
0.0000000e+00 0.0000000e+00 2.5000000e-01 
0.0000000e+00 0.0000000e+00 5.0000000e-01 
0.0000000e+00 0.0000000e+00 7.5000000e-01 
0.0000000e+00 0.0000000e+00 1.0000000e+00 
0.0000000e+00 0.0000000e+00 1.2500000e+00 
0.0000000e+00 0.0000000e+00 1.5000000e+00 
0.0000000e+00 0.0000000e+00 1.7500000e+00 
0.0000000e+00 0.0000000e+00 2.0000000e+00 
0.0000000e+00 0.0000000e+00 2.2500000e+00 
0.0000000e+00 0.0000000e+00 2.5000000e+00 
0.0000000e+00 0.0000000e+00 2.7500000e+00 
0.0000000e+00 0.0000000e+00 3.0000000e+00 
0.0000000e+00 0.0000000e+00 3.2500000e+00 
0.0000000e+00 0.0000000e+00 3.5000000e+00 
0.0000000e+00 0.0000000e+00 3.7500000e+00 
0.0000000e+00 0.0000000e+00 4.0000000e+00 
0.0000000e+00 0.0000000e+00 4.2500000e+00 
0.0000000e+00 0.0000000e+00 4.5000000e+00 
0.0000000e+00 0.0000000e+00 4.7500000e+00 
0.0000000e+00 0.0000000e+00 5.0000000e+00 
0.0000000e+00 0.0000000e+00 5.2500000e+00 
0.0000000e+00 0.0000000e+00 5.5000000e+00 
0.0000000e+00 0.0000000e+00 5.7500000e+00 
0.0000000e+00 0.0000000e+00 6.0000000e+00 
0.0000000e+00 0.0000000e+00 6.2500000e+00 
0.0000000e+00 0.0000000e+00 6.5000000e+00 
0.0000000e+00 0.0000000e+00 6.7500000e+00 
0.0000000e+00 0.0000000e+00 7.0000000e+00 
0.0000000e+00 0.0000000e+00 7.2500000e+00 
0.0000000e+00 0.0000000e+00 7.5000000e+00 
0.0000000e+00 0.0000000e+00 7.7500000e+00 
0.0000000e+00 0.0000000e+00 8.0000000e+00 
0.0000000e+00 0.0000000e+00 8.2500000e+00 
0.0000000e+00 0.0000000e+00 8.5000000e+00 
0.0000000e+00 0.0000000e+00 8.7500000e+00 
0.0000000e+00 0.0000000e+00 9.0000000e+00 
0.0000000e+00 0.0000000e+00 9.2500000e+00 
0.0000000e+00 0.0000000e+00 9.5000000e+00 
0.0000000e+00 0.0000000e+00 9.7500000e+00 
0.0000000e+00 0.0000000e+00 1.0000000e+01 
0.0000000e+00 0.0000000e+00 1.0250000e+01 
0.0000000e+00 0.0000000e+00 1.0500000e+01 
0.0000000e+00 0.0000000e+00 1.0750000e+01 
0.0000000e+00 0.0000000e+00 1.1000000e+01 
0.0000000e+00 0.0000000e+00 1.1250000e+01 
0.0000000e+00 0.0000000e+00 1.1500000e+01 
0.0000000e+00 0.0000000e+00 1.1750000e+01 
0.0000000e+00 0.0000000e+00 1.2000000e+01 
0.0000000e+00 0.0000000e+00 1.2250000e+01 
0.0000000e+00 0.0000000e+00 1.2500000e+01 
0.0000000e+00 0.0000000e+00 1.2750000e+01 
0.0000000e+00 0.0000000e+00 1.3000000e+01 
0.0000000e+00 0.0000000e+00 1.3250000e+01 
0.0000000e+00 0.0000000e+00 1.3500000e+01 
0.0000000e+00 0.0000000e+00 1.3750000e+01 
0.0000000e+00 0.0000000e+00 1.4000000e+01 
0.0000000e+00 0.0000000e+00 1.4250000e+01 
0.0000000e+00 0.0000000e+00 1.4500000e+01 
0.0000000e+00 0.0000000e+00 1.4750000e+01 
0.0000000e+00 0.0000000e+00 1.5000000e+01 
0.0000000e+00 0.0000000e+00 1.5250000e+01 
0.0000000e+00 0.0000000e+00 1.5500000e+01 
0.0000000e+00 0.0000000e+00 1.5750000e+01 
0.0000000e+00 0.0000000e+00 1.6000000e+01 
0.0000000e+00 0.0000000e+00 1.6250000e+01 
0.0000000e+00 0.0000000e+00 1.6500000e+01 
0.0000000e+00 0.0000000e+00 1.6750000e+01 
0.0000000e+00 0.0000000e+00 1.7000000e+01 
0.0000000e+00 0.0000000e+00 1.7250000e+01 
0.0000000e+00 0.0000000e+00 1.7500000e+01 
0.0000000e+00 0.0000000e+00 1.7750000e+01 
0.0000000e+00 0.0000000e+00 1.8000000e+01 
5.0000000e-01 0.0000000e+00 3.0000000e+00 
5.0000000e-01 0.0000000e+00 6.0000000e+00 
5.0000000e-01 0.0000000e+00 9.0000000e+00 
5.0000000e-01 0.0000000e+00 1.2000000e+01 
5.0000000e-01 0.0000000e+00 1.5000000e+01 
5.0000000e-01 0.0000000e+00 1.8000000e+01 
1.0000000e+00 0.0000000e+00 3.0000000e+00 
1.0000000e+00 0.0000000e+00 6.0000000e+00 
1.0000000e+00 0.0000000e+00 9.0000000e+00 
1.0000000e+00 0.0000000e+00 1.2000000e+01 
1.0000000e+00 0.0000000e+00 1.5000000e+01 
1.0000000e+00 0.0000000e+00 1.8000000e+01 
1.5000000e+00 0.0000000e+00 3.0000000e+00 
1.5000000e+00 0.0000000e+00 6.0000000e+00 
1.5000000e+00 0.0000000e+00 9.0000000e+00 
1.5000000e+00 0.0000000e+00 1.2000000e+01 
1.5000000e+00 0.0000000e+00 1.5000000e+01 
1.5000000e+00 0.0000000e+00 1.8000000e+01 
2.0000000e+00 0.0000000e+00 3.0000000e+00 
2.0000000e+00 0.0000000e+00 6.0000000e+00 
2.0000000e+00 0.0000000e+00 9.0000000e+00 
2.0000000e+00 0.0000000e+00 1.2000000e+01 
2.0000000e+00 0.0000000e+00 1.5000000e+01 
2.0000000e+00 0.0000000e+00 1.8000000e+01 
2.5000000e+00 0.0000000e+00 3.0000000e+00 
2.5000000e+00 0.0000000e+00 6.0000000e+00 
2.5000000e+00 0.0000000e+00 9.0000000e+00 
2.5000000e+00 0.0000000e+00 1.2000000e+01 
2.5000000e+00 0.0000000e+00 1.5000000e+01 
2.5000000e+00 0.0000000e+00 1.8000000e+01 
3.0000000e+00 0.0000000e+00 3.0000000e+00 
3.0000000e+00 0.0000000e+00 6.0000000e+00 
3.0000000e+00 0.0000000e+00 9.0000000e+00 
3.0000000e+00 0.0000000e+00 1.2000000e+01 
3.0000000e+00 0.0000000e+00 1.5000000e+01 
3.0000000e+00 0.0000000e+00 1.8000000e+01 
3.5000000e+00 0.0000000e+00 3.0000000e+00 
3.5000000e+00 0.0000000e+00 6.0000000e+00 
3.5000000e+00 0.0000000e+00 9.0000000e+00 
3.5000000e+00 0.0000000e+00 1.2000000e+01 
3.5000000e+00 0.0000000e+00 1.5000000e+01 
3.5000000e+00 0.0000000e+00 1.8000000e+01 
4.0000000e+00 0.0000000e+00 3.0000000e+00 
4.0000000e+00 0.0000000e+00 6.0000000e+00 
4.0000000e+00 0.0000000e+00 9.0000000e+00 
4.0000000e+00 0.0000000e+00 1.2000000e+01 
4.0000000e+00 0.0000000e+00 1.5000000e+01 
4.0000000e+00 0.0000000e+00 1.8000000e+01 
4.5000000e+00 0.0000000e+00 3.0000000e+00 
4.5000000e+00 0.0000000e+00 6.0000000e+00 
4.5000000e+00 0.0000000e+00 9.0000000e+00 
4.5000000e+00 0.0000000e+00 1.2000000e+01 
4.5000000e+00 0.0000000e+00 1.5000000e+01 
4.5000000e+00 0.0000000e+00 1.8000000e+01 
5.0000000e+00 0.0000000e+00 3.0000000e+00 
5.0000000e+00 0.0000000e+00 6.0000000e+00 
5.0000000e+00 0.0000000e+00 9.0000000e+00 
5.0000000e+00 0.0000000e+00 1.2000000e+01 
5.0000000e+00 0.0000000e+00 1.5000000e+01 
5.0000000e+00 0.0000000e+00 1.8000000e+01 
5.5000000e+00 0.0000000e+00 3.0000000e+00 
5.5000000e+00 0.0000000e+00 6.0000000e+00 
5.5000000e+00 0.0000000e+00 9.0000000e+00 
5.5000000e+00 0.0000000e+00 1.2000000e+01 
5.5000000e+00 0.0000000e+00 1.5000000e+01 
5.5000000e+00 0.0000000e+00 1.8000000e+01 
6.0000000e+00 0.0000000e+00 0.0000000e+00 
6.0000000e+00 0.0000000e+00 2.5000000e-01 
6.0000000e+00 0.0000000e+00 5.0000000e-01 
6.0000000e+00 0.0000000e+00 7.5000000e-01 
6.0000000e+00 0.0000000e+00 1.0000000e+00 
6.0000000e+00 0.0000000e+00 1.2500000e+00 
6.0000000e+00 0.0000000e+00 1.5000000e+00 
6.0000000e+00 0.0000000e+00 1.7500000e+00 
6.0000000e+00 0.0000000e+00 2.0000000e+00 
6.0000000e+00 0.0000000e+00 2.2500000e+00 
6.0000000e+00 0.0000000e+00 2.5000000e+00 
6.0000000e+00 0.0000000e+00 2.7500000e+00 
6.0000000e+00 0.0000000e+00 3.0000000e+00 
6.0000000e+00 0.0000000e+00 3.2500000e+00 
6.0000000e+00 0.0000000e+00 3.5000000e+00 
6.0000000e+00 0.0000000e+00 3.7500000e+00 
6.0000000e+00 0.0000000e+00 4.0000000e+00 
6.0000000e+00 0.0000000e+00 4.2500000e+00 
6.0000000e+00 0.0000000e+00 4.5000000e+00 
6.0000000e+00 0.0000000e+00 4.7500000e+00 
6.0000000e+00 0.0000000e+00 5.0000000e+00 
6.0000000e+00 0.0000000e+00 5.2500000e+00 
6.0000000e+00 0.0000000e+00 5.5000000e+00 
6.0000000e+00 0.0000000e+00 5.7500000e+00 
6.0000000e+00 0.0000000e+00 6.0000000e+00 
6.0000000e+00 0.0000000e+00 6.2500000e+00 
6.0000000e+00 0.0000000e+00 6.5000000e+00 
6.0000000e+00 0.0000000e+00 6.7500000e+00 
6.0000000e+00 0.0000000e+00 7.0000000e+00 
6.0000000e+00 0.0000000e+00 7.2500000e+00 
6.0000000e+00 0.0000000e+00 7.5000000e+00 
6.0000000e+00 0.0000000e+00 7.7500000e+00 
6.0000000e+00 0.0000000e+00 8.0000000e+00 
6.0000000e+00 0.0000000e+00 8.2500000e+00 
6.0000000e+00 0.0000000e+00 8.5000000e+00 
6.0000000e+00 0.0000000e+00 8.7500000e+00 
6.0000000e+00 0.0000000e+00 9.0000000e+00 
6.0000000e+00 0.0000000e+00 9.2500000e+00 
6.0000000e+00 0.0000000e+00 9.5000000e+00 
6.0000000e+00 0.0000000e+00 9.7500000e+00 
6.0000000e+00 0.0000000e+00 1.0000000e+01 
6.0000000e+00 0.0000000e+00 1.0250000e+01 
6.0000000e+00 0.0000000e+00 1.0500000e+01 
6.0000000e+00 0.0000000e+00 1.0750000e+01 
6.0000000e+00 0.0000000e+00 1.1000000e+01 
6.0000000e+00 0.0000000e+00 1.1250000e+01 
6.0000000e+00 0.0000000e+00 1.1500000e+01 
6.0000000e+00 0.0000000e+00 1.1750000e+01 
6.0000000e+00 0.0000000e+00 1.2000000e+01 
6.0000000e+00 0.0000000e+00 1.2250000e+01 
6.0000000e+00 0.0000000e+00 1.2500000e+01 
6.0000000e+00 0.0000000e+00 1.2750000e+01 
6.0000000e+00 0.0000000e+00 1.3000000e+01 
6.0000000e+00 0.0000000e+00 1.3250000e+01 
6.0000000e+00 0.0000000e+00 1.3500000e+01 
6.0000000e+00 0.0000000e+00 1.3750000e+01 
6.0000000e+00 0.0000000e+00 1.4000000e+01 
6.0000000e+00 0.0000000e+00 1.4250000e+01 
6.0000000e+00 0.0000000e+00 1.4500000e+01 
6.0000000e+00 0.0000000e+00 1.4750000e+01 
6.0000000e+00 0.0000000e+00 1.5000000e+01 
6.0000000e+00 0.0000000e+00 1.5250000e+01 
6.0000000e+00 0.0000000e+00 1.5500000e+01 
6.0000000e+00 0.0000000e+00 1.5750000e+01 
6.0000000e+00 0.0000000e+00 1.6000000e+01 
6.0000000e+00 0.0000000e+00 1.6250000e+01 
6.0000000e+00 0.0000000e+00 1.6500000e+01 
6.0000000e+00 0.0000000e+00 1.6750000e+01 
6.0000000e+00 0.0000000e+00 1.7000000e+01 
6.0000000e+00 0.0000000e+00 1.7250000e+01 
6.0000000e+00 0.0000000e+00 1.7500000e+01 
6.0000000e+00 0.0000000e+00 1.7750000e+01 
6.0000000e+00 0.0000000e+00 1.8000000e+01 

CELLS 216 648
2 0 1
2 1 2
2 2 3
2 3 4
2 4 5
2 5 6
2 6 7
2 7 8
2 8 9
2 9 10
2 10 11
2 11 12
2 12 13
2 13 14
2 14 15
2 15 16
2 16 17
2 17 18
2 18 19
2 19 20
2 20 21
2 21 22
2 22 23
2 23 24
2 24 25
2 25 26
2 26 27
2 27 28
2 28 29
2 29 30
2 30 31
2 31 32
2 32 33
2 33 34
2 34 35
2 35 36
2 36 37
2 37 38
2 38 39
2 39 40
2 40 41
2 41 42
2 42 43
2 43 44
2 44 45
2 45 46
2 46 47
2 47 48
2 48 49
2 49 50
2 50 51
2 51 52
2 52 53
2 53 54
2 54 55
2 55 56
2 56 57
2 57 58
2 58 59
2 59 60
2 60 61
2 61 62
2 62 63
2 63 64
2 64 65
2 65 66
2 66 67
2 67 68
2 68 69
2 69 70
2 70 71
2 71 72
2 139 140
2 140 141
2 141 142
2 142 143
2 143 144
2 144 145
2 145 146
2 146 147
2 147 148
2 148 149
2 149 150
2 150 151
2 151 152
2 152 153
2 153 154
2 154 155
2 155 156
2 156 157
2 157 158
2 158 159
2 159 160
2 160 161
2 161 162
2 162 163
2 163 164
2 164 165
2 165 166
2 166 167
2 167 168
2 168 169
2 169 170
2 170 171
2 171 172
2 172 173
2 173 174
2 174 175
2 175 176
2 176 177
2 177 178
2 178 179
2 179 180
2 180 181
2 181 182
2 182 183
2 183 184
2 184 185
2 185 186
2 186 187
2 187 188
2 188 189
2 189 190
2 190 191
2 191 192
2 192 193
2 193 194
2 194 195
2 195 196
2 196 197
2 197 198
2 198 199
2 199 200
2 200 201
2 201 202
2 202 203
2 203 204
2 204 205
2 205 206
2 206 207
2 207 208
2 208 209
2 209 210
2 210 211
2 12 73
2 73 79
2 79 85
2 85 91
2 91 97
2 97 103
2 103 109
2 109 115
2 115 121
2 121 127
2 127 133
2 133 151
2 24 74
2 74 80
2 80 86
2 86 92
2 92 98
2 98 104
2 104 110
2 110 116
2 116 122
2 122 128
2 128 134
2 134 163
2 36 75
2 75 81
2 81 87
2 87 93
2 93 99
2 99 105
2 105 111
2 111 117
2 117 123
2 123 129
2 129 135
2 135 175
2 48 76
2 76 82
2 82 88
2 88 94
2 94 100
2 100 106
2 106 112
2 112 118
2 118 124
2 124 130
2 130 136
2 136 187
2 60 77
2 77 83
2 83 89
2 89 95
2 95 101
2 101 107
2 107 113
2 113 119
2 119 125
2 125 131
2 131 137
2 137 199
2 72 78
2 78 84
2 84 90
2 90 96
2 96 102
2 102 108
2 108 114
2 114 120
2 120 126
2 126 132
2 132 138
2 138 211

CELL_TYPES 216
3
3
3
3
3
3
3
3
3
3
3
3
3
3
3
3
3
3
3
3
3
3
3
3
3
3
3
3
3
3
3
3
3
3
3
3
3
3
3
3
3
3
3
3
3
3
3
3
3
3
3
3
3
3
3
3
3
3
3
3
3
3
3
3
3
3
3
3
3
3
3
3
3
3
3
3
3
3
3
3
3
3
3
3
3
3
3
3
3
3
3
3
3
3
3
3
3
3
3
3
3
3
3
3
3
3
3
3
3
3
3
3
3
3
3
3
3
3
3
3
3
3
3
3
3
3
3
3
3
3
3
3
3
3
3
3
3
3
3
3
3
3
3
3
3
3
3
3
3
3
3
3
3
3
3
3
3
3
3
3
3
3
3
3
3
3
3
3
3
3
3
3
3
3
3
3
3
3
3
3
3
3
3
3
3
3
3
3
3
3
3
3
3
3
3
3
3
3
3
3
3
3
3
3
3
3
3
3
3
3
3
3
3
3
3
3
POINT_DATA 212
FIELD FieldData 3
ADJOINT_DISPLACEMENT 3 212  float
0.0000000e+00 0.0000000e+00 0.0000000e+00 
-8.5133186e-04 0.0000000e+00 6.2769112e-16 
-1.6983494e-03 0.0000000e+00 1.2553822e-15 
-2.5367383e-03 0.0000000e+00 1.8830735e-15 
-3.3621839e-03 0.0000000e+00 2.5107645e-15 
-4.1703722e-03 0.0000000e+00 3.1384557e-15 
-4.9569882e-03 0.0000000e+00 3.7661469e-15 
-5.7177185e-03 0.0000000e+00 4.3938377e-15 
-6.4482479e-03 0.0000000e+00 5.0215289e-15 
-7.1442621e-03 0.0000000e+00 5.6492202e-15 
-7.8014475e-03 0.0000000e+00 6.2769114e-15 
-8.4154885e-03 0.0000000e+00 6.9046026e-15 
-8.9820717e-03 0.0000000e+00 7.5322938e-15 
-9.5869703e-03 0.0000000e+00 4.6225213e-07 
-1.0336271e-02 0.0000000e+00 9.2450421e-07 
-1.1256126e-02 0.0000000e+00 1.3867564e-06 
-1.2372691e-02 0.0000000e+00 1.8490084e-06 
-1.3712120e-02 0.0000000e+00 2.3112605e-06 
-1.5300568e-02 0.0000000e+00 2.7735127e-06 
-1.7164188e-02 0.0000000e+00 3.2357648e-06 
-1.9329136e-02 0.0000000e+00 3.6980168e-06 
-2.1821564e-02 0.0000000e+00 4.1602689e-06 
-2.4667630e-02 0.0000000e+00 4.6225209e-06 
-2.7893484e-02 0.0000000e+00 5.0847734e-06 
-3.1525284e-02 0.0000000e+00 5.5470255e-06 
-3.5975665e-02 0.0000000e+00 7.8585708e-06 
-4.1563179e-02 0.0000000e+00 1.0170117e-05 
-4.8172843e-02 0.0000000e+00 1.2481662e-05 
-5.5689678e-02 0.0000000e+00 1.4793208e-05 
-6.3998707e-02 0.0000000e+00 1.7104754e-05 
-7.2984949e-02 0.0000000e+00 1.9416300e-05 
-8.2533427e-02 0.0000000e+00 2.1727845e-05 
-9.2529163e-02 0.0000000e+00 2.4039391e-05 
-1.0285717e-01 0.0000000e+00 2.6350937e-05 
-1.1340248e-01 0.0000000e+00 2.8662482e-05 
-1.2405010e-01 0.0000000e+00 3.0974028e-05 
-1.3468505e-01 0.0000000e+00 3.3285574e-05 
-1.4692234e-01 0.0000000e+00 4.4382476e-05 
-1.6278353e-01 0.0000000e+00 5.5479377e-05 
-1.8276368e-01 0.0000000e+00 6.6576278e-05 
-2.0735778e-01 0.0000000e+00 7.7673183e-05 
-2.3706083e-01 0.0000000e+00 8.8770088e-05 
-2.7236784e-01 0.0000000e+00 9.9866986e-05 
-3.1377378e-01 0.0000000e+00 1.1096389e-04 
-3.6177370e-01 0.0000000e+00 1.2206079e-04 
-4.1686258e-01 0.0000000e+00 1.3315769e-04 
-4.7953543e-01 0.0000000e+00 1.4425459e-04 
-5.5028725e-01 0.0000000e+00 1.5535150e-04 
-6.2961304e-01 0.0000000e+00 1.6644840e-04 
-7.0895445e-01 0.0000000e+00 1.5537582e-04 
-7.7974916e-01 0.0000000e+00 1.4430324e-04 
-8.4248626e-01 0.0000000e+00 1.3323066e-04 
-8.9765501e-01 0.0000000e+00 1.2215808e-04 
-9.4574440e-01 0.0000000e+00 1.1108550e-04 
-9.8724365e-01 0.0000000e+00 1.0001292e-04 
-1.0226419e+00 0.0000000e+00 8.8940338e-05 
-1.0524281e+00 0.0000000e+00 7.7867757e-05 
-1.0770917e+00 0.0000000e+00 6.6795175e-05 
-1.0971216e+00 0.0000000e+00 5.5722598e-05 
-1.1130071e+00 0.0000000e+00 4.4650016e-05 
-1.1252372e+00 0.0000000e+00 3.3577438e-05 
-1.1358409e+00 0.0000000e+00 3.1363194e-05 
-1.1464585e+00 0.0000000e+00 2.9148950e-05 
-1.1569959e+00 0.0000000e+00 2.6934709e-05 
-1.1673588e+00 0.0000000e+00 2.4720466e-05 
-1.1774529e+00 0.0000000e+00 2.2506223e-05 
-1.1871843e+00 0.0000000e+00 2.0291980e-05 
-1.1964589e+00 0.0000000e+00 1.8077737e-05 
-1.2051823e+00 0.0000000e+00 1.5863494e-05 
-1.2132605e+00 0.0000000e+00 1.3649251e-05 
-1.2205993e+00 0.0000000e+00 1.1435009e-05 
-1.2271045e+00 0.0000000e+00 9.2207656e-06 
-1.2326821e+00 0.0000000e+00 7.0065225e-06 
-8.9838766e-03 0.0000000e+00 7.6361035e-04 
-3.1516928e-02 0.0000000e+00 6.1357827e-03 
-1.3472117e-01 0.0000000e+00 1.5096376e-02 
-6.2961274e-01 0.0000000e+00 2.0293330e-01 
-1.1252027e+00 0.0000000e+00 1.5014956e-02 
-1.2326877e+00 0.0000000e+00 8.2275774e-03 
-8.9856805e-03 0.0000000e+00 9.7204465e-04 
-3.1508569e-02 0.0000000e+00 9.4856536e-03 
-1.3475730e-01 0.0000000e+00 1.9506983e-02 
-6.2961239e-01 0.0000000e+00 -2.7870813e-02 
-1.1251681e+00 0.0000000e+00 1.9292967e-02 
-1.2326933e+00 0.0000000e+00 1.2958979e-02 
-8.9874845e-03 0.0000000e+00 7.5020420e-04 
-3.1500213e-02 0.0000000e+00 1.0554843e-02 
-1.3479342e-01 0.0000000e+00 1.5638927e-02 
-6.2961203e-01 0.0000000e+00 -1.9823612e-01 
-1.1251335e+00 0.0000000e+00 1.5261151e-02 
-1.2326988e+00 0.0000000e+00 1.4799504e-02 
-8.9892885e-03 0.0000000e+00 2.2299038e-04 
-3.1491853e-02 0.0000000e+00 9.8430328e-03 
-1.3482954e-01 0.0000000e+00 5.8660265e-03 
-6.2961167e-01 0.0000000e+00 -3.1415287e-01 
-1.1250991e+00 0.0000000e+00 5.3130458e-03 
-1.2327044e+00 0.0000000e+00 1.4347443e-02 
-8.9910934e-03 0.0000000e+00 -4.8469548e-04 
-3.1483497e-02 0.0000000e+00 7.8499047e-03 
-1.3486566e-01 0.0000000e+00 -7.4378992e-03 
-6.2961131e-01 0.0000000e+00 -3.8161129e-01 
-1.1250645e+00 0.0000000e+00 -8.1578102e-03 
-1.2327100e+00 0.0000000e+00 1.2201090e-02 
-8.9928973e-03 0.0000000e+00 -1.2479520e-03 
-3.1475142e-02 0.0000000e+00 5.0751423e-03 
-1.3490178e-01 0.0000000e+00 -2.1899031e-02 
-6.2961096e-01 0.0000000e+00 -4.0660158e-01 
-1.1250299e+00 0.0000000e+00 -2.2757879e-02 
-1.2327156e+00 0.0000000e+00 8.9587374e-03 
-8.9947013e-03 0.0000000e+00 -1.9418779e-03 
-3.1466782e-02 0.0000000e+00 2.0184272e-03 
-1.3493790e-01 0.0000000e+00 -3.5143550e-02 
-6.2961066e-01 0.0000000e+00 -3.9511403e-01 
-1.1249954e+00 0.0000000e+00 -3.6093622e-02 
-1.2327211e+00 0.0000000e+00 5.2186772e-03 
-8.9965053e-03 0.0000000e+00 -2.4415718e-03 
-3.1458426e-02 0.0000000e+00 -8.2055765e-04 
-1.3497402e-01 0.0000000e+00 -4.4797637e-02 
-6.2961030e-01 0.0000000e+00 -3.5313883e-01 
-1.1249609e+00 0.0000000e+00 -4.5771498e-02 
-1.2327267e+00 0.0000000e+00 1.5792012e-03 
-8.9983102e-03 0.0000000e+00 -2.6221322e-03 
-3.1450070e-02 0.0000000e+00 -2.9421300e-03 
-1.3501014e-01 0.0000000e+00 -4.8487473e-02 
-6.2960994e-01 0.0000000e+00 -2.8666624e-01 
-1.1249263e+00 0.0000000e+00 -4.9397968e-02 
-1.2327323e+00 0.0000000e+00 -1.3613974e-03 
-9.0001142e-03 0.0000000e+00 -2.3586580e-03 
-3.1441711e-02 0.0000000e+00 -3.8466072e-03 
-1.3504626e-01 0.0000000e+00 -4.3839239e-02 
-6.2960958e-01 0.0000000e+00 -2.0168650e-01 
-1.1248918e+00 0.0000000e+00 -4.4579498e-02 
-1.2327379e+00 0.0000000e+00 -3.0048266e-03 
-9.0019181e-03 0.0000000e+00 -1.5262477e-03 
-3.1433355e-02 0.0000000e+00 -3.0343072e-03 
-1.3508238e-01 0.0000000e+00 -2.8479116e-02 
-6.2960923e-01 0.0000000e+00 -1.0418983e-01 
-1.1248572e+00 0.0000000e+00 -2.8922549e-02 
-1.2327434e+00 0.0000000e+00 -2.7527937e-03 
0.0000000e+00 0.0000000e+00 0.0000000e+00 
-6.4748432e-04 0.0000000e+00 -5.6843799e-16 
-1.2992830e-03 0.0000000e+00 -1.1368759e-15 
-1.9597104e-03 0.0000000e+00 -1.7053138e-15 
-2.6330811e-03 0.0000000e+00 -2.2737515e-15 
-3.3237091e-03 0.0000000e+00 -2.8421886e-15 
-4.0359087e-03 0.0000000e+00 -3.4106252e-15 
-4.7739949e-03 0.0000000e+00 -3.9790626e-15 
-5.5422820e-03 0.0000000e+00 -4.5475014e-15 
-6.3450835e-03 0.0000000e+00 -5.1159405e-15 
-7.1867146e-03 0.0000000e+00 -5.6843839e-15 
-8.0714896e-03 0.0000000e+00 -6.2528286e-15 
-9.0037221e-03 0.0000000e+00 -6.8212728e-15 
-1.0084992e-02 0.0000000e+00 -4.6225213e-07 
-1.1396565e-02 0.0000000e+00 -9.2450421e-07 
-1.2912286e-02 0.0000000e+00 -1.3867564e-06 
-1.4606001e-02 0.0000000e+00 -1.8490084e-06 
-1.6451556e-02 0.0000000e+00 -2.3112605e-06 
-1.8422797e-02 0.0000000e+00 -2.7735127e-06 
-2.0493569e-02 0.0000000e+00 -3.2357648e-06 
-2.2637717e-02 0.0000000e+00 -3.6980168e-06 
-2.4829090e-02 0.0000000e+00 -4.1602689e-06 
-2.7041528e-02 0.0000000e+00 -4.6225209e-06 
-2.9248884e-02 0.0000000e+00 -5.0847734e-06 
-3.1424996e-02 0.0000000e+00 -5.5470255e-06 
-3.3906758e-02 0.0000000e+00 -7.8585708e-06 
-3.7125137e-02 0.0000000e+00 -1.0170117e-05 
-4.1195113e-02 0.0000000e+00 -1.2481662e-05 
-4.6231672e-02 0.0000000e+00 -1.4793208e-05 
-5.2349787e-02 0.0000000e+00 -1.7104754e-05 
-5.9664443e-02 0.0000000e+00 -1.9416300e-05 
-6.8290614e-02 0.0000000e+00 -2.1727845e-05 
-7.8343280e-02 0.0000000e+00 -2.4039391e-05 
-8.9937426e-02 0.0000000e+00 -2.6350937e-05 
-1.0318802e-01 0.0000000e+00 -2.8662482e-05 
-1.1821005e-01 0.0000000e+00 -3.0974028e-05 
-1.3511850e-01 0.0000000e+00 -3.3285574e-05 
-1.5585911e-01 0.0000000e+00 -4.4382476e-05 
-1.8197100e-01 0.0000000e+00 -5.5479377e-05 
-2.1295916e-01 0.0000000e+00 -6.6576278e-05 
-2.4832857e-01 0.0000000e+00 -7.7673183e-05 
-2.8758425e-01 0.0000000e+00 -8.8770088e-05 
-3.3023119e-01 0.0000000e+00 -9.9866986e-05 
-3.7577435e-01 0.0000000e+00 -1.1096389e-04 
-4.2371878e-01 0.0000000e+00 -1.2206079e-04 
-4.7356945e-01 0.0000000e+00 -1.3315769e-04 
-5.2483135e-01 0.0000000e+00 -1.4425459e-04 
-5.7700950e-01 0.0000000e+00 -1.5535150e-04 
-6.2960887e-01 0.0000000e+00 -1.6644840e-04 
-6.8220252e-01 0.0000000e+00 -1.5537582e-04 
-7.3436737e-01 0.0000000e+00 -1.4430324e-04 
-7.8561431e-01 0.0000000e+00 -1.3323066e-04 
-8.3545417e-01 0.0000000e+00 -1.2215808e-04 
-8.8339782e-01 0.0000000e+00 -1.1108550e-04 
-9.2895615e-01 0.0000000e+00 -1.0001292e-04 
-9.7164005e-01 0.0000000e+00 -8.8940338e-05 
-1.0109603e+00 0.0000000e+00 -7.7867757e-05 
-1.0464278e+00 0.0000000e+00 -6.6795175e-05 
-1.0775535e+00 0.0000000e+00 -5.5722598e-05 
-1.1038482e+00 0.0000000e+00 -4.4650016e-05 
-1.1248227e+00 0.0000000e+00 -3.3577438e-05 
-1.1420383e+00 0.0000000e+00 -3.1363194e-05 
-1.1574453e+00 0.0000000e+00 -2.9148950e-05 
-1.1711377e+00 0.0000000e+00 -2.6934709e-05 
-1.1832097e+00 0.0000000e+00 -2.4720466e-05 
-1.1937553e+00 0.0000000e+00 -2.2506223e-05 
-1.2028689e+00 0.0000000e+00 -2.0291980e-05 
-1.2106446e+00 0.0000000e+00 -1.8077737e-05 
-1.2171764e+00 0.0000000e+00 -1.5863494e-05 
-1.2225586e+00 0.0000000e+00 -1.3649251e-05 
-1.2268853e+00 0.0000000e+00 -1.1435009e-05 
-1.2302507e+00 0.0000000e+00 -9.2207656e-06 
-1.2327490e+00 0.0000000e+00 -7.0065225e-06 
ADJOINT_ROTATION 3 212  float
0.0000000e+00 -3.4082038e-03 0.0000000e+00 
0.0000000e+00 -3.3995751e-03 0.0000000e+00 
0.0000000e+00 -3.3736888e-03 0.0000000e+00 
0.0000000e+00 -3.3305450e-03 0.0000000e+00 
0.0000000e+00 -3.2701439e-03 0.0000000e+00 
0.0000000e+00 -3.1924851e-03 0.0000000e+00 
0.0000000e+00 -3.0975689e-03 0.0000000e+00 
0.0000000e+00 -2.9853953e-03 0.0000000e+00 
0.0000000e+00 -2.8559640e-03 0.0000000e+00 
0.0000000e+00 -2.7092753e-03 0.0000000e+00 
0.0000000e+00 -2.5453293e-03 0.0000000e+00 
0.0000000e+00 -2.3641256e-03 0.0000000e+00 
0.0000000e+00 -2.1656645e-03 0.0000000e+00 
0.0000000e+00 -2.6909607e-03 0.0000000e+00 
0.0000000e+00 -3.3208739e-03 0.0000000e+00 
0.0000000e+00 -4.0554046e-03 0.0000000e+00 
0.0000000e+00 -4.8945528e-03 0.0000000e+00 
0.0000000e+00 -5.8383178e-03 0.0000000e+00 
0.0000000e+00 -6.8867002e-03 0.0000000e+00 
0.0000000e+00 -8.0396999e-03 0.0000000e+00 
0.0000000e+00 -9.2973169e-03 0.0000000e+00 
0.0000000e+00 -1.0659551e-02 0.0000000e+00 
0.0000000e+00 -1.2126403e-02 0.0000000e+00 
0.0000000e+00 -1.3697872e-02 0.0000000e+00 
0.0000000e+00 -1.5373957e-02 0.0000000e+00 
0.0000000e+00 -2.0152440e-02 0.0000000e+00 
0.0000000e+00 -2.4471007e-02 0.0000000e+00 
0.0000000e+00 -2.8329656e-02 0.0000000e+00 
0.0000000e+00 -3.1728387e-02 0.0000000e+00 
0.0000000e+00 -3.4667198e-02 0.0000000e+00 
0.0000000e+00 -3.7146095e-02 0.0000000e+00 
0.0000000e+00 -3.9165076e-02 0.0000000e+00 
0.0000000e+00 -4.0724136e-02 0.0000000e+00 
0.0000000e+00 -4.1823279e-02 0.0000000e+00 
0.0000000e+00 -4.2462505e-02 0.0000000e+00 
0.0000000e+00 -4.2641815e-02 0.0000000e+00 
0.0000000e+00 -4.2361207e-02 0.0000000e+00 
0.0000000e+00 -5.5866953e-02 0.0000000e+00 
0.0000000e+00 -7.1352713e-02 0.0000000e+00 
0.0000000e+00 -8.8818483e-02 0.0000000e+00 
0.0000000e+00 -1.0826427e-01 0.0000000e+00 
0.0000000e+00 -1.2969008e-01 0.0000000e+00 
0.0000000e+00 -1.5309590e-01 0.0000000e+00 
0.0000000e+00 -1.7848174e-01 0.0000000e+00 
0.0000000e+00 -2.0584761e-01 0.0000000e+00 
0.0000000e+00 -2.3519348e-01 0.0000000e+00 
0.0000000e+00 -2.6651937e-01 0.0000000e+00 
0.0000000e+00 -2.9982525e-01 0.0000000e+00 
0.0000000e+00 -3.3511117e-01 0.0000000e+00 
0.0000000e+00 -2.9994610e-01 0.0000000e+00 
0.0000000e+00 -2.6673758e-01 0.0000000e+00 
0.0000000e+00 -2.3548557e-01 0.0000000e+00 
0.0000000e+00 -2.0619011e-01 0.0000000e+00 
0.0000000e+00 -1.7885119e-01 0.0000000e+00 
0.0000000e+00 -1.5346880e-01 0.0000000e+00 
0.0000000e+00 -1.3004296e-01 0.0000000e+00 
0.0000000e+00 -1.0857365e-01 0.0000000e+00 
0.0000000e+00 -8.9060888e-02 0.0000000e+00 
0.0000000e+00 -7.1504660e-02 0.0000000e+00 
0.0000000e+00 -5.5904970e-02 0.0000000e+00 
0.0000000e+00 -4.2261817e-02 0.0000000e+00 
0.0000000e+00 -4.2505525e-02 0.0000000e+00 
0.0000000e+00 -4.2372610e-02 0.0000000e+00 
0.0000000e+00 -4.1863073e-02 0.0000000e+00 
0.0000000e+00 -4.0976912e-02 0.0000000e+00 
0.0000000e+00 -3.9714128e-02 0.0000000e+00 
0.0000000e+00 -3.8074721e-02 0.0000000e+00 
0.0000000e+00 -3.6058687e-02 0.0000000e+00 
0.0000000e+00 -3.3666033e-02 0.0000000e+00 
0.0000000e+00 -3.0896753e-02 0.0000000e+00 
0.0000000e+00 -2.7750850e-02 0.0000000e+00 
0.0000000e+00 -2.4228323e-02 0.0000000e+00 
0.0000000e+00 -2.0329174e-02 0.0000000e+00 
0.0000000e+00 -9.3041087e-04 0.0000000e+00 
0.0000000e+00 -9.3135461e-03 0.0000000e+00 
0.0000000e+00 -1.8682424e-02 0.0000000e+00 
0.0000000e+00 -4.7395948e-01 0.0000000e+00 
0.0000000e+00 -1.8461544e-02 0.0000000e+00 
0.0000000e+00 -1.2752542e-02 0.0000000e+00 
0.0000000e+00 5.5039945e-05 0.0000000e+00 
0.0000000e+00 -4.2524994e-03 0.0000000e+00 
0.0000000e+00 2.4872154e-04 0.0000000e+00 
0.0000000e+00 3.9917269e-01 0.0000000e+00 
0.0000000e+00 5.5165077e-04 0.0000000e+00 
0.0000000e+00 -6.3724951e-03 0.0000000e+00 
0.0000000e+00 7.9068803e-04 0.0000000e+00 
0.0000000e+00 -1.9081769e-04 0.0000000e+00 
0.0000000e+00 1.4432229e-02 0.0000000e+00 
0.0000000e+00 2.8428531e-01 0.0000000e+00 
0.0000000e+00 1.4777768e-02 0.0000000e+00 
0.0000000e+00 -1.1890332e-03 0.0000000e+00 
0.0000000e+00 1.2765335e-03 0.0000000e+00 
0.0000000e+00 2.8714992e-03 0.0000000e+00 
0.0000000e+00 2.3868099e-02 0.0000000e+00 
0.0000000e+00 1.8137841e-01 0.0000000e+00 
0.0000000e+00 2.4216808e-02 0.0000000e+00 
0.0000000e+00 2.7978441e-03 0.0000000e+00 
0.0000000e+00 1.5125762e-03 0.0000000e+00 
0.0000000e+00 4.9344511e-03 0.0000000e+00 
0.0000000e+00 2.8556330e-02 0.0000000e+00 
0.0000000e+00 9.0451978e-02 0.0000000e+00 
0.0000000e+00 2.8868770e-02 0.0000000e+00 
0.0000000e+00 5.5881366e-03 0.0000000e+00 
0.0000000e+00 1.4988162e-03 0.0000000e+00 
0.0000000e+00 5.9980382e-03 0.0000000e+00 
0.0000000e+00 2.8496925e-02 0.0000000e+00 
0.0000000e+00 1.1506009e-02 0.0000000e+00 
0.0000000e+00 2.8733656e-02 0.0000000e+00 
0.0000000e+00 7.1818442e-03 0.0000000e+00 
0.0000000e+00 1.2352535e-03 0.0000000e+00 
0.0000000e+00 6.0622604e-03 0.0000000e+00 
0.0000000e+00 2.3689879e-02 0.0000000e+00 
0.0000000e+00 -5.5459488e-02 0.0000000e+00 
0.0000000e+00 2.3811465e-02 0.0000000e+00 
0.0000000e+00 7.5789671e-03 0.0000000e+00 
0.0000000e+00 7.2188815e-04 0.0000000e+00 
0.0000000e+00 5.1271180e-03 0.0000000e+00 
0.0000000e+00 1.4135197e-02 0.0000000e+00 
0.0000000e+00 -1.1044452e-01 0.0000000e+00 
0.0000000e+00 1.4102195e-02 0.0000000e+00 
0.0000000e+00 6.7795054e-03 0.0000000e+00 
0.0000000e+00 -4.1279960e-05 0.0000000e+00 
0.0000000e+00 3.1926103e-03 0.0000000e+00 
0.0000000e+00 -1.6712457e-04 0.0000000e+00 
0.0000000e+00 -1.5344909e-01 0.0000000e+00 
0.0000000e+00 -3.9415123e-04 0.0000000e+00 
0.0000000e+00 4.7834585e-03 0.0000000e+00 
0.0000000e+00 -1.0542508e-03 0.0000000e+00 
0.0000000e+00 2.5873794e-04 0.0000000e+00 
0.0000000e+00 -1.9217083e-02 0.0000000e+00 
0.0000000e+00 -1.8447317e-01 0.0000000e+00 
0.0000000e+00 -1.9677576e-02 0.0000000e+00 
0.0000000e+00 1.5908270e-03 0.0000000e+00 
0.0000000e+00 -2.3170242e-03 0.0000000e+00 
0.0000000e+00 -3.6744995e-03 0.0000000e+00 
0.0000000e+00 -4.3014683e-02 0.0000000e+00 
0.0000000e+00 -2.0351681e-01 0.0000000e+00 
0.0000000e+00 -4.3748077e-02 0.0000000e+00 
0.0000000e+00 -2.7983892e-03 0.0000000e+00 
0.0000000e+00 -2.5870609e-03 0.0000000e+00 
0.0000000e+00 -2.5956898e-03 0.0000000e+00 
0.0000000e+00 -2.6215760e-03 0.0000000e+00 
0.0000000e+00 -2.6647197e-03 0.0000000e+00 
0.0000000e+00 -2.7251209e-03 0.0000000e+00 
0.0000000e+00 -2.8027797e-03 0.0000000e+00 
0.0000000e+00 -2.8976959e-03 0.0000000e+00 
0.0000000e+00 -3.0098695e-03 0.0000000e+00 
0.0000000e+00 -3.1393007e-03 0.0000000e+00 
0.0000000e+00 -3.2859894e-03 0.0000000e+00 
0.0000000e+00 -3.4499357e-03 0.0000000e+00 
0.0000000e+00 -3.6311392e-03 0.0000000e+00 
0.0000000e+00 -3.8296005e-03 0.0000000e+00 
0.0000000e+00 -4.8031206e-03 0.0000000e+00 
0.0000000e+00 -5.6720232e-03 0.0000000e+00 
0.0000000e+00 -6.4363088e-03 0.0000000e+00 
0.0000000e+00 -7.0959772e-03 0.0000000e+00 
0.0000000e+00 -7.6510282e-03 0.0000000e+00 
0.0000000e+00 -8.1014615e-03 0.0000000e+00 
0.0000000e+00 -8.4472783e-03 0.0000000e+00 
0.0000000e+00 -8.6884778e-03 0.0000000e+00 
0.0000000e+00 -8.8250590e-03 0.0000000e+00 
0.0000000e+00 -8.8570239e-03 0.0000000e+00 
0.0000000e+00 -8.7843714e-03 0.0000000e+00 
0.0000000e+00 -8.6071016e-03 0.0000000e+00 
0.0000000e+00 -1.1323624e-02 0.0000000e+00 
0.0000000e+00 -1.4500064e-02 0.0000000e+00 
0.0000000e+00 -1.8136421e-02 0.0000000e+00 
0.0000000e+00 -2.2232696e-02 0.0000000e+00 
0.0000000e+00 -2.6788888e-02 0.0000000e+00 
0.0000000e+00 -3.1804997e-02 0.0000000e+00 
0.0000000e+00 -3.7281025e-02 0.0000000e+00 
0.0000000e+00 -4.3216966e-02 0.0000000e+00 
0.0000000e+00 -4.9612828e-02 0.0000000e+00 
0.0000000e+00 -5.6468606e-02 0.0000000e+00 
0.0000000e+00 -6.3784301e-02 0.0000000e+00 
0.0000000e+00 -7.1559913e-02 0.0000000e+00 
0.0000000e+00 -9.4035007e-02 0.0000000e+00 
0.0000000e+00 -1.1453009e-01 0.0000000e+00 
0.0000000e+00 -1.3304514e-01 0.0000000e+00 
0.0000000e+00 -1.4958018e-01 0.0000000e+00 
0.0000000e+00 -1.6413522e-01 0.0000000e+00 
0.0000000e+00 -1.7671023e-01 0.0000000e+00 
0.0000000e+00 -1.8730523e-01 0.0000000e+00 
0.0000000e+00 -1.9592020e-01 0.0000000e+00 
0.0000000e+00 -2.0255516e-01 0.0000000e+00 
0.0000000e+00 -2.0721011e-01 0.0000000e+00 
0.0000000e+00 -2.0988505e-01 0.0000000e+00 
0.0000000e+00 -2.1057996e-01 0.0000000e+00 
0.0000000e+00 -2.0984307e-01 0.0000000e+00 
0.0000000e+00 -2.0714962e-01 0.0000000e+00 
0.0000000e+00 -2.0249966e-01 0.0000000e+00 
0.0000000e+00 -1.9589314e-01 0.0000000e+00 
0.0000000e+00 -1.8733008e-01 0.0000000e+00 
0.0000000e+00 -1.7681050e-01 0.0000000e+00 
0.0000000e+00 -1.6433437e-01 0.0000000e+00 
0.0000000e+00 -1.4990170e-01 0.0000000e+00 
0.0000000e+00 -1.3351250e-01 0.0000000e+00 
0.0000000e+00 -1.1516675e-01 0.0000000e+00 
0.0000000e+00 -9.4864473e-02 0.0000000e+00 
0.0000000e+00 -7.2605655e-02 0.0000000e+00 
0.0000000e+00 -6.5182433e-02 0.0000000e+00 
0.0000000e+00 -5.8135841e-02 0.0000000e+00 