# vtk DataFile Version 4.0
vtk output
ASCII
DATASET UNSTRUCTURED_GRID
POINTS 30 float
0.0000000e+00 0.0000000e+00 0.0000000e+00 
0.0000000e+00 0.0000000e+00 8.0000001e-01 
0.0000000e+00 0.0000000e+00 1.6000000e+00 
0.0000000e+00 0.0000000e+00 2.4000001e+00 
0.0000000e+00 0.0000000e+00 3.2000000e+00 
0.0000000e+00 0.0000000e+00 4.0000000e+00 
0.0000000e+00 0.0000000e+00 4.8000002e+00 
0.0000000e+00 0.0000000e+00 5.5999999e+00 
0.0000000e+00 0.0000000e+00 6.4000001e+00 
0.0000000e+00 0.0000000e+00 7.1999998e+00 
0.0000000e+00 0.0000000e+00 8.0000000e+00 
1.0000000e+01 0.0000000e+00 0.0000000e+00 
1.0000000e+01 0.0000000e+00 8.0000001e-01 
1.0000000e+01 0.0000000e+00 1.6000000e+00 
1.0000000e+01 0.0000000e+00 2.4000001e+00 
1.0000000e+01 0.0000000e+00 3.2000000e+00 
1.0000000e+01 0.0000000e+00 4.0000000e+00 
1.0000000e+01 0.0000000e+00 4.8000002e+00 
1.0000000e+01 0.0000000e+00 5.5999999e+00 
1.0000000e+01 0.0000000e+00 6.4000001e+00 
1.0000000e+01 0.0000000e+00 7.1999998e+00 
1.0000000e+01 0.0000000e+00 8.0000000e+00 
2.0000000e+00 0.0000000e+00 4.0000000e+00 
4.0000000e+00 0.0000000e+00 4.0000000e+00 
6.0000000e+00 0.0000000e+00 4.0000000e+00 
8.0000000e+00 0.0000000e+00 4.0000000e+00 
2.0000000e+00 0.0000000e+00 8.0000000e+00 
4.0000000e+00 0.0000000e+00 8.0000000e+00 
6.0000000e+00 0.0000000e+00 8.0000000e+00 
8.0000000e+00 0.0000000e+00 8.0000000e+00 

CELLS 30 90
2 0 1
2 1 2
2 2 3
2 3 4
2 4 5
2 5 6
2 6 7
2 7 8
2 8 9
2 9 10
2 11 12
2 12 13
2 13 14
2 14 15
2 15 16
2 16 17
2 17 18
2 18 19
2 19 20
2 20 21
2 5 22
2 22 23
2 23 24
2 24 25
2 25 16
2 10 26
2 26 27
2 27 28
2 28 29
2 29 21

CELL_TYPES 30
3
3
3
3
3
3
3
3
3
3
3
3
3
3
3
3
3
3
3
3
3
3
3
3
3
3
3
3
3
3
POINT_DATA 30
FIELD FieldData 7
DISPLACEMENT 3 30  float
0.0000000e+00 0.0000000e+00 0.0000000e+00 
-6.9495114e-03 0.0000000e+00 1.5329055e-06 
-1.3532231e-02 0.0000000e+00 3.0658109e-06 
-1.9407392e-02 0.0000000e+00 3.0776469e-06 
-2.4338333e-02 0.0000000e+00 3.0894826e-06 
-2.8118273e-02 0.0000000e+00 -4.1180357e-07 
-3.1094281e-02 0.0000000e+00 -1.0687791e-06 
-3.3664241e-02 0.0000000e+00 -1.7516656e-06 
-3.5737362e-02 0.0000000e+00 -2.4345522e-06 
-3.7235841e-02 0.0000000e+00 -3.7593190e-06 
-3.8116917e-02 0.0000000e+00 -7.0252786e-06 
0.0000000e+00 0.0000000e+00 0.0000000e+00 
-7.2435904e-03 0.0000000e+00 8.4741832e-06 
-1.4022715e-02 0.0000000e+00 1.9254898e-05 
-1.9974038e-02 0.0000000e+00 3.0035611e-05 
-2.4769925e-02 0.0000000e+00 3.7649206e-05 
-2.8124409e-02 0.0000000e+00 4.5262801e-05 
-3.0599376e-02 0.0000000e+00 4.6797446e-05 
-3.2865386e-02 0.0000000e+00 4.6254871e-05 
-3.4884088e-02 0.0000000e+00 4.5712295e-05 
-3.6638334e-02 0.0000000e+00 4.5169720e-05 
-3.8110975e-02 0.0000000e+00 4.4627141e-05 
-2.8121270e-02 0.0000000e+00 4.7069858e-03 
-2.8121101e-02 0.0000000e+00 4.0816818e-03 
-2.8127845e-02 0.0000000e+00 6.9600233e-04 
-2.8126851e-02 0.0000000e+00 -2.1109513e-03 
-3.8111247e-02 0.0000000e+00 -3.7152553e-05 
-3.8108338e-02 0.0000000e+00 -1.4718764e-03 
-3.8110882e-02 0.0000000e+00 -2.5673523e-03 
-3.8111981e-02 0.0000000e+00 -2.2767701e-03 
ROTATION 3 30  float
0.0000000e+00 -8.7633040e-03 0.0000000e+00 
0.0000000e+00 -8.5340589e-03 0.0000000e+00 
0.0000000e+00 -7.8463247e-03 0.0000000e+00 
0.0000000e+00 -6.7976969e-03 0.0000000e+00 
0.0000000e+00 -5.4857745e-03 0.0000000e+00 
0.0000000e+00 -3.9250096e-03 0.0000000e+00 
0.0000000e+00 -3.4882736e-03 0.0000000e+00 
0.0000000e+00 -2.9192755e-03 0.0000000e+00 
0.0000000e+00 -2.2461803e-03 0.0000000e+00 
0.0000000e+00 -1.4894963e-03 0.0000000e+00 
0.0000000e+00 -7.1916461e-04 0.0000000e+00 
0.0000000e+00 -9.1565186e-03 0.0000000e+00 
0.0000000e+00 -8.8504264e-03 0.0000000e+00 
0.0000000e+00 -8.0269575e-03 0.0000000e+00 
0.0000000e+00 -6.7809224e-03 0.0000000e+00 
0.0000000e+00 -5.1513873e-03 0.0000000e+00 
0.0000000e+00 -3.1774207e-03 0.0000000e+00 
0.0000000e+00 -2.9799305e-03 0.0000000e+00 
0.0000000e+00 -2.6815180e-03 0.0000000e+00 
0.0000000e+00 -2.3616671e-03 0.0000000e+00 
0.0000000e+00 -2.0203779e-03 0.0000000e+00 
0.0000000e+00 -1.6576503e-03 0.0000000e+00 
0.0000000e+00 -8.6287170e-04 0.0000000e+00 
0.0000000e+00 1.2533560e-03 0.0000000e+00 
0.0000000e+00 1.8659231e-03 0.0000000e+00 
0.0000000e+00 5.7190174e-04 0.0000000e+00 
0.0000000e+00 5.4297084e-04 0.0000000e+00 
0.0000000e+00 7.4455800e-04 0.0000000e+00 
0.0000000e+00 2.7409659e-04 0.0000000e+00 
0.0000000e+00 -6.3360384e-04 0.0000000e+00 
REACTION 3 30  float
2.2566305e+04 -0.0000000e+00 -4.0238770e+03 
-4.6566129e-10 -0.0000000e+00 -0.0000000e+00 
-2.4410838e-09 -0.0000000e+00 1.3642421e-12 
3.9581209e-09 -0.0000000e+00 -0.0000000e+00 
-1.8262654e-09 -0.0000000e+00 -1.8189894e-12 
9.0003596e-09 -0.0000000e+00 2.2173481e-09 
1.3739736e-08 -0.0000000e+00 1.2398687e-09 
-2.9103830e-09 -0.0000000e+00 -2.5102054e-10 
-8.7393346e-09 -0.0000000e+00 2.7284841e-11 
-2.6557245e-10 -0.0000000e+00 -1.6370905e-11 
-8.9839887e-09 -0.0000000e+00 2.9103830e-11 
3.0130988e+04 -0.0000000e+00 -2.2244730e+04 
6.1481842e-10 -0.0000000e+00 -1.3096724e-10 
-3.4924597e-09 -0.0000000e+00 -2.9103830e-11 
-1.1714292e-09 -0.0000000e+00 2.9831426e-10 
8.0326572e-09 -0.0000000e+00 4.2200554e-10 
8.4182830e-09 -0.0000000e+00 5.5806595e-09 
7.1031536e-10 -0.0000000e+00 8.1854523e-12 
-4.0745363e-09 -0.0000000e+00 -1.4551915e-11 
-1.8626451e-09 -0.0000000e+00 3.2596290e-09 
9.3132257e-10 -0.0000000e+00 -0.0000000e+00 
3.7252903e-09 -0.0000000e+00 4.8021320e-10 
4.5656634e-10 -0.0000000e+00 -4.2346073e-09 
-8.1572580e-09 -0.0000000e+00 3.5106495e-10 
1.7262209e-09 -0.0000000e+00 -2.1682354e-09 
-1.1408702e-08 -0.0000000e+00 -1.6007107e-10 
6.7102519e-09 -0.0000000e+00 -2.0008883e-11 
6.9430826e-09 -0.0000000e+00 5.1386451e-11 
-4.5308752e-09 -0.0000000e+00 -3.4742698e-09 
-2.8312570e-09 -0.0000000e+00 2.1827873e-11 
REACTION_MOMENT 3 30  float
-0.0000000e+00 3.4924597e-10 -0.0000000e+00 
-0.0000000e+00 -4.6566129e-10 -0.0000000e+00 
-0.0000000e+00 -3.1432137e-09 -0.0000000e+00 
-0.0000000e+00 -5.8207661e-11 -0.0000000e+00 
-0.0000000e+00 -1.2165401e-08 -0.0000000e+00 
-0.0000000e+00 -9.8589226e-09 -0.0000000e+00 
-0.0000000e+00 -2.0663720e-09 -0.0000000e+00 
-0.0000000e+00 1.2223609e-09 -0.0000000e+00 
-0.0000000e+00 6.3591870e-09 -0.0000000e+00 
-0.0000000e+00 2.8740033e-09 -0.0000000e+00 
-0.0000000e+00 6.1118044e-10 -0.0000000e+00 
-0.0000000e+00 -4.6566129e-10 -0.0000000e+00 
-0.0000000e+00 -5.8207661e-10 -0.0000000e+00 
-0.0000000e+00 1.1641532e-10 -0.0000000e+00 
-0.0000000e+00 1.1641532e-10 -0.0000000e+00 
-0.0000000e+00 1.1641532e-10 -0.0000000e+00 
-0.0000000e+00 -9.0221874e-10 -0.0000000e+00 
-0.0000000e+00 -5.8207661e-10 -0.0000000e+00 
-0.0000000e+00 -2.0372681e-10 -0.0000000e+00 
-0.0000000e+00 1.9499566e-09 -0.0000000e+00 
-0.0000000e+00 -1.7462298e-10 -0.0000000e+00 
-0.0000000e+00 3.3469405e-10 -0.0000000e+00 
-0.0000000e+00 -8.0035534e-10 -0.0000000e+00 
-0.0000000e+00 1.0913936e-10 -0.0000000e+00 
-0.0000000e+00 -2.0008883e-10 -0.0000000e+00 
-0.0000000e+00 -1.0913936e-10 -0.0000000e+00 
-0.0000000e+00 3.6379788e-12 -0.0000000e+00 
-0.0000000e+00 3.8198777e-11 -0.0000000e+00 
-0.0000000e+00 -3.6379788e-12 -0.0000000e+00 
-0.0000000e+00 3.6379788e-11 -0.0000000e+00 
VOLUME_ACCELERATION 3 30  float
0.0000000e+00 0.0000000e+00 0.0000000e+00 
0.0000000e+00 0.0000000e+00 0.0000000e+00 
0.0000000e+00 0.0000000e+00 0.0000000e+00 
0.0000000e+00 0.0000000e+00 0.0000000e+00 
0.0000000e+00 0.0000000e+00 0.0000000e+00 
0.0000000e+00 0.0000000e+00 0.0000000e+00 
0.0000000e+00 0.0000000e+00 0.0000000e+00 
0.0000000e+00 0.0000000e+00 0.0000000e+00 
0.0000000e+00 0.0000000e+00 0.0000000e+00 
0.0000000e+00 0.0000000e+00 0.0000000e+00 
0.0000000e+00 0.0000000e+00 0.0000000e+00 
0.0000000e+00 0.0000000e+00 0.0000000e+00 
0.0000000e+00 0.0000000e+00 0.0000000e+00 
0.0000000e+00 0.0000000e+00 0.0000000e+00 
0.0000000e+00 0.0000000e+00 0.0000000e+00 
0.0000000e+00 0.0000000e+00 0.0000000e+00 
0.0000000e+00 0.0000000e+00 0.0000000e+00 
0.0000000e+00 0.0000000e+00 0.0000000e+00 
0.0000000e+00 0.0000000e+00 0.0000000e+00 
0.0000000e+00 0.0000000e+00 0.0000000e+00 
0.0000000e+00 0.0000000e+00 0.0000000e+00 
0.0000000e+00 0.0000000e+00 0.0000000e+00 
0.0000000e+00 0.0000000e+00 0.0000000e+00 
0.0000000e+00 0.0000000e+00 0.0000000e+00 
0.0000000e+00 0.0000000e+00 0.0000000e+00 
0.0000000e+00 0.0000000e+00 0.0000000e+00 
0.0000000e+00 0.0000000e+00 0.0000000e+00 
0.0000000e+00 0.0000000e+00 0.0000000e+00 
0.0000000e+00 0.0000000e+00 0.0000000e+00 
0.0000000e+00 0.0000000e+00 0.0000000e+00 
POINT_LOAD 3 30  float
0.0000000e+00 0.0000000e+00 0.0000000e+00 
0.0000000e+00 0.0000000e+00 0.0000000e+00 
-9.6072539e+03 0.0000000e+00 3.9928079e+03 
0.0000000e+00 0.0000000e+00 0.0000000e+00 
-1.4227124e+03 0.0000000e+00 9.2219453e+03 
-4.9392682e+02 0.0000000e+00 -3.6634492e+03 
-2.7724363e+03 0.0000000e+00 6.8016586e+01 
0.0000000e+00 0.0000000e+00 0.0000000e+00 
-2.0188250e+03 0.0000000e+00 1.6849354e+03 
-4.8659834e+03 0.0000000e+00 5.0956309e+03 
-4.1917119e+03 0.0000000e+00 1.1755275e+03 
0.0000000e+00 0.0000000e+00 0.0000000e+00 
-9.3327773e+03 0.0000000e+00 -6.0546450e+03 
0.0000000e+00 0.0000000e+00 0.0000000e+00 
-3.8457080e+03 0.0000000e+00 8.3136895e+03 
0.0000000e+00 0.0000000e+00 0.0000000e+00 
-5.5094136e+03 0.0000000e+00 -5.2724136e+03 
-7.8241611e+03 0.0000000e+00 5.4527070e+03 
0.0000000e+00 0.0000000e+00 0.0000000e+00 
0.0000000e+00 0.0000000e+00 0.0000000e+00 
0.0000000e+00 0.0000000e+00 0.0000000e+00 
0.0000000e+00 0.0000000e+00 0.0000000e+00 
-3.3233882e+03 0.0000000e+00 7.2923564e+03 
7.2570645e+03 0.0000000e+00 1.4922067e+03 
-8.1231460e+03 0.0000000e+00 4.8539097e+03 
-1.5207205e+03 0.0000000e+00 3.7883147e+03 
2.8948142e+03 0.0000000e+00 -2.7937058e+03 
5.7318755e+03 0.0000000e+00 -3.3251648e+03 
-1.5198524e+03 0.0000000e+00 -3.7308673e+02 
-2.2090310e+03 0.0000000e+00 -4.6809756e+03 
POINT_MOMENT 3 30  float
0.0000000e+00 0.0000000e+00 0.0000000e+00 
0.0000000e+00 0.0000000e+00 0.0000000e+00 
0.0000000e+00 0.0000000e+00 0.0000000e+00 
0.0000000e+00 0.0000000e+00 0.0000000e+00 
0.0000000e+00 0.0000000e+00 0.0000000e+00 
0.0000000e+00 0.0000000e+00 0.0000000e+00 
0.0000000e+00 0.0000000e+00 0.0000000e+00 
0.0000000e+00 0.0000000e+00 0.0000000e+00 
0.0000000e+00 0.0000000e+00 0.0000000e+00 
0.0000000e+00 0.0000000e+00 0.0000000e+00 
0.0000000e+00 0.0000000e+00 0.0000000e+00 
0.0000000e+00 0.0000000e+00 0.0000000e+00 
0.0000000e+00 0.0000000e+00 0.0000000e+00 
0.0000000e+00 0.0000000e+00 0.0000000e+00 
0.0000000e+00 0.0000000e+00 0.0000000e+00 
0.0000000e+00 0.0000000e+00 0.0000000e+00 
0.0000000e+00 0.0000000e+00 0.0000000e+00 
0.0000000e+00 0.0000000e+00 0.0000000e+00 
0.0000000e+00 0.0000000e+00 0.0000000e+00 
0.0000000e+00 0.0000000e+00 0.0000000e+00 
0.0000000e+00 0.0000000e+00 0.0000000e+00 
0.0000000e+00 0.0000000e+00 0.0000000e+00 
0.0000000e+00 0.0000000e+00 0.0000000e+00 
0.0000000e+00 0.0000000e+00 0.0000000e+00 
0.0000000e+00 0.0000000e+00 0.0000000e+00 
0.0000000e+00 0.0000000e+00 0.0000000e+00 
0.0000000e+00 0.0000000e+00 0.0000000e+00 
0.0000000e+00 0.0000000e+00 0.0000000e+00 
0.0000000e+00 0.0000000e+00 0.0000000e+00 
0.0000000e+00 0.0000000e+00 0.0000000e+00 
CELL_DATA 30
FIELD FieldData 9
YOUNG_MODULUS 1 30  float
2.1000000e+11
2.1000000e+11
2.1000000e+11
2.1000000e+11
2.1000000e+11
2.1000000e+11
2.1000000e+11
2.1000000e+11
2.1000000e+11
2.1000000e+11
2.1000000e+11
2.1000000e+11
2.1000000e+11
2.1000000e+11
2.1000000e+11
2.1000000e+11
2.1000000e+11
2.1000000e+11
2.1000000e+11
2.1000000e+11
2.1000000e+11
2.1000000e+11
2.1000000e+11
2.1000000e+11
2.1000000e+11
2.1000000e+11
2.1000000e+11
2.1000000e+11
2.1000000e+11
2.1000000e+11
DENSITY 1 30  float
7.8500000e+03
7.8500000e+03
7.8500000e+03
7.8500000e+03
7.8500000e+03
7.8500000e+03
7.8500000e+03
7.8500000e+03
7.8500000e+03
7.8500000e+03
7.8500000e+03
7.8500000e+03
7.8500000e+03
7.8500000e+03
7.8500000e+03
7.8500000e+03
7.8500000e+03
7.8500000e+03
7.8500000e+03
7.8500000e+03
7.8500000e+03
7.8500000e+03
7.8500000e+03
7.8500000e+03
7.8500000e+03
7.8500000e+03
7.8500000e+03
7.8500000e+03
7.8500000e+03
7.8500000e+03
CROSS_AREA 1 30  float
9.9999998e-03
9.9999998e-03
9.9999998e-03
9.9999998e-03
9.9999998e-03
9.9999998e-03
9.9999998e-03
9.9999998e-03
9.9999998e-03
9.9999998e-03
9.9999998e-03
9.9999998e-03
9.9999998e-03
9.9999998e-03
9.9999998e-03
9.9999998e-03
9.9999998e-03
9.9999998e-03
9.9999998e-03
9.9999998e-03
9.9999998e-03
9.9999998e-03
9.9999998e-03
9.9999998e-03
9.9999998e-03
9.9999998e-03
9.9999998e-03
9.9999998e-03
9.9999998e-03
9.9999998e-03
I22 1 30  float
1.5000001e-04
1.5000001e-04
1.5000001e-04
1.5000001e-04
1.5000001e-04
1.5000001e-04
1.5000001e-04
1.5000001e-04
1.5000001e-04
1.5000001e-04
1.5000001e-04
1.5000001e-04
1.5000001e-04
1.5000001e-04
1.5000001e-04
1.5000001e-04
1.5000001e-04
1.5000001e-04
1.5000001e-04
1.5000001e-04
1.5000001e-04
1.5000001e-04
1.5000001e-04
1.5000001e-04
1.5000001e-04
1.5000001e-04
1.5000001e-04
1.5000001e-04
1.5000001e-04
1.5000001e-04
I33 1 30  float
1.5000001e-04
1.5000001e-04
1.5000001e-04
1.5000001e-04
1.5000001e-04
1.5000001e-04
1.5000001e-04
1.5000001e-04
1.5000001e-04
1.5000001e-04
1.5000001e-04
1.5000001e-04
1.5000001e-04
1.5000001e-04
1.5000001e-04
1.5000001e-04
1.5000001e-04
1.5000001e-04
1.5000001e-04
1.5000001e-04
1.5000001e-04
1.5000001e-04
1.5000001e-04
1.5000001e-04
1.5000001e-04
1.5000001e-04
1.5000001e-04
1.5000001e-04
1.5000001e-04
1.5000001e-04
TORSIONAL_INERTIA 1 30  float
3.0000001e-04
3.0000001e-04
3.0000001e-04
3.0000001e-04
3.0000001e-04
3.0000001e-04
3.0000001e-04
3.0000001e-04
3.0000001e-04
3.0000001e-04
3.0000001e-04
3.0000001e-04
3.0000001e-04
3.0000001e-04
3.0000001e-04
3.0000001e-04
3.0000001e-04
3.0000001e-04
3.0000001e-04
3.0000001e-04
3.0000001e-04
3.0000001e-04
3.0000001e-04
3.0000001e-04
3.0000001e-04
3.0000001e-04
3.0000001e-04
3.0000001e-04
3.0000001e-04
3.0000001e-04
POISSON_RATIO 1 30  float
3.0000001e-01
3.0000001e-01
3.0000001e-01
3.0000001e-01
3.0000001e-01
3.0000001e-01
3.0000001e-01
3.0000001e-01
3.0000001e-01
3.0000001e-01
3.0000001e-01
3.0000001e-01
3.0000001e-01
3.0000001e-01
3.0000001e-01
3.0000001e-01
3.0000001e-01
3.0000001e-01
3.0000001e-01
3.0000001e-01
3.0000001e-01
3.0000001e-01
3.0000001e-01
3.0000001e-01
3.0000001e-01
3.0000001e-01
3.0000001e-01
3.0000001e-01
3.0000001e-01
3.0000001e-01
MOMENT 3 30  float
0.0000000e+00 9.0265215e+03 0.0000000e+00 
0.0000000e+00 2.7079564e+04 0.0000000e+00 
0.0000000e+00 4.1289707e+04 0.0000000e+00 
0.0000000e+00 5.1656949e+04 0.0000000e+00 
0.0000000e+00 6.1455102e+04 0.0000000e+00 
0.0000000e+00 1.7196488e+04 0.0000000e+00 
0.0000000e+00 2.2404295e+04 0.0000000e+00 
0.0000000e+00 2.6503129e+04 0.0000000e+00 
0.0000000e+00 2.9794432e+04 0.0000000e+00 
0.0000000e+00 3.0331811e+04 0.0000000e+00 
0.0000000e+00 1.2052396e+04 0.0000000e+00 
0.0000000e+00 3.2424076e+04 0.0000000e+00 
0.0000000e+00 4.9062645e+04 0.0000000e+00 
0.0000000e+00 6.4162930e+04 0.0000000e+00 
0.0000000e+00 7.7724938e+04 0.0000000e+00 
0.0000000e+00 7.7761851e+03 0.0000000e+00 
0.0000000e+00 1.1749987e+04 0.0000000e+00 
0.0000000e+00 1.2594126e+04 0.0000000e+00 
0.0000000e+00 1.3438264e+04 0.0000000e+00 
0.0000000e+00 1.4282401e+04 0.0000000e+00 
0.0000000e+00 4.8228676e+04 0.0000000e+00 
0.0000000e+00 3.3330586e+04 0.0000000e+00 
0.0000000e+00 9.6479326e+03 0.0000000e+00 
0.0000000e+00 -2.0380836e+04 0.0000000e+00 
0.0000000e+00 -5.9051832e+04 0.0000000e+00 
0.0000000e+00 1.9878633e+04 0.0000000e+00 
0.0000000e+00 3.1749978e+03 0.0000000e+00 
0.0000000e+00 -7.4097676e+03 0.0000000e+00 
0.0000000e+00 -1.4296281e+04 0.0000000e+00 
0.0000000e+00 -1.6128732e+04 0.0000000e+00 
FORCE 3 30  float
4.0238770e+03 0.0000000e+00 2.2566305e+04 
4.0238770e+03 0.0000000e+00 2.2566305e+04 
3.1069042e+01 0.0000000e+00 1.2959051e+04 
3.1069042e+01 0.0000000e+00 1.2959051e+04 
-9.1908760e+03 0.0000000e+00 1.1536338e+04 
-1.7245607e+03 0.0000000e+00 7.8959775e+03 
-1.7925773e+03 0.0000000e+00 5.1235415e+03 
-1.7925773e+03 0.0000000e+00 5.1235415e+03 
-3.4775127e+03 0.0000000e+00 3.1047163e+03 
-8.5731436e+03 0.0000000e+00 -1.7612668e+03 
2.2244730e+04 0.0000000e+00 3.0130988e+04 
2.8299375e+04 0.0000000e+00 2.0798211e+04 
2.8299375e+04 0.0000000e+00 2.0798211e+04 
1.9985686e+04 0.0000000e+00 1.6952504e+04 
1.9985686e+04 0.0000000e+00 1.6952504e+04 
4.0284451e+03 0.0000000e+00 8.8793340e+03 
-1.4242621e+03 0.0000000e+00 1.0551725e+03 
-1.4242621e+03 0.0000000e+00 1.0551725e+03 
-1.4242621e+03 0.0000000e+00 1.0551725e+03 
-1.4242621e+03 0.0000000e+00 1.0551725e+03 
-3.1464338e+03 0.0000000e+00 -3.8028665e+03 
1.7695442e+02 0.0000000e+00 -1.1095223e+04 
-7.0801099e+03 0.0000000e+00 -1.2587430e+04 
1.0430359e+03 0.0000000e+00 -1.7441340e+04 
2.5637563e+03 0.0000000e+00 -2.1229654e+04 
5.9529785e+03 0.0000000e+00 -9.7486709e+03 
3.0581643e+03 0.0000000e+00 -6.9549648e+03 
-2.6737109e+03 0.0000000e+00 -3.6298003e+03 
-1.1538586e+03 0.0000000e+00 -3.2567136e+03 
1.0551725e+03 0.0000000e+00 1.4242621e+03 
