# vtk DataFile Version 4.0
vtk output
ASCII
DATASET UNSTRUCTURED_GRID
POINTS 30 float
0.0000000e+00 0.0000000e+00 0.0000000e+00 
0.0000000e+00 0.0000000e+00 8.0000001e-01 
0.0000000e+00 0.0000000e+00 1.6000000e+00 
0.0000000e+00 0.0000000e+00 2.4000001e+00 
0.0000000e+00 0.0000000e+00 3.2000000e+00 
0.0000000e+00 0.0000000e+00 4.0000000e+00 
0.0000000e+00 0.0000000e+00 4.8000002e+00 
0.0000000e+00 0.0000000e+00 5.5999999e+00 
0.0000000e+00 0.0000000e+00 6.4000001e+00 
0.0000000e+00 0.0000000e+00 7.1999998e+00 
0.0000000e+00 0.0000000e+00 8.0000000e+00 
1.0000000e+01 0.0000000e+00 0.0000000e+00 
1.0000000e+01 0.0000000e+00 8.0000001e-01 
1.0000000e+01 0.0000000e+00 1.6000000e+00 
1.0000000e+01 0.0000000e+00 2.4000001e+00 
1.0000000e+01 0.0000000e+00 3.2000000e+00 
1.0000000e+01 0.0000000e+00 4.0000000e+00 
1.0000000e+01 0.0000000e+00 4.8000002e+00 
1.0000000e+01 0.0000000e+00 5.5999999e+00 
1.0000000e+01 0.0000000e+00 6.4000001e+00 
1.0000000e+01 0.0000000e+00 7.1999998e+00 
1.0000000e+01 0.0000000e+00 8.0000000e+00 
2.0000000e+00 0.0000000e+00 4.0000000e+00 
4.0000000e+00 0.0000000e+00 4.0000000e+00 
6.0000000e+00 0.0000000e+00 4.0000000e+00 
8.0000000e+00 0.0000000e+00 4.0000000e+00 
2.0000000e+00 0.0000000e+00 8.0000000e+00 
4.0000000e+00 0.0000000e+00 8.0000000e+00 
6.0000000e+00 0.0000000e+00 8.0000000e+00 
8.0000000e+00 0.0000000e+00 8.0000000e+00 

CELLS 30 90
2 0 1
2 1 2
2 2 3
2 3 4
2 4 5
2 5 6
2 6 7
2 7 8
2 8 9
2 9 10
2 11 12
2 12 13
2 13 14
2 14 15
2 15 16
2 16 17
2 17 18
2 18 19
2 19 20
2 20 21
2 5 22
2 22 23
2 23 24
2 24 25
2 25 16
2 10 26
2 26 27
2 27 28
2 28 29
2 29 21

CELL_TYPES 30
3
3
3
3
3
3
3
3
3
3
3
3
3
3
3
3
3
3
3
3
3
3
3
3
3
3
3
3
3
3
POINT_DATA 30
FIELD FieldData 7
DISPLACEMENT 3 30  float
0.0000000e+00 0.0000000e+00 0.0000000e+00 
1.3758264e-03 0.0000000e+00 -2.9403175e-06 
2.6701074e-03 0.0000000e+00 -6.5877539e-06 
3.8278152e-03 0.0000000e+00 -9.2918008e-06 
4.7937348e-03 0.0000000e+00 -1.5448219e-05 
5.4808035e-03 0.0000000e+00 -2.2442842e-05 
5.8317054e-03 0.0000000e+00 -3.0126141e-05 
6.0236161e-03 0.0000000e+00 -3.6047553e-05 
6.1802953e-03 0.0000000e+00 -4.4608209e-05 
6.3856053e-03 0.0000000e+00 -5.0930230e-05 
6.6586370e-03 0.0000000e+00 -5.4160460e-05 
0.0000000e+00 0.0000000e+00 0.0000000e+00 
1.2010937e-03 0.0000000e+00 1.9103136e-06 
2.4347487e-03 0.0000000e+00 4.8697020e-06 
3.6366587e-03 0.0000000e+00 7.8290905e-06 
4.7101644e-03 0.0000000e+00 1.1285015e-05 
5.5075516e-03 0.0000000e+00 1.8195387e-05 
6.0582357e-03 0.0000000e+00 2.7355456e-05 
6.4751077e-03 0.0000000e+00 3.3858934e-05 
6.7245574e-03 0.0000000e+00 3.8029866e-05 
6.7733550e-03 0.0000000e+00 4.1556035e-05 
6.6277026e-03 0.0000000e+00 4.2747513e-05 
5.4959995e-03 0.0000000e+00 -8.9231221e-04 
5.5080052e-03 0.0000000e+00 -6.4675655e-04 
5.5108075e-03 0.0000000e+00 -4.5580171e-05 
5.5136099e-03 0.0000000e+00 4.0786376e-04 
6.6546714e-03 0.0000000e+00 -1.0255331e-03 
6.6439114e-03 0.0000000e+00 -1.7394075e-03 
6.6331509e-03 0.0000000e+00 -1.6872005e-03 
6.6266865e-03 0.0000000e+00 -7.7543460e-04 
ROTATION 3 30  float
0.0000000e+00 1.7381953e-03 0.0000000e+00 
0.0000000e+00 1.6829586e-03 0.0000000e+00 
0.0000000e+00 1.5428732e-03 0.0000000e+00 
0.0000000e+00 1.3405065e-03 0.0000000e+00 
0.0000000e+00 1.0587040e-03 0.0000000e+00 
0.0000000e+00 6.2338455e-04 0.0000000e+00 
0.0000000e+00 3.0386931e-04 0.0000000e+00 
0.0000000e+00 1.9668396e-04 0.0000000e+00 
0.0000000e+00 2.1660696e-04 0.0000000e+00 
0.0000000e+00 2.9434919e-04 0.0000000e+00 
0.0000000e+00 3.9977720e-04 0.0000000e+00 
0.0000000e+00 1.4895384e-03 0.0000000e+00 
0.0000000e+00 1.5250247e-03 0.0000000e+00 
0.0000000e+00 1.5406704e-03 0.0000000e+00 
0.0000000e+00 1.4456625e-03 0.0000000e+00 
0.0000000e+00 1.2094880e-03 0.0000000e+00 
0.0000000e+00 7.3223450e-04 0.0000000e+00 
0.0000000e+00 6.1849563e-04 0.0000000e+00 
0.0000000e+00 4.2211750e-04 0.0000000e+00 
0.0000000e+00 1.9173993e-04 0.0000000e+00 
0.0000000e+00 -7.0650225e-05 0.0000000e+00 
0.0000000e+00 -2.7234448e-04 0.0000000e+00 
0.0000000e+00 1.4872949e-04 0.0000000e+00 
0.0000000e+00 -2.8183195e-04 0.0000000e+00 
0.0000000e+00 -2.9149975e-04 0.0000000e+00 
0.0000000e+00 -1.3409952e-04 0.0000000e+00 
0.0000000e+00 4.8241363e-04 0.0000000e+00 
0.0000000e+00 1.9843879e-04 0.0000000e+00 
0.0000000e+00 -2.8366767e-04 0.0000000e+00 
0.0000000e+00 -5.0972746e-04 0.0000000e+00 
REACTION 3 30  float
-5.4373682e+03 -0.0000000e+00 7.7183335e+03 
-1.6370905e-11 -0.0000000e+00 -0.0000000e+00 
2.7284841e-10 -0.0000000e+00 -3.6379788e-12 
-8.4583007e-10 -0.0000000e+00 3.6379788e-12 
8.5128704e-10 -0.0000000e+00 -0.0000000e+00 
-1.4733814e-09 -0.0000000e+00 -7.2395778e-10 
-2.5574991e-09 -0.0000000e+00 -1.2914825e-10 
-1.4188117e-10 -0.0000000e+00 3.2741809e-11 
1.6780177e-09 -0.0000000e+00 -0.0000000e+00 
6.5301720e-10 -0.0000000e+00 1.0913936e-11 
-1.0895747e-09 -0.0000000e+00 -6.3664629e-12 
3.4931838e+03 -0.0000000e+00 -5.0145732e+03 
1.3278623e-10 -0.0000000e+00 -7.2759576e-12 
5.2386895e-10 -0.0000000e+00 6.7302608e-11 
3.0195224e-10 -0.0000000e+00 -8.3673513e-11 
-1.8135324e-09 -0.0000000e+00 -1.0913936e-11 
-3.3214747e-09 -0.0000000e+00 -4.9112714e-10 
1.8480932e-09 -0.0000000e+00 7.2759576e-12 
-4.3519321e-10 -0.0000000e+00 -3.6379788e-11 
2.0008883e-11 -0.0000000e+00 -3.8380676e-10 
1.4188117e-10 -0.0000000e+00 2.7284841e-12 
1.8662831e-09 -0.0000000e+00 2.4283509e-10 
4.1291059e-10 -0.0000000e+00 9.9498720e-10 
1.3878889e-09 -0.0000000e+00 6.3209882e-11 
-0.0000000e+00 -0.0000000e+00 -8.3855412e-10 
1.1878001e-09 -0.0000000e+00 7.4578566e-11 
9.2768460e-10 -0.0000000e+00 -2.5920599e-11 
-9.3132257e-10 -0.0000000e+00 1.0913936e-11 
3.6652636e-10 -0.0000000e+00 2.0918378e-10 
-7.2668627e-10 -0.0000000e+00 5.0022209e-12 
REACTION_MOMENT 3 30  float
-0.0000000e+00 1.4551915e-10 -0.0000000e+00 
-0.0000000e+00 2.4738256e-10 -0.0000000e+00 
-0.0000000e+00 6.5483619e-10 -0.0000000e+00 
-0.0000000e+00 -4.6566129e-10 -0.0000000e+00 
-0.0000000e+00 2.3137545e-09 -0.0000000e+00 
-0.0000000e+00 2.5565896e-09 -0.0000000e+00 
-0.0000000e+00 2.6739144e-10 -0.0000000e+00 
-0.0000000e+00 8.4037310e-10 -0.0000000e+00 
-0.0000000e+00 2.9103830e-10 -0.0000000e+00 
-0.0000000e+00 -4.6202331e-10 -0.0000000e+00 
-0.0000000e+00 -2.6921043e-10 -0.0000000e+00 
-0.0000000e+00 -2.9103830e-11 -0.0000000e+00 
-0.0000000e+00 -8.7311491e-11 -0.0000000e+00 
-0.0000000e+00 1.6007107e-10 -0.0000000e+00 
-0.0000000e+00 1.3096724e-10 -0.0000000e+00 
-0.0000000e+00 -0.0000000e+00 -0.0000000e+00 
-0.0000000e+00 -1.7462298e-10 -0.0000000e+00 
-0.0000000e+00 -2.1100277e-10 -0.0000000e+00 
-0.0000000e+00 8.2218321e-10 -0.0000000e+00 
-0.0000000e+00 -2.8740033e-10 -0.0000000e+00 
-0.0000000e+00 1.6916601e-10 -0.0000000e+00 
-0.0000000e+00 -2.2919266e-10 -0.0000000e+00 
-0.0000000e+00 4.3291948e-10 -0.0000000e+00 
-0.0000000e+00 -2.1827873e-11 -0.0000000e+00 
-0.0000000e+00 -0.0000000e+00 -0.0000000e+00 
-0.0000000e+00 3.6379788e-11 -0.0000000e+00 
-0.0000000e+00 -9.0949470e-12 -0.0000000e+00 
-0.0000000e+00 1.0913936e-11 -0.0000000e+00 
-0.0000000e+00 7.2759576e-12 -0.0000000e+00 
-0.0000000e+00 1.7280399e-11 -0.0000000e+00 
VOLUME_ACCELERATION 3 30  float
0.0000000e+00 0.0000000e+00 0.0000000e+00 
0.0000000e+00 0.0000000e+00 0.0000000e+00 
0.0000000e+00 0.0000000e+00 0.0000000e+00 
0.0000000e+00 0.0000000e+00 0.0000000e+00 
0.0000000e+00 0.0000000e+00 0.0000000e+00 
0.0000000e+00 0.0000000e+00 0.0000000e+00 
0.0000000e+00 0.0000000e+00 0.0000000e+00 
0.0000000e+00 0.0000000e+00 0.0000000e+00 
0.0000000e+00 0.0000000e+00 0.0000000e+00 
0.0000000e+00 0.0000000e+00 0.0000000e+00 
0.0000000e+00 0.0000000e+00 0.0000000e+00 
0.0000000e+00 0.0000000e+00 0.0000000e+00 
0.0000000e+00 0.0000000e+00 0.0000000e+00 
0.0000000e+00 0.0000000e+00 0.0000000e+00 
0.0000000e+00 0.0000000e+00 0.0000000e+00 
0.0000000e+00 0.0000000e+00 0.0000000e+00 
0.0000000e+00 0.0000000e+00 0.0000000e+00 
0.0000000e+00 0.0000000e+00 0.0000000e+00 
0.0000000e+00 0.0000000e+00 0.0000000e+00 
0.0000000e+00 0.0000000e+00 0.0000000e+00 
0.0000000e+00 0.0000000e+00 0.0000000e+00 
0.0000000e+00 0.0000000e+00 0.0000000e+00 
0.0000000e+00 0.0000000e+00 0.0000000e+00 
0.0000000e+00 0.0000000e+00 0.0000000e+00 
0.0000000e+00 0.0000000e+00 0.0000000e+00 
0.0000000e+00 0.0000000e+00 0.0000000e+00 
0.0000000e+00 0.0000000e+00 0.0000000e+00 
0.0000000e+00 0.0000000e+00 0.0000000e+00 
0.0000000e+00 0.0000000e+00 0.0000000e+00 
0.0000000e+00 0.0000000e+00 0.0000000e+00 
POINT_LOAD 3 30  float
0.0000000e+00 0.0000000e+00 0.0000000e+00 
2.5224561e+03 0.0000000e+00 1.8561870e+03 
-3.0101016e+02 0.0000000e+00 -2.4763972e+03 
-1.3876002e+03 0.0000000e+00 9.0624717e+03 
-5.9047900e+03 0.0000000e+00 2.2002937e+03 
9.3185361e+03 0.0000000e+00 6.4267100e+03 
-8.6299834e+03 0.0000000e+00 -4.6249473e+03 
2.4098860e+02 0.0000000e+00 6.9280049e+03 
-7.0616362e+03 0.0000000e+00 -5.8764023e+03 
4.0953730e+03 0.0000000e+00 -8.1159624e+03 
7.5314514e+02 0.0000000e+00 -4.2655088e+03 
0.0000000e+00 0.0000000e+00 0.0000000e+00 
-8.9394238e+03 0.0000000e+00 -2.7538215e+03 
0.0000000e+00 0.0000000e+00 0.0000000e+00 
-3.0035879e+03 0.0000000e+00 -1.3034052e+03 
-6.8315713e+03 0.0000000e+00 -9.0679277e+03 
1.2484700e+03 0.0000000e+00 3.9445928e+03 
7.2095088e+03 0.0000000e+00 6.9735532e+03 
-2.4215325e+03 0.0000000e+00 6.1229321e+03 
2.6171133e+03 0.0000000e+00 1.6925028e+03 
6.5088804e+03 0.0000000e+00 6.1285688e+03 
-5.1752227e+03 0.0000000e+00 4.8338281e+03 
3.3491025e+03 0.0000000e+00 -9.9323564e+03 
9.6639834e+03 0.0000000e+00 3.9977549e+03 
0.0000000e+00 0.0000000e+00 0.0000000e+00 
9.3030684e+03 0.0000000e+00 -8.5343877e+03 
7.1347456e+03 0.0000000e+00 -2.6535552e+03 
0.0000000e+00 0.0000000e+00 0.0000000e+00 
-4.5105815e+03 0.0000000e+00 -7.1533076e+03 
-7.8542490e+03 0.0000000e+00 3.8868184e+03 
POINT_MOMENT 3 30  float
0.0000000e+00 0.0000000e+00 0.0000000e+00 
0.0000000e+00 0.0000000e+00 0.0000000e+00 
0.0000000e+00 0.0000000e+00 0.0000000e+00 
0.0000000e+00 0.0000000e+00 0.0000000e+00 
0.0000000e+00 0.0000000e+00 0.0000000e+00 
0.0000000e+00 0.0000000e+00 0.0000000e+00 
0.0000000e+00 0.0000000e+00 0.0000000e+00 
0.0000000e+00 0.0000000e+00 0.0000000e+00 
0.0000000e+00 0.0000000e+00 0.0000000e+00 
0.0000000e+00 0.0000000e+00 0.0000000e+00 
0.0000000e+00 0.0000000e+00 0.0000000e+00 
0.0000000e+00 0.0000000e+00 0.0000000e+00 
0.0000000e+00 0.0000000e+00 0.0000000e+00 
0.0000000e+00 0.0000000e+00 0.0000000e+00 
0.0000000e+00 0.0000000e+00 0.0000000e+00 
0.0000000e+00 0.0000000e+00 0.0000000e+00 
0.0000000e+00 0.0000000e+00 0.0000000e+00 
0.0000000e+00 0.0000000e+00 0.0000000e+00 
0.0000000e+00 0.0000000e+00 0.0000000e+00 
0.0000000e+00 0.0000000e+00 0.0000000e+00 
0.0000000e+00 0.0000000e+00 0.0000000e+00 
0.0000000e+00 0.0000000e+00 0.0000000e+00 
0.0000000e+00 0.0000000e+00 0.0000000e+00 
0.0000000e+00 0.0000000e+00 0.0000000e+00 
0.0000000e+00 0.0000000e+00 0.0000000e+00 
0.0000000e+00 0.0000000e+00 0.0000000e+00 
0.0000000e+00 0.0000000e+00 0.0000000e+00 
0.0000000e+00 0.0000000e+00 0.0000000e+00 
0.0000000e+00 0.0000000e+00 0.0000000e+00 
0.0000000e+00 0.0000000e+00 0.0000000e+00 
CELL_DATA 30
FIELD FieldData 9
YOUNG_MODULUS 1 30  float
2.1000000e+11
2.1000000e+11
2.1000000e+11
2.1000000e+11
2.1000000e+11
2.1000000e+11
2.1000000e+11
2.1000000e+11
2.1000000e+11
2.1000000e+11
2.1000000e+11
2.1000000e+11
2.1000000e+11
2.1000000e+11
2.1000000e+11
2.1000000e+11
2.1000000e+11
2.1000000e+11
2.1000000e+11
2.1000000e+11
2.1000000e+11
2.1000000e+11
2.1000000e+11
2.1000000e+11
2.1000000e+11
2.1000000e+11
2.1000000e+11
2.1000000e+11
2.1000000e+11
2.1000000e+11
DENSITY 1 30  float
7.8500000e+03
7.8500000e+03
7.8500000e+03
7.8500000e+03
7.8500000e+03
7.8500000e+03
7.8500000e+03
7.8500000e+03
7.8500000e+03
7.8500000e+03
7.8500000e+03
7.8500000e+03
7.8500000e+03
7.8500000e+03
7.8500000e+03
7.8500000e+03
7.8500000e+03
7.8500000e+03
7.8500000e+03
7.8500000e+03
7.8500000e+03
7.8500000e+03
7.8500000e+03
7.8500000e+03
7.8500000e+03
7.8500000e+03
7.8500000e+03
7.8500000e+03
7.8500000e+03
7.8500000e+03
CROSS_AREA 1 30  float
9.9999998e-03
9.9999998e-03
9.9999998e-03
9.9999998e-03
9.9999998e-03
9.9999998e-03
9.9999998e-03
9.9999998e-03
9.9999998e-03
9.9999998e-03
9.9999998e-03
9.9999998e-03
9.9999998e-03
9.9999998e-03
9.9999998e-03
9.9999998e-03
9.9999998e-03
9.9999998e-03
9.9999998e-03
9.9999998e-03
9.9999998e-03
9.9999998e-03
9.9999998e-03
9.9999998e-03
9.9999998e-03
9.9999998e-03
9.9999998e-03
9.9999998e-03
9.9999998e-03
9.9999998e-03
I22 1 30  float
1.5000001e-04
1.5000001e-04
1.5000001e-04
1.5000001e-04
1.5000001e-04
1.5000001e-04
1.5000001e-04
1.5000001e-04
1.5000001e-04
1.5000001e-04
1.5000001e-04
1.5000001e-04
1.5000001e-04
1.5000001e-04
1.5000001e-04
1.5000001e-04
1.5000001e-04
1.5000001e-04
1.5000001e-04
1.5000001e-04
1.5000001e-04
1.5000001e-04
1.5000001e-04
1.5000001e-04
1.5000001e-04
1.5000001e-04
1.5000001e-04
1.5000001e-04
1.5000001e-04
1.5000001e-04
I33 1 30  float
1.5000001e-04
1.5000001e-04
1.5000001e-04
1.5000001e-04
1.5000001e-04
1.5000001e-04
1.5000001e-04
1.5000001e-04
1.5000001e-04
1.5000001e-04
1.5000001e-04
1.5000001e-04
1.5000001e-04
1.5000001e-04
1.5000001e-04
1.5000001e-04
1.5000001e-04
1.5000001e-04
1.5000001e-04
1.5000001e-04
1.5000001e-04
1.5000001e-04
1.5000001e-04
1.5000001e-04
1.5000001e-04
1.5000001e-04
1.5000001e-04
1.5000001e-04
1.5000001e-04
1.5000001e-04
TORSIONAL_INERTIA 1 30  float
3.0000001e-04
3.0000001e-04
3.0000001e-04
3.0000001e-04
3.0000001e-04
3.0000001e-04
3.0000001e-04
3.0000001e-04
3.0000001e-04
3.0000001e-04
3.0000001e-04
3.0000001e-04
3.0000001e-04
3.0000001e-04
3.0000001e-04
3.0000001e-04
3.0000001e-04
3.0000001e-04
3.0000001e-04
3.0000001e-04
3.0000001e-04
3.0000001e-04
3.0000001e-04
3.0000001e-04
3.0000001e-04
3.0000001e-04
3.0000001e-04
3.0000001e-04
3.0000001e-04
3.0000001e-04
POISSON_RATIO 1 30  float
3.0000001e-01
3.0000001e-01
3.0000001e-01
3.0000001e-01
3.0000001e-01
3.0000001e-01
3.0000001e-01
3.0000001e-01
3.0000001e-01
3.0000001e-01
3.0000001e-01
3.0000001e-01
3.0000001e-01
3.0000001e-01
3.0000001e-01
3.0000001e-01
3.0000001e-01
3.0000001e-01
3.0000001e-01
3.0000001e-01
3.0000001e-01
3.0000001e-01
3.0000001e-01
3.0000001e-01
3.0000001e-01
3.0000001e-01
3.0000001e-01
3.0000001e-01
3.0000001e-01
3.0000001e-01
MOMENT 3 30  float
0.0000000e+00 -2.1749473e+03 0.0000000e+00 
0.0000000e+00 -5.5158594e+03 0.0000000e+00 
0.0000000e+00 -7.9681929e+03 0.0000000e+00 
0.0000000e+00 -1.1095971e+04 0.0000000e+00 
0.0000000e+00 -1.7140705e+04 0.0000000e+00 
0.0000000e+00 -1.2580912e+04 0.0000000e+00 
0.0000000e+00 -4.2204229e+03 0.0000000e+00 
0.0000000e+00 7.8446814e+02 0.0000000e+00 
0.0000000e+00 3.0611003e+03 0.0000000e+00 
0.0000000e+00 4.1512275e+03 0.0000000e+00 
0.0000000e+00 1.3972736e+03 0.0000000e+00 
0.0000000e+00 6.1605139e+02 0.0000000e+00 
0.0000000e+00 -3.7409402e+03 0.0000000e+00 
0.0000000e+00 -9.2993672e+03 0.0000000e+00 
0.0000000e+00 -1.8791857e+04 0.0000000e+00 
0.0000000e+00 -4.4784692e+03 0.0000000e+00 
0.0000000e+00 -7.7323882e+03 0.0000000e+00 
0.0000000e+00 -9.0711162e+03 0.0000000e+00 
0.0000000e+00 -1.0331612e+04 0.0000000e+00 
0.0000000e+00 -7.9417114e+03 0.0000000e+00 
0.0000000e+00 -7.4758169e+03 0.0000000e+00 
0.0000000e+00 -6.7813428e+03 0.0000000e+00 
0.0000000e+00 -1.5226741e+02 0.0000000e+00 
0.0000000e+00 2.4790532e+03 0.0000000e+00 
0.0000000e+00 1.3644761e+04 0.0000000e+00 
0.0000000e+00 1.3015240e+03 0.0000000e+00 
0.0000000e+00 -4.4726040e+03 0.0000000e+00 
0.0000000e+00 -7.5931768e+03 0.0000000e+00 
0.0000000e+00 -3.5604419e+03 0.0000000e+00 
0.0000000e+00 3.7387820e+03 0.0000000e+00 
FORCE 3 30  float
-7.7183335e+03 0.0000000e+00 -5.4373682e+03 
-9.5745205e+03 0.0000000e+00 -2.9149119e+03 
-7.0981235e+03 0.0000000e+00 -3.2159221e+03 
-1.6160595e+04 0.0000000e+00 -4.6035225e+03 
-1.8360889e+04 0.0000000e+00 -1.0508312e+04 
-2.0168658e+04 0.0000000e+00 1.4765603e+04 
-1.5543710e+04 0.0000000e+00 6.1356196e+03 
-2.2471715e+04 0.0000000e+00 6.3766084e+03 
-1.6595312e+04 0.0000000e+00 -6.8502771e+02 
-8.4793506e+03 0.0000000e+00 3.4103455e+03 
5.0145732e+03 0.0000000e+00 3.4931838e+03 
7.7683950e+03 0.0000000e+00 -5.4462393e+03 
7.7683950e+03 0.0000000e+00 -5.4462393e+03 
9.0717998e+03 0.0000000e+00 -8.4498271e+03 
1.8139729e+04 0.0000000e+00 -1.5281398e+04 
2.4045182e+04 0.0000000e+00 -7.6721533e+03 
1.7071629e+04 0.0000000e+00 -4.6264438e+02 
1.0948697e+04 0.0000000e+00 -2.8841768e+03 
9.2561943e+03 0.0000000e+00 -2.6706363e+02 
3.1276252e+03 0.0000000e+00 6.2418164e+03 
1.5955379e+04 0.0000000e+00 -4.6189409e+03 
1.2606276e+04 0.0000000e+00 5.3134150e+03 
2.9422927e+03 0.0000000e+00 1.3156603e+03 
2.9422927e+03 0.0000000e+00 1.3156603e+03 
-6.3607754e+03 0.0000000e+00 9.8500479e+03 
-4.1634907e+03 0.0000000e+00 -4.2138413e+03 
-1.1298236e+04 0.0000000e+00 -1.5602865e+03 
-1.1298236e+04 0.0000000e+00 -1.5602865e+03 
-6.7876548e+03 0.0000000e+00 5.5930210e+03 
1.0665940e+03 0.0000000e+00 1.7062029e+03 
