# vtk DataFile Version 4.0
vtk output
ASCII
DATASET UNSTRUCTURED_GRID
POINTS 212 float
0.0000000e+00 0.0000000e+00 0.0000000e+00 
0.0000000e+00 0.0000000e+00 2.5000000e-01 
0.0000000e+00 0.0000000e+00 5.0000000e-01 
0.0000000e+00 0.0000000e+00 7.5000000e-01 
0.0000000e+00 0.0000000e+00 1.0000000e+00 
0.0000000e+00 0.0000000e+00 1.2500000e+00 
0.0000000e+00 0.0000000e+00 1.5000000e+00 
0.0000000e+00 0.0000000e+00 1.7500000e+00 
0.0000000e+00 0.0000000e+00 2.0000000e+00 
0.0000000e+00 0.0000000e+00 2.2500000e+00 
0.0000000e+00 0.0000000e+00 2.5000000e+00 
0.0000000e+00 0.0000000e+00 2.7500000e+00 
0.0000000e+00 0.0000000e+00 3.0000000e+00 
0.0000000e+00 0.0000000e+00 3.2500000e+00 
0.0000000e+00 0.0000000e+00 3.5000000e+00 
0.0000000e+00 0.0000000e+00 3.7500000e+00 
0.0000000e+00 0.0000000e+00 4.0000000e+00 
0.0000000e+00 0.0000000e+00 4.2500000e+00 
0.0000000e+00 0.0000000e+00 4.5000000e+00 
0.0000000e+00 0.0000000e+00 4.7500000e+00 
0.0000000e+00 0.0000000e+00 5.0000000e+00 
0.0000000e+00 0.0000000e+00 5.2500000e+00 
0.0000000e+00 0.0000000e+00 5.5000000e+00 
0.0000000e+00 0.0000000e+00 5.7500000e+00 
0.0000000e+00 0.0000000e+00 6.0000000e+00 
0.0000000e+00 0.0000000e+00 6.2500000e+00 
0.0000000e+00 0.0000000e+00 6.5000000e+00 
0.0000000e+00 0.0000000e+00 6.7500000e+00 
0.0000000e+00 0.0000000e+00 7.0000000e+00 
0.0000000e+00 0.0000000e+00 7.2500000e+00 
0.0000000e+00 0.0000000e+00 7.5000000e+00 
0.0000000e+00 0.0000000e+00 7.7500000e+00 
0.0000000e+00 0.0000000e+00 8.0000000e+00 
0.0000000e+00 0.0000000e+00 8.2500000e+00 
0.0000000e+00 0.0000000e+00 8.5000000e+00 
0.0000000e+00 0.0000000e+00 8.7500000e+00 
0.0000000e+00 0.0000000e+00 9.0000000e+00 
0.0000000e+00 0.0000000e+00 9.2500000e+00 
0.0000000e+00 0.0000000e+00 9.5000000e+00 
0.0000000e+00 0.0000000e+00 9.7500000e+00 
0.0000000e+00 0.0000000e+00 1.0000000e+01 
0.0000000e+00 0.0000000e+00 1.0250000e+01 
0.0000000e+00 0.0000000e+00 1.0500000e+01 
0.0000000e+00 0.0000000e+00 1.0750000e+01 
0.0000000e+00 0.0000000e+00 1.1000000e+01 
0.0000000e+00 0.0000000e+00 1.1250000e+01 
0.0000000e+00 0.0000000e+00 1.1500000e+01 
0.0000000e+00 0.0000000e+00 1.1750000e+01 
0.0000000e+00 0.0000000e+00 1.2000000e+01 
0.0000000e+00 0.0000000e+00 1.2250000e+01 
0.0000000e+00 0.0000000e+00 1.2500000e+01 
0.0000000e+00 0.0000000e+00 1.2750000e+01 
0.0000000e+00 0.0000000e+00 1.3000000e+01 
0.0000000e+00 0.0000000e+00 1.3250000e+01 
0.0000000e+00 0.0000000e+00 1.3500000e+01 
0.0000000e+00 0.0000000e+00 1.3750000e+01 
0.0000000e+00 0.0000000e+00 1.4000000e+01 
0.0000000e+00 0.0000000e+00 1.4250000e+01 
0.0000000e+00 0.0000000e+00 1.4500000e+01 
0.0000000e+00 0.0000000e+00 1.4750000e+01 
0.0000000e+00 0.0000000e+00 1.5000000e+01 
0.0000000e+00 0.0000000e+00 1.5250000e+01 
0.0000000e+00 0.0000000e+00 1.5500000e+01 
0.0000000e+00 0.0000000e+00 1.5750000e+01 
0.0000000e+00 0.0000000e+00 1.6000000e+01 
0.0000000e+00 0.0000000e+00 1.6250000e+01 
0.0000000e+00 0.0000000e+00 1.6500000e+01 
0.0000000e+00 0.0000000e+00 1.6750000e+01 
0.0000000e+00 0.0000000e+00 1.7000000e+01 
0.0000000e+00 0.0000000e+00 1.7250000e+01 
0.0000000e+00 0.0000000e+00 1.7500000e+01 
0.0000000e+00 0.0000000e+00 1.7750000e+01 
0.0000000e+00 0.0000000e+00 1.8000000e+01 
5.0000000e-01 0.0000000e+00 3.0000000e+00 
5.0000000e-01 0.0000000e+00 6.0000000e+00 
5.0000000e-01 0.0000000e+00 9.0000000e+00 
5.0000000e-01 0.0000000e+00 1.2000000e+01 
5.0000000e-01 0.0000000e+00 1.5000000e+01 
5.0000000e-01 0.0000000e+00 1.8000000e+01 
1.0000000e+00 0.0000000e+00 3.0000000e+00 
1.0000000e+00 0.0000000e+00 6.0000000e+00 
1.0000000e+00 0.0000000e+00 9.0000000e+00 
1.0000000e+00 0.0000000e+00 1.2000000e+01 
1.0000000e+00 0.0000000e+00 1.5000000e+01 
1.0000000e+00 0.0000000e+00 1.8000000e+01 
1.5000000e+00 0.0000000e+00 3.0000000e+00 
1.5000000e+00 0.0000000e+00 6.0000000e+00 
1.5000000e+00 0.0000000e+00 9.0000000e+00 
1.5000000e+00 0.0000000e+00 1.2000000e+01 
1.5000000e+00 0.0000000e+00 1.5000000e+01 
1.5000000e+00 0.0000000e+00 1.8000000e+01 
2.0000000e+00 0.0000000e+00 3.0000000e+00 
2.0000000e+00 0.0000000e+00 6.0000000e+00 
2.0000000e+00 0.0000000e+00 9.0000000e+00 
2.0000000e+00 0.0000000e+00 1.2000000e+01 
2.0000000e+00 0.0000000e+00 1.5000000e+01 
2.0000000e+00 0.0000000e+00 1.8000000e+01 
2.5000000e+00 0.0000000e+00 3.0000000e+00 
2.5000000e+00 0.0000000e+00 6.0000000e+00 
2.5000000e+00 0.0000000e+00 9.0000000e+00 
2.5000000e+00 0.0000000e+00 1.2000000e+01 
2.5000000e+00 0.0000000e+00 1.5000000e+01 
2.5000000e+00 0.0000000e+00 1.8000000e+01 
3.0000000e+00 0.0000000e+00 3.0000000e+00 
3.0000000e+00 0.0000000e+00 6.0000000e+00 
3.0000000e+00 0.0000000e+00 9.0000000e+00 
3.0000000e+00 0.0000000e+00 1.2000000e+01 
3.0000000e+00 0.0000000e+00 1.5000000e+01 
3.0000000e+00 0.0000000e+00 1.8000000e+01 
3.5000000e+00 0.0000000e+00 3.0000000e+00 
3.5000000e+00 0.0000000e+00 6.0000000e+00 
3.5000000e+00 0.0000000e+00 9.0000000e+00 
3.5000000e+00 0.0000000e+00 1.2000000e+01 
3.5000000e+00 0.0000000e+00 1.5000000e+01 
3.5000000e+00 0.0000000e+00 1.8000000e+01 
4.0000000e+00 0.0000000e+00 3.0000000e+00 
4.0000000e+00 0.0000000e+00 6.0000000e+00 
4.0000000e+00 0.0000000e+00 9.0000000e+00 
4.0000000e+00 0.0000000e+00 1.2000000e+01 
4.0000000e+00 0.0000000e+00 1.5000000e+01 
4.0000000e+00 0.0000000e+00 1.8000000e+01 
4.5000000e+00 0.0000000e+00 3.0000000e+00 
4.5000000e+00 0.0000000e+00 6.0000000e+00 
4.5000000e+00 0.0000000e+00 9.0000000e+00 
4.5000000e+00 0.0000000e+00 1.2000000e+01 
4.5000000e+00 0.0000000e+00 1.5000000e+01 
4.5000000e+00 0.0000000e+00 1.8000000e+01 
5.0000000e+00 0.0000000e+00 3.0000000e+00 
5.0000000e+00 0.0000000e+00 6.0000000e+00 
5.0000000e+00 0.0000000e+00 9.0000000e+00 
5.0000000e+00 0.0000000e+00 1.2000000e+01 
5.0000000e+00 0.0000000e+00 1.5000000e+01 
5.0000000e+00 0.0000000e+00 1.8000000e+01 
5.5000000e+00 0.0000000e+00 3.0000000e+00 
5.5000000e+00 0.0000000e+00 6.0000000e+00 
5.5000000e+00 0.0000000e+00 9.0000000e+00 
5.5000000e+00 0.0000000e+00 1.2000000e+01 
5.5000000e+00 0.0000000e+00 1.5000000e+01 
5.5000000e+00 0.0000000e+00 1.8000000e+01 
6.0000000e+00 0.0000000e+00 0.0000000e+00 
6.0000000e+00 0.0000000e+00 2.5000000e-01 
6.0000000e+00 0.0000000e+00 5.0000000e-01 
6.0000000e+00 0.0000000e+00 7.5000000e-01 
6.0000000e+00 0.0000000e+00 1.0000000e+00 
6.0000000e+00 0.0000000e+00 1.2500000e+00 
6.0000000e+00 0.0000000e+00 1.5000000e+00 
6.0000000e+00 0.0000000e+00 1.7500000e+00 
6.0000000e+00 0.0000000e+00 2.0000000e+00 
6.0000000e+00 0.0000000e+00 2.2500000e+00 
6.0000000e+00 0.0000000e+00 2.5000000e+00 
6.0000000e+00 0.0000000e+00 2.7500000e+00 
6.0000000e+00 0.0000000e+00 3.0000000e+00 
6.0000000e+00 0.0000000e+00 3.2500000e+00 
6.0000000e+00 0.0000000e+00 3.5000000e+00 
6.0000000e+00 0.0000000e+00 3.7500000e+00 
6.0000000e+00 0.0000000e+00 4.0000000e+00 
6.0000000e+00 0.0000000e+00 4.2500000e+00 
6.0000000e+00 0.0000000e+00 4.5000000e+00 
6.0000000e+00 0.0000000e+00 4.7500000e+00 
6.0000000e+00 0.0000000e+00 5.0000000e+00 
6.0000000e+00 0.0000000e+00 5.2500000e+00 
6.0000000e+00 0.0000000e+00 5.5000000e+00 
6.0000000e+00 0.0000000e+00 5.7500000e+00 
6.0000000e+00 0.0000000e+00 6.0000000e+00 
6.0000000e+00 0.0000000e+00 6.2500000e+00 
6.0000000e+00 0.0000000e+00 6.5000000e+00 
6.0000000e+00 0.0000000e+00 6.7500000e+00 
6.0000000e+00 0.0000000e+00 7.0000000e+00 
6.0000000e+00 0.0000000e+00 7.2500000e+00 
6.0000000e+00 0.0000000e+00 7.5000000e+00 
6.0000000e+00 0.0000000e+00 7.7500000e+00 
6.0000000e+00 0.0000000e+00 8.0000000e+00 
6.0000000e+00 0.0000000e+00 8.2500000e+00 
6.0000000e+00 0.0000000e+00 8.5000000e+00 
6.0000000e+00 0.0000000e+00 8.7500000e+00 
6.0000000e+00 0.0000000e+00 9.0000000e+00 
6.0000000e+00 0.0000000e+00 9.2500000e+00 
6.0000000e+00 0.0000000e+00 9.5000000e+00 
6.0000000e+00 0.0000000e+00 9.7500000e+00 
6.0000000e+00 0.0000000e+00 1.0000000e+01 
6.0000000e+00 0.0000000e+00 1.0250000e+01 
6.0000000e+00 0.0000000e+00 1.0500000e+01 
6.0000000e+00 0.0000000e+00 1.0750000e+01 
6.0000000e+00 0.0000000e+00 1.1000000e+01 
6.0000000e+00 0.0000000e+00 1.1250000e+01 
6.0000000e+00 0.0000000e+00 1.1500000e+01 
6.0000000e+00 0.0000000e+00 1.1750000e+01 
6.0000000e+00 0.0000000e+00 1.2000000e+01 
6.0000000e+00 0.0000000e+00 1.2250000e+01 
6.0000000e+00 0.0000000e+00 1.2500000e+01 
6.0000000e+00 0.0000000e+00 1.2750000e+01 
6.0000000e+00 0.0000000e+00 1.3000000e+01 
6.0000000e+00 0.0000000e+00 1.3250000e+01 
6.0000000e+00 0.0000000e+00 1.3500000e+01 
6.0000000e+00 0.0000000e+00 1.3750000e+01 
6.0000000e+00 0.0000000e+00 1.4000000e+01 
6.0000000e+00 0.0000000e+00 1.4250000e+01 
6.0000000e+00 0.0000000e+00 1.4500000e+01 
6.0000000e+00 0.0000000e+00 1.4750000e+01 
6.0000000e+00 0.0000000e+00 1.5000000e+01 
6.0000000e+00 0.0000000e+00 1.5250000e+01 
6.0000000e+00 0.0000000e+00 1.5500000e+01 
6.0000000e+00 0.0000000e+00 1.5750000e+01 
6.0000000e+00 0.0000000e+00 1.6000000e+01 
6.0000000e+00 0.0000000e+00 1.6250000e+01 
6.0000000e+00 0.0000000e+00 1.6500000e+01 
6.0000000e+00 0.0000000e+00 1.6750000e+01 
6.0000000e+00 0.0000000e+00 1.7000000e+01 
6.0000000e+00 0.0000000e+00 1.7250000e+01 
6.0000000e+00 0.0000000e+00 1.7500000e+01 
6.0000000e+00 0.0000000e+00 1.7750000e+01 
6.0000000e+00 0.0000000e+00 1.8000000e+01 

CELLS 216 648
2 0 1
2 1 2
2 2 3
2 3 4
2 4 5
2 5 6
2 6 7
2 7 8
2 8 9
2 9 10
2 10 11
2 11 12
2 12 13
2 13 14
2 14 15
2 15 16
2 16 17
2 17 18
2 18 19
2 19 20
2 20 21
2 21 22
2 22 23
2 23 24
2 24 25
2 25 26
2 26 27
2 27 28
2 28 29
2 29 30
2 30 31
2 31 32
2 32 33
2 33 34
2 34 35
2 35 36
2 36 37
2 37 38
2 38 39
2 39 40
2 40 41
2 41 42
2 42 43
2 43 44
2 44 45
2 45 46
2 46 47
2 47 48
2 48 49
2 49 50
2 50 51
2 51 52
2 52 53
2 53 54
2 54 55
2 55 56
2 56 57
2 57 58
2 58 59
2 59 60
2 60 61
2 61 62
2 62 63
2 63 64
2 64 65
2 65 66
2 66 67
2 67 68
2 68 69
2 69 70
2 70 71
2 71 72
2 139 140
2 140 141
2 141 142
2 142 143
2 143 144
2 144 145
2 145 146
2 146 147
2 147 148
2 148 149
2 149 150
2 150 151
2 151 152
2 152 153
2 153 154
2 154 155
2 155 156
2 156 157
2 157 158
2 158 159
2 159 160
2 160 161
2 161 162
2 162 163
2 163 164
2 164 165
2 165 166
2 166 167
2 167 168
2 168 169
2 169 170
2 170 171
2 171 172
2 172 173
2 173 174
2 174 175
2 175 176
2 176 177
2 177 178
2 178 179
2 179 180
2 180 181
2 181 182
2 182 183
2 183 184
2 184 185
2 185 186
2 186 187
2 187 188
2 188 189
2 189 190
2 190 191
2 191 192
2 192 193
2 193 194
2 194 195
2 195 196
2 196 197
2 197 198
2 198 199
2 199 200
2 200 201
2 201 202
2 202 203
2 203 204
2 204 205
2 205 206
2 206 207
2 207 208
2 208 209
2 209 210
2 210 211
2 12 73
2 73 79
2 79 85
2 85 91
2 91 97
2 97 103
2 103 109
2 109 115
2 115 121
2 121 127
2 127 133
2 133 151
2 24 74
2 74 80
2 80 86
2 86 92
2 92 98
2 98 104
2 104 110
2 110 116
2 116 122
2 122 128
2 128 134
2 134 163
2 36 75
2 75 81
2 81 87
2 87 93
2 93 99
2 99 105
2 105 111
2 111 117
2 117 123
2 123 129
2 129 135
2 135 175
2 48 76
2 76 82
2 82 88
2 88 94
2 94 100
2 100 106
2 106 112
2 112 118
2 118 124
2 124 130
2 130 136
2 136 187
2 60 77
2 77 83
2 83 89
2 89 95
2 95 101
2 101 107
2 107 113
2 113 119
2 119 125
2 125 131
2 131 137
2 137 199
2 72 78
2 78 84
2 84 90
2 90 96
2 96 102
2 102 108
2 108 114
2 114 120
2 120 126
2 126 132
2 132 138
2 138 211

CELL_TYPES 216
3
3
3
3
3
3
3
3
3
3
3
3
3
3
3
3
3
3
3
3
3
3
3
3
3
3
3
3
3
3
3
3
3
3
3
3
3
3
3
3
3
3
3
3
3
3
3
3
3
3
3
3
3
3
3
3
3
3
3
3
3
3
3
3
3
3
3
3
3
3
3
3
3
3
3
3
3
3
3
3
3
3
3
3
3
3
3
3
3
3
3
3
3
3
3
3
3
3
3
3
3
3
3
3
3
3
3
3
3
3
3
3
3
3
3
3
3
3
3
3
3
3
3
3
3
3
3
3
3
3
3
3
3
3
3
3
3
3
3
3
3
3
3
3
3
3
3
3
3
3
3
3
3
3
3
3
3
3
3
3
3
3
3
3
3
3
3
3
3
3
3
3
3
3
3
3
3
3
3
3
3
3
3
3
3
3
3
3
3
3
3
3
3
3
3
3
3
3
3
3
3
3
3
3
3
3
3
3
3
3
3
3
3
3
3
3
POINT_DATA 212
FIELD FieldData 3
ADJOINT_DISPLACEMENT 3 212  float
0.0000000e+00 0.0000000e+00 0.0000000e+00 
-5.8382316e-06 0.0000000e+00 -1.7792114e-16 
-1.2757284e-05 0.0000000e+00 -3.5584227e-16 
-2.1837979e-05 0.0000000e+00 -5.3376342e-16 
-3.4161138e-05 0.0000000e+00 -7.1168455e-16 
-5.0807575e-05 0.0000000e+00 -8.8960567e-16 
-7.2858122e-05 0.0000000e+00 -1.0675268e-15 
-1.0139359e-04 0.0000000e+00 -1.2454480e-15 
-1.3749480e-04 0.0000000e+00 -1.4233691e-15 
-1.8224260e-04 0.0000000e+00 -1.6012903e-15 
-2.3671777e-04 0.0000000e+00 -1.7792113e-15 
-3.0200116e-04 0.0000000e+00 -1.9571325e-15 
-3.7917358e-04 0.0000000e+00 -2.1350537e-15 
-4.7416164e-04 0.0000000e+00 3.0037266e-09 
-5.8784144e-04 0.0000000e+00 6.0074550e-09 
-7.1371772e-04 0.0000000e+00 9.0111838e-09 
-8.4529544e-04 0.0000000e+00 1.2014913e-08 
-9.7607943e-04 0.0000000e+00 1.5018641e-08 
-1.0995746e-03 0.0000000e+00 1.8022369e-08 
-1.2092857e-03 0.0000000e+00 2.1026098e-08 
-1.2987177e-03 0.0000000e+00 2.4029827e-08 
-1.3613754e-03 0.0000000e+00 2.7033556e-08 
-1.3907638e-03 0.0000000e+00 3.0037285e-08 
-1.3803876e-03 0.0000000e+00 3.3041012e-08 
-1.3237518e-03 0.0000000e+00 3.6044742e-08 
-1.2272525e-03 0.0000000e+00 5.1063672e-08 
-1.1204217e-03 0.0000000e+00 6.6082599e-08 
-1.0314669e-03 0.0000000e+00 8.1101533e-08 
-9.8859612e-04 0.0000000e+00 9.6120459e-08 
-1.0200171e-03 0.0000000e+00 1.1113939e-07 
-1.1539378e-03 0.0000000e+00 1.2615831e-07 
-1.4185657e-03 0.0000000e+00 1.4117725e-07 
-1.8421090e-03 0.0000000e+00 1.5619618e-07 
-2.4527754e-03 0.0000000e+00 1.7121511e-07 
-3.2787726e-03 0.0000000e+00 1.8623403e-07 
-4.3483083e-03 0.0000000e+00 2.0125297e-07 
-5.6895907e-03 0.0000000e+00 2.1627190e-07 
-7.4179270e-03 0.0000000e+00 2.8836425e-07 
-9.5493514e-03 0.0000000e+00 3.6045660e-07 
-1.1963162e-02 0.0000000e+00 4.3254894e-07 
-1.4538654e-02 0.0000000e+00 5.0464132e-07 
-1.7155128e-02 0.0000000e+00 5.7673367e-07 
-1.9691881e-02 0.0000000e+00 6.4882602e-07 
-2.2028208e-02 0.0000000e+00 7.2091837e-07 
-2.4043409e-02 0.0000000e+00 7.9301071e-07 
-2.5616782e-02 0.0000000e+00 8.6510306e-07 
-2.6627624e-02 0.0000000e+00 9.3719541e-07 
-2.6955232e-02 0.0000000e+00 1.0092878e-06 
-2.6478905e-02 0.0000000e+00 1.0813801e-06 
-2.5385087e-02 0.0000000e+00 1.4268297e-06 
-2.4284413e-02 0.0000000e+00 1.7722795e-06 
-2.3692461e-02 0.0000000e+00 2.1177291e-06 
-2.4124809e-02 0.0000000e+00 2.4631788e-06 
-2.6097035e-02 0.0000000e+00 2.8086286e-06 
-3.0124720e-02 0.0000000e+00 3.1540781e-06 
-3.6723439e-02 0.0000000e+00 3.4995278e-06 
-4.6408776e-02 0.0000000e+00 3.8449775e-06 
-5.9696302e-02 0.0000000e+00 4.1904273e-06 
-7.7101603e-02 0.0000000e+00 4.5358770e-06 
-9.9140249e-02 0.0000000e+00 4.8813267e-06 
-1.2632783e-01 0.0000000e+00 5.2267760e-06 
-1.5374301e-01 0.0000000e+00 4.8993493e-06 
-1.7639028e-01 0.0000000e+00 4.5719221e-06 
-1.9467385e-01 0.0000000e+00 4.2444954e-06 
-2.0899798e-01 0.0000000e+00 3.9170682e-06 
-2.1976693e-01 0.0000000e+00 3.5896412e-06 
-2.2738492e-01 0.0000000e+00 3.2622140e-06 
-2.3225622e-01 0.0000000e+00 2.9347871e-06 
-2.3478505e-01 0.0000000e+00 2.6073601e-06 
-2.3537567e-01 0.0000000e+00 2.2799331e-06 
-2.3443232e-01 0.0000000e+00 1.9525060e-06 
-2.3235925e-01 0.0000000e+00 1.6250790e-06 
-2.2956070e-01 0.0000000e+00 1.2976520e-06 
-3.7910434e-04 0.0000000e+00 1.4339724e-04 
-1.3240688e-03 0.0000000e+00 -1.8874899e-04 
-5.6882305e-03 0.0000000e+00 2.5423199e-03 
-2.6484717e-02 0.0000000e+00 -2.5605951e-03 
-1.2632681e-01 0.0000000e+00 8.1349984e-02 
-2.2955701e-01 0.0000000e+00 -6.5986654e-03 
-3.7903513e-04 0.0000000e+00 2.4318713e-04 
-1.3243859e-03 0.0000000e+00 -4.1335268e-04 
-5.6868698e-03 0.0000000e+00 4.2890343e-03 
-2.6490530e-02 0.0000000e+00 -6.2523447e-03 
-1.2632579e-01 0.0000000e+00 2.0486304e-01 
-2.2955331e-01 0.0000000e+00 -1.3910121e-02 
-3.7896592e-04 0.0000000e+00 3.0463023e-04 
-1.3247029e-03 0.0000000e+00 -6.5273233e-04 
-5.6855096e-03 0.0000000e+00 5.3403145e-03 
-2.6496343e-02 0.0000000e+00 -1.0595428e-02 
-1.2632477e-01 0.0000000e+00 3.6936596e-01 
-2.2954963e-01 0.0000000e+00 -2.1359636e-02 
-3.7889672e-04 0.0000000e+00 3.3298705e-04 
-1.3250199e-03 0.0000000e+00 -8.8584539e-04 
-5.6841490e-03 0.0000000e+00 5.7961140e-03 
-2.6502157e-02 0.0000000e+00 -1.5111104e-02 
-1.2632376e-01 0.0000000e+00 5.7368028e-01 
-2.2954594e-01 0.0000000e+00 -2.8373774e-02 
-3.7882751e-04 0.0000000e+00 3.3351817e-04 
-1.3253370e-03 0.0000000e+00 -1.0916492e-03 
-5.6827888e-03 0.0000000e+00 5.7563884e-03 
-2.6507970e-02 0.0000000e+00 -1.9320633e-02 
-1.2632275e-01 0.0000000e+00 8.1662762e-01 
-2.2954224e-01 0.0000000e+00 -3.4379102e-02 
-3.7875830e-04 0.0000000e+00 3.1148407e-04 
-1.3256540e-03 0.0000000e+00 -1.2491011e-03 
-5.6814281e-03 0.0000000e+00 5.3210920e-03 
-2.6513783e-02 0.0000000e+00 -2.2745276e-02 
-1.2632172e-01 0.0000000e+00 5.9702957e-01 
-2.2953855e-01 0.0000000e+00 -3.8802192e-02 
-3.7868909e-04 0.0000000e+00 2.7214529e-04 
-1.3259710e-03 0.0000000e+00 -1.3371585e-03 
-5.6800679e-03 0.0000000e+00 4.5901793e-03 
-2.6519595e-02 0.0000000e+00 -2.4906293e-02 
-1.2632070e-01 0.0000000e+00 4.1370761e-01 
-2.2953485e-01 0.0000000e+00 -4.1069601e-02 
-3.7861985e-04 0.0000000e+00 2.2076239e-04 
-1.3262881e-03 0.0000000e+00 -1.3347788e-03 
-5.6787073e-03 0.0000000e+00 3.6636048e-03 
-2.6525408e-02 0.0000000e+00 -2.5324943e-02 
-1.2631969e-01 0.0000000e+00 2.6548335e-01 
-2.2953115e-01 0.0000000e+00 -4.0607899e-02 
-3.7855064e-04 0.0000000e+00 1.6259587e-04 
-1.3266051e-03 0.0000000e+00 -1.2209193e-03 
-5.6773471e-03 0.0000000e+00 2.6413235e-03 
-2.6531221e-02 0.0000000e+00 -2.3522487e-02 
-1.2631868e-01 0.0000000e+00 1.5117839e-01 
-2.2952747e-01 0.0000000e+00 -3.6843650e-02 
-3.7848143e-04 0.0000000e+00 1.0290628e-04 
-1.3269222e-03 0.0000000e+00 -9.7453746e-04 
-5.6759864e-03 0.0000000e+00 1.6232899e-03 
-2.6537035e-02 0.0000000e+00 -1.9020185e-02 
-1.2631765e-01 0.0000000e+00 6.9614246e-02 
-2.2952378e-01 0.0000000e+00 -2.9203424e-02 
-3.7841222e-04 0.0000000e+00 4.6954148e-05 
-1.3272392e-03 0.0000000e+00 -5.7459058e-04 
-5.6746262e-03 0.0000000e+00 7.0945843e-04 
-2.6542848e-02 0.0000000e+00 -1.1339296e-02 
-1.2631664e-01 0.0000000e+00 1.9612523e-02 
-2.2952008e-01 0.0000000e+00 -1.7113784e-02 
0.0000000e+00 0.0000000e+00 0.0000000e+00 
-5.7288151e-05 0.0000000e+00 1.7763063e-16 
-1.1349548e-04 0.0000000e+00 3.5526124e-16 
-1.6754116e-04 0.0000000e+00 5.3289188e-16 
-2.1834439e-04 0.0000000e+00 7.1052252e-16 
-2.6482434e-04 0.0000000e+00 8.8815322e-16 
-3.0590018e-04 0.0000000e+00 1.0657839e-15 
-3.4049107e-04 0.0000000e+00 1.2434145e-15 
-3.6751624e-04 0.0000000e+00 1.4210452e-15 
-3.8589485e-04 0.0000000e+00 1.5986759e-15 
-3.9454605e-04 0.0000000e+00 1.7763065e-15 
-3.9238905e-04 0.0000000e+00 1.9539371e-15 
-3.7834301e-04 0.0000000e+00 2.1315677e-15 
-3.5437211e-04 0.0000000e+00 -3.0037266e-09 
-3.2749111e-04 0.0000000e+00 -6.0074550e-09 
-3.0419516e-04 0.0000000e+00 -9.0111838e-09 
-2.9097940e-04 0.0000000e+00 -1.2014913e-08 
-2.9433897e-04 0.0000000e+00 -1.5018641e-08 
-3.2076897e-04 0.0000000e+00 -1.8022369e-08 
-3.7676457e-04 0.0000000e+00 -2.1026098e-08 
-4.6882092e-04 0.0000000e+00 -2.4029827e-08 
-6.0343312e-04 0.0000000e+00 -2.7033556e-08 
-7.8709633e-04 0.0000000e+00 -3.0037285e-08 
-1.0263056e-03 0.0000000e+00 -3.3041012e-08 
-1.3275562e-03 0.0000000e+00 -3.6044742e-08 
-1.7160157e-03 0.0000000e+00 -5.1063672e-08 
-2.1937164e-03 0.0000000e+00 -6.6082599e-08 
-2.7324504e-03 0.0000000e+00 -8.1101533e-08 
-3.3040098e-03 0.0000000e+00 -9.6120459e-08 
-3.8801869e-03 0.0000000e+00 -1.1113939e-07 
-4.4327741e-03 0.0000000e+00 -1.2615831e-07 
-4.9335631e-03 0.0000000e+00 -1.4117725e-07 
-5.3543462e-03 0.0000000e+00 -1.5619618e-07 
-5.6669163e-03 0.0000000e+00 -1.7121511e-07 
-5.8430643e-03 0.0000000e+00 -1.8623403e-07 
-5.8545838e-03 0.0000000e+00 -2.0125297e-07 
-5.6732656e-03 0.0000000e+00 -2.1627190e-07 
-5.3337351e-03 0.0000000e+00 -2.8836425e-07 
-4.9698902e-03 0.0000000e+00 -3.6045660e-07 
-4.7024330e-03 0.0000000e+00 -4.3254894e-07 
-4.6520657e-03 0.0000000e+00 -5.0464132e-07 
-4.9394909e-03 0.0000000e+00 -5.7673367e-07 
-5.6854114e-03 0.0000000e+00 -6.4882602e-07 
-7.0105288e-03 0.0000000e+00 -7.2091837e-07 
-9.0355463e-03 0.0000000e+00 -7.9301071e-07 
-1.1881166e-02 0.0000000e+00 -8.6510306e-07 
-1.5668090e-02 0.0000000e+00 -9.3719541e-07 
-2.0517020e-02 0.0000000e+00 -1.0092878e-06 
-2.6548659e-02 0.0000000e+00 -1.0813801e-06 
-3.4294672e-02 0.0000000e+00 -1.4268297e-06 
-4.3862537e-02 0.0000000e+00 -1.7722795e-06 
-5.4736670e-02 0.0000000e+00 -2.1177291e-06 
-6.6401497e-02 0.0000000e+00 -2.4631788e-06 
-7.8341439e-02 0.0000000e+00 -2.8086286e-06 
-9.0040915e-02 0.0000000e+00 -3.1540781e-06 
-1.0098435e-01 0.0000000e+00 -3.4995278e-06 
-1.1065616e-01 0.0000000e+00 -3.8449775e-06 
-1.1854077e-01 0.0000000e+00 -4.1904273e-06 
-1.2412260e-01 0.0000000e+00 -4.5358770e-06 
-1.2688608e-01 0.0000000e+00 -4.8813267e-06 
-1.2631562e-01 0.0000000e+00 -5.2267760e-06 
-1.2556490e-01 0.0000000e+00 -4.8993493e-06 
-1.2786180e-01 0.0000000e+00 -4.5719221e-06 
-1.3280208e-01 0.0000000e+00 -4.2444954e-06 
-1.3998151e-01 0.0000000e+00 -3.9170682e-06 
-1.4899583e-01 0.0000000e+00 -3.5896412e-06 
-1.5944079e-01 0.0000000e+00 -3.2622140e-06 
-1.7091215e-01 0.0000000e+00 -2.9347871e-06 
-1.8300566e-01 0.0000000e+00 -2.6073601e-06 
-1.9531709e-01 0.0000000e+00 -2.2799331e-06 
-2.0744218e-01 0.0000000e+00 -1.9525060e-06 
-2.1897669e-01 0.0000000e+00 -1.6250790e-06 
-2.2951639e-01 0.0000000e+00 -1.2976520e-06 
ADJOINT_ROTATION 3 212  float
0.0000000e+00 -2.2632379e-05 0.0000000e+00 
0.0000000e+00 -2.4794021e-05 0.0000000e+00 
0.0000000e+00 -3.1278945e-05 0.0000000e+00 
0.0000000e+00 -4.2087155e-05 0.0000000e+00 
0.0000000e+00 -5.7218651e-05 0.0000000e+00 
0.0000000e+00 -7.6673423e-05 0.0000000e+00 
0.0000000e+00 -1.0045149e-04 0.0000000e+00 
0.0000000e+00 -1.2855283e-04 0.0000000e+00 
0.0000000e+00 -1.6097746e-04 0.0000000e+00 
0.0000000e+00 -1.9772537e-04 0.0000000e+00 
0.0000000e+00 -2.3879657e-04 0.0000000e+00 
0.0000000e+00 -2.8419105e-04 0.0000000e+00 
0.0000000e+00 -3.3390880e-04 0.0000000e+00 
0.0000000e+00 -4.2166581e-04 0.0000000e+00 
0.0000000e+00 -4.8344224e-04 0.0000000e+00 
0.0000000e+00 -5.1923818e-04 0.0000000e+00 
0.0000000e+00 -5.2905350e-04 0.0000000e+00 
0.0000000e+00 -5.1288836e-04 0.0000000e+00 
0.0000000e+00 -4.7074264e-04 0.0000000e+00 
0.0000000e+00 -4.0261640e-04 0.0000000e+00 
0.0000000e+00 -3.0850960e-04 0.0000000e+00 
0.0000000e+00 -1.8842224e-04 0.0000000e+00 
0.0000000e+00 -4.2354353e-05 0.0000000e+00 
0.0000000e+00 1.2969408e-04 0.0000000e+00 
0.0000000e+00 3.2772304e-04 0.0000000e+00 
0.0000000e+00 4.2546538e-04 0.0000000e+00 
0.0000000e+00 4.1037647e-04 0.0000000e+00 
0.0000000e+00 2.8245625e-04 0.0000000e+00 
0.0000000e+00 4.1704763e-05 0.0000000e+00 
0.0000000e+00 -3.1187799e-04 0.0000000e+00 
0.0000000e+00 -7.7829201e-04 0.0000000e+00 
0.0000000e+00 -1.3575373e-03 0.0000000e+00 
0.0000000e+00 -2.0496140e-03 0.0000000e+00 
0.0000000e+00 -2.8545219e-03 0.0000000e+00 
0.0000000e+00 -3.7722609e-03 0.0000000e+00 
0.0000000e+00 -4.8028314e-03 0.0000000e+00 
0.0000000e+00 -5.9462329e-03 0.0000000e+00 
0.0000000e+00 -7.7999895e-03 0.0000000e+00 
0.0000000e+00 -9.1709364e-03 0.0000000e+00 
0.0000000e+00 -1.0059074e-02 0.0000000e+00 
0.0000000e+00 -1.0464402e-02 0.0000000e+00 
0.0000000e+00 -1.0386920e-02 0.0000000e+00 
0.0000000e+00 -9.8266285e-03 0.0000000e+00 
0.0000000e+00 -8.7835276e-03 0.0000000e+00 
0.0000000e+00 -7.2576171e-03 0.0000000e+00 
0.0000000e+00 -5.2488972e-03 0.0000000e+00 
0.0000000e+00 -2.7573679e-03 0.0000000e+00 
0.0000000e+00 2.1697120e-04 0.0000000e+00 
0.0000000e+00 3.6741197e-03 0.0000000e+00 
0.0000000e+00 4.7327029e-03 0.0000000e+00 
0.0000000e+00 3.7289723e-03 0.0000000e+00 
0.0000000e+00 6.6292757e-04 0.0000000e+00 
0.0000000e+00 -4.4654310e-03 0.0000000e+00 
0.0000000e+00 -1.1656104e-02 0.0000000e+00 
0.0000000e+00 -2.0909090e-02 0.0000000e+00 
0.0000000e+00 -3.2224391e-02 0.0000000e+00 
0.0000000e+00 -4.5602005e-02 0.0000000e+00 
0.0000000e+00 -6.1041936e-02 0.0000000e+00 
0.0000000e+00 -7.8544177e-02 0.0000000e+00 
0.0000000e+00 -9.8108731e-02 0.0000000e+00 
0.0000000e+00 -1.1973561e-01 0.0000000e+00 
0.0000000e+00 -9.9855401e-02 0.0000000e+00 
0.0000000e+00 -8.1592172e-02 0.0000000e+00 
0.0000000e+00 -6.4945921e-02 0.0000000e+00 
0.0000000e+00 -4.9916659e-02 0.0000000e+00 
0.0000000e+00 -3.6504377e-02 0.0000000e+00 
0.0000000e+00 -2.4709074e-02 0.0000000e+00 
0.0000000e+00 -1.4530752e-02 0.0000000e+00 
0.0000000e+00 -5.9694108e-03 0.0000000e+00 
0.0000000e+00 9.7494933e-04 0.0000000e+00 
0.0000000e+00 6.3023283e-03 0.0000000e+00 
0.0000000e+00 1.0012726e-02 0.0000000e+00 
0.0000000e+00 1.2106144e-02 0.0000000e+00 
0.0000000e+00 -2.4143362e-04 0.0000000e+00 
0.0000000e+00 4.2040294e-04 0.0000000e+00 
0.0000000e+00 -4.2555002e-03 0.0000000e+00 
0.0000000e+00 6.4130058e-03 0.0000000e+00 
0.0000000e+00 -2.0525062e-01 0.0000000e+00 
0.0000000e+00 1.4102563e-02 0.0000000e+00 
0.0000000e+00 -1.5947949e-04 0.0000000e+00 
0.0000000e+00 4.7099756e-04 0.0000000e+00 
0.0000000e+00 -2.7646760e-03 0.0000000e+00 
0.0000000e+00 8.1944121e-03 0.0000000e+00 
0.0000000e+00 -2.8840879e-01 0.0000000e+00 
0.0000000e+00 1.4952115e-02 0.0000000e+00 
0.0000000e+00 -8.8046429e-05 0.0000000e+00 
0.0000000e+00 4.7950694e-04 0.0000000e+00 
0.0000000e+00 -1.4737614e-03 0.0000000e+00 
0.0000000e+00 9.0183392e-03 0.0000000e+00 
0.0000000e+00 -3.6921006e-01 0.0000000e+00 
0.0000000e+00 1.4654798e-02 0.0000000e+00 
0.0000000e+00 -2.7134429e-05 0.0000000e+00 
0.0000000e+00 4.4593107e-04 0.0000000e+00 
0.0000000e+00 -3.8275591e-04 0.0000000e+00 
0.0000000e+00 8.8847857e-03 0.0000000e+00 
0.0000000e+00 -4.4765452e-01 0.0000000e+00 
0.0000000e+00 1.3210613e-02 0.0000000e+00 
0.0000000e+00 2.3256507e-05 0.0000000e+00 
0.0000000e+00 3.7026993e-04 0.0000000e+00 
0.0000000e+00 5.0834031e-04 0.0000000e+00 
0.0000000e+00 7.7937525e-03 0.0000000e+00 
0.0000000e+00 -5.2374208e-01 0.0000000e+00 
0.0000000e+00 1.0619561e-02 0.0000000e+00 
0.0000000e+00 6.3126383e-05 0.0000000e+00 
0.0000000e+00 2.5252355e-04 0.0000000e+00 
0.0000000e+00 1.1995274e-03 0.0000000e+00 
0.0000000e+00 5.7452396e-03 0.0000000e+00 
0.0000000e+00 4.0252724e-01 0.0000000e+00 
0.0000000e+00 6.8816403e-03 0.0000000e+00 
0.0000000e+00 9.2475188e-05 0.0000000e+00 
0.0000000e+00 9.2691902e-05 0.0000000e+00 
0.0000000e+00 1.6908052e-03 0.0000000e+00 
0.0000000e+00 2.7392467e-03 0.0000000e+00 
0.0000000e+00 3.3115339e-01 0.0000000e+00 
0.0000000e+00 1.9968520e-03 0.0000000e+00 
0.0000000e+00 1.1130294e-04 0.0000000e+00 
0.0000000e+00 -1.0922499e-04 0.0000000e+00 
0.0000000e+00 1.9821739e-03 0.0000000e+00 
0.0000000e+00 -1.2242260e-03 0.0000000e+00 
0.0000000e+00 2.6213640e-01 0.0000000e+00 
0.0000000e+00 -4.0348046e-03 0.0000000e+00 
0.0000000e+00 1.1960962e-04 0.0000000e+00 
0.0000000e+00 -3.5322714e-04 0.0000000e+00 
0.0000000e+00 2.0736333e-03 0.0000000e+00 
0.0000000e+00 -6.1451783e-03 0.0000000e+00 
0.0000000e+00 1.9547629e-01 0.0000000e+00 
0.0000000e+00 -1.1213329e-02 0.0000000e+00 
0.0000000e+00 1.1739524e-04 0.0000000e+00 
0.0000000e+00 -6.3931453e-04 0.0000000e+00 
0.0000000e+00 1.9651833e-03 0.0000000e+00 
0.0000000e+00 -1.2023611e-02 0.0000000e+00 
0.0000000e+00 1.3117304e-01 0.0000000e+00 
0.0000000e+00 -1.9538721e-02 0.0000000e+00 
0.0000000e+00 1.0465979e-04 0.0000000e+00 
0.0000000e+00 -9.6748723e-04 0.0000000e+00 
0.0000000e+00 1.6568244e-03 0.0000000e+00 
0.0000000e+00 -1.8859522e-02 0.0000000e+00 
0.0000000e+00 6.9226667e-02 0.0000000e+00 
0.0000000e+00 -2.9010981e-02 0.0000000e+00 
0.0000000e+00 -2.2987314e-04 0.0000000e+00 
0.0000000e+00 -2.2771150e-04 0.0000000e+00 
0.0000000e+00 -2.2122658e-04 0.0000000e+00 
0.0000000e+00 -2.1041837e-04 0.0000000e+00 
0.0000000e+00 -1.9528688e-04 0.0000000e+00 
0.0000000e+00 -1.7583210e-04 0.0000000e+00 
0.0000000e+00 -1.5205404e-04 0.0000000e+00 
0.0000000e+00 -1.2395269e-04 0.0000000e+00 
0.0000000e+00 -9.1528069e-05 0.0000000e+00 
0.0000000e+00 -5.4780154e-05 0.0000000e+00 
0.0000000e+00 -1.3708958e-05 0.0000000e+00 
0.0000000e+00 3.1685522e-05 0.0000000e+00 
0.0000000e+00 8.1403283e-05 0.0000000e+00 
0.0000000e+00 1.0603390e-04 0.0000000e+00 
0.0000000e+00 1.0468398e-04 0.0000000e+00 
0.0000000e+00 7.7353499e-05 0.0000000e+00 
0.0000000e+00 2.4042491e-05 0.0000000e+00 
0.0000000e+00 -5.5249064e-05 0.0000000e+00 
0.0000000e+00 -1.6052116e-04 0.0000000e+00 
0.0000000e+00 -2.9177379e-04 0.0000000e+00 
0.0000000e+00 -4.4900697e-04 0.0000000e+00 
0.0000000e+00 -6.3222070e-04 0.0000000e+00 
0.0000000e+00 -8.4141496e-04 0.0000000e+00 
0.0000000e+00 -1.0765898e-03 0.0000000e+00 
0.0000000e+00 -1.3377451e-03 0.0000000e+00 
0.0000000e+00 -1.7511253e-03 0.0000000e+00 
0.0000000e+00 -2.0516743e-03 0.0000000e+00 
0.0000000e+00 -2.2393921e-03 0.0000000e+00 
0.0000000e+00 -2.3142784e-03 0.0000000e+00 
0.0000000e+00 -2.2763335e-03 0.0000000e+00 
0.0000000e+00 -2.1255575e-03 0.0000000e+00 
0.0000000e+00 -1.8619500e-03 0.0000000e+00 
0.0000000e+00 -1.4855114e-03 0.0000000e+00 
0.0000000e+00 -9.9624146e-04 0.0000000e+00 
0.0000000e+00 -3.9414017e-04 0.0000000e+00 
0.0000000e+00 3.2079234e-04 0.0000000e+00 
0.0000000e+00 1.1485561e-03 0.0000000e+00 
0.0000000e+00 1.4872194e-03 0.0000000e+00 
0.0000000e+00 1.3430731e-03 0.0000000e+00 
0.0000000e+00 7.1611721e-04 0.0000000e+00 
0.0000000e+00 -3.9364820e-04 0.0000000e+00 
0.0000000e+00 -1.9862230e-03 0.0000000e+00 
0.0000000e+00 -4.0616076e-03 0.0000000e+00 
0.0000000e+00 -6.6198017e-03 0.0000000e+00 
0.0000000e+00 -9.6608056e-03 0.0000000e+00 
0.0000000e+00 -1.3184618e-02 0.0000000e+00 
0.0000000e+00 -1.7191241e-02 0.0000000e+00 
0.0000000e+00 -2.1680674e-02 0.0000000e+00 
0.0000000e+00 -2.6652915e-02 0.0000000e+00 
0.0000000e+00 -3.4971472e-02 0.0000000e+00 
0.0000000e+00 -4.1227713e-02 0.0000000e+00 
0.0000000e+00 -4.5421638e-02 0.0000000e+00 
0.0000000e+00 -4.7553252e-02 0.0000000e+00 
0.0000000e+00 -4.7622554e-02 0.0000000e+00 
0.0000000e+00 -4.5629539e-02 0.0000000e+00 
0.0000000e+00 -4.1574210e-02 0.0000000e+00 
0.0000000e+00 -3.5456568e-02 0.0000000e+00 
0.0000000e+00 -2.7276611e-02 0.0000000e+00 
0.0000000e+00 -1.7034341e-02 0.0000000e+00 
0.0000000e+00 -4.7297557e-03 0.0000000e+00 
0.0000000e+00 9.6371425e-03 0.0000000e+00 
0.0000000e+00 -3.3618568e-03 0.0000000e+00 
0.0000000e+00 -1.4743876e-02 0.0000000e+00 
0.0000000e+00 -2.4508914e-02 0.0000000e+00 