# vtk DataFile Version 4.0
vtk output
ASCII
DATASET UNSTRUCTURED_GRID
POINTS 212 float
0.0000000e+00 0.0000000e+00 0.0000000e+00 
0.0000000e+00 0.0000000e+00 2.5000000e-01 
0.0000000e+00 0.0000000e+00 5.0000000e-01 
0.0000000e+00 0.0000000e+00 7.5000000e-01 
0.0000000e+00 0.0000000e+00 1.0000000e+00 
0.0000000e+00 0.0000000e+00 1.2500000e+00 
0.0000000e+00 0.0000000e+00 1.5000000e+00 
0.0000000e+00 0.0000000e+00 1.7500000e+00 
0.0000000e+00 0.0000000e+00 2.0000000e+00 
0.0000000e+00 0.0000000e+00 2.2500000e+00 
0.0000000e+00 0.0000000e+00 2.5000000e+00 
0.0000000e+00 0.0000000e+00 2.7500000e+00 
0.0000000e+00 0.0000000e+00 3.0000000e+00 
0.0000000e+00 0.0000000e+00 3.2500000e+00 
0.0000000e+00 0.0000000e+00 3.5000000e+00 
0.0000000e+00 0.0000000e+00 3.7500000e+00 
0.0000000e+00 0.0000000e+00 4.0000000e+00 
0.0000000e+00 0.0000000e+00 4.2500000e+00 
0.0000000e+00 0.0000000e+00 4.5000000e+00 
0.0000000e+00 0.0000000e+00 4.7500000e+00 
0.0000000e+00 0.0000000e+00 5.0000000e+00 
0.0000000e+00 0.0000000e+00 5.2500000e+00 
0.0000000e+00 0.0000000e+00 5.5000000e+00 
0.0000000e+00 0.0000000e+00 5.7500000e+00 
0.0000000e+00 0.0000000e+00 6.0000000e+00 
0.0000000e+00 0.0000000e+00 6.2500000e+00 
0.0000000e+00 0.0000000e+00 6.5000000e+00 
0.0000000e+00 0.0000000e+00 6.7500000e+00 
0.0000000e+00 0.0000000e+00 7.0000000e+00 
0.0000000e+00 0.0000000e+00 7.2500000e+00 
0.0000000e+00 0.0000000e+00 7.5000000e+00 
0.0000000e+00 0.0000000e+00 7.7500000e+00 
0.0000000e+00 0.0000000e+00 8.0000000e+00 
0.0000000e+00 0.0000000e+00 8.2500000e+00 
0.0000000e+00 0.0000000e+00 8.5000000e+00 
0.0000000e+00 0.0000000e+00 8.7500000e+00 
0.0000000e+00 0.0000000e+00 9.0000000e+00 
0.0000000e+00 0.0000000e+00 9.2500000e+00 
0.0000000e+00 0.0000000e+00 9.5000000e+00 
0.0000000e+00 0.0000000e+00 9.7500000e+00 
0.0000000e+00 0.0000000e+00 1.0000000e+01 
0.0000000e+00 0.0000000e+00 1.0250000e+01 
0.0000000e+00 0.0000000e+00 1.0500000e+01 
0.0000000e+00 0.0000000e+00 1.0750000e+01 
0.0000000e+00 0.0000000e+00 1.1000000e+01 
0.0000000e+00 0.0000000e+00 1.1250000e+01 
0.0000000e+00 0.0000000e+00 1.1500000e+01 
0.0000000e+00 0.0000000e+00 1.1750000e+01 
0.0000000e+00 0.0000000e+00 1.2000000e+01 
0.0000000e+00 0.0000000e+00 1.2250000e+01 
0.0000000e+00 0.0000000e+00 1.2500000e+01 
0.0000000e+00 0.0000000e+00 1.2750000e+01 
0.0000000e+00 0.0000000e+00 1.3000000e+01 
0.0000000e+00 0.0000000e+00 1.3250000e+01 
0.0000000e+00 0.0000000e+00 1.3500000e+01 
0.0000000e+00 0.0000000e+00 1.3750000e+01 
0.0000000e+00 0.0000000e+00 1.4000000e+01 
0.0000000e+00 0.0000000e+00 1.4250000e+01 
0.0000000e+00 0.0000000e+00 1.4500000e+01 
0.0000000e+00 0.0000000e+00 1.4750000e+01 
0.0000000e+00 0.0000000e+00 1.5000000e+01 
0.0000000e+00 0.0000000e+00 1.5250000e+01 
0.0000000e+00 0.0000000e+00 1.5500000e+01 
0.0000000e+00 0.0000000e+00 1.5750000e+01 
0.0000000e+00 0.0000000e+00 1.6000000e+01 
0.0000000e+00 0.0000000e+00 1.6250000e+01 
0.0000000e+00 0.0000000e+00 1.6500000e+01 
0.0000000e+00 0.0000000e+00 1.6750000e+01 
0.0000000e+00 0.0000000e+00 1.7000000e+01 
0.0000000e+00 0.0000000e+00 1.7250000e+01 
0.0000000e+00 0.0000000e+00 1.7500000e+01 
0.0000000e+00 0.0000000e+00 1.7750000e+01 
0.0000000e+00 0.0000000e+00 1.8000000e+01 
5.0000000e-01 0.0000000e+00 3.0000000e+00 
5.0000000e-01 0.0000000e+00 6.0000000e+00 
5.0000000e-01 0.0000000e+00 9.0000000e+00 
5.0000000e-01 0.0000000e+00 1.2000000e+01 
5.0000000e-01 0.0000000e+00 1.5000000e+01 
5.0000000e-01 0.0000000e+00 1.8000000e+01 
1.0000000e+00 0.0000000e+00 3.0000000e+00 
1.0000000e+00 0.0000000e+00 6.0000000e+00 
1.0000000e+00 0.0000000e+00 9.0000000e+00 
1.0000000e+00 0.0000000e+00 1.2000000e+01 
1.0000000e+00 0.0000000e+00 1.5000000e+01 
1.0000000e+00 0.0000000e+00 1.8000000e+01 
1.5000000e+00 0.0000000e+00 3.0000000e+00 
1.5000000e+00 0.0000000e+00 6.0000000e+00 
1.5000000e+00 0.0000000e+00 9.0000000e+00 
1.5000000e+00 0.0000000e+00 1.2000000e+01 
1.5000000e+00 0.0000000e+00 1.5000000e+01 
1.5000000e+00 0.0000000e+00 1.8000000e+01 
2.0000000e+00 0.0000000e+00 3.0000000e+00 
2.0000000e+00 0.0000000e+00 6.0000000e+00 
2.0000000e+00 0.0000000e+00 9.0000000e+00 
2.0000000e+00 0.0000000e+00 1.2000000e+01 
2.0000000e+00 0.0000000e+00 1.5000000e+01 
2.0000000e+00 0.0000000e+00 1.8000000e+01 
2.5000000e+00 0.0000000e+00 3.0000000e+00 
2.5000000e+00 0.0000000e+00 6.0000000e+00 
2.5000000e+00 0.0000000e+00 9.0000000e+00 
2.5000000e+00 0.0000000e+00 1.2000000e+01 
2.5000000e+00 0.0000000e+00 1.5000000e+01 
2.5000000e+00 0.0000000e+00 1.8000000e+01 
3.0000000e+00 0.0000000e+00 3.0000000e+00 
3.0000000e+00 0.0000000e+00 6.0000000e+00 
3.0000000e+00 0.0000000e+00 9.0000000e+00 
3.0000000e+00 0.0000000e+00 1.2000000e+01 
3.0000000e+00 0.0000000e+00 1.5000000e+01 
3.0000000e+00 0.0000000e+00 1.8000000e+01 
3.5000000e+00 0.0000000e+00 3.0000000e+00 
3.5000000e+00 0.0000000e+00 6.0000000e+00 
3.5000000e+00 0.0000000e+00 9.0000000e+00 
3.5000000e+00 0.0000000e+00 1.2000000e+01 
3.5000000e+00 0.0000000e+00 1.5000000e+01 
3.5000000e+00 0.0000000e+00 1.8000000e+01 
4.0000000e+00 0.0000000e+00 3.0000000e+00 
4.0000000e+00 0.0000000e+00 6.0000000e+00 
4.0000000e+00 0.0000000e+00 9.0000000e+00 
4.0000000e+00 0.0000000e+00 1.2000000e+01 
4.0000000e+00 0.0000000e+00 1.5000000e+01 
4.0000000e+00 0.0000000e+00 1.8000000e+01 
4.5000000e+00 0.0000000e+00 3.0000000e+00 
4.5000000e+00 0.0000000e+00 6.0000000e+00 
4.5000000e+00 0.0000000e+00 9.0000000e+00 
4.5000000e+00 0.0000000e+00 1.2000000e+01 
4.5000000e+00 0.0000000e+00 1.5000000e+01 
4.5000000e+00 0.0000000e+00 1.8000000e+01 
5.0000000e+00 0.0000000e+00 3.0000000e+00 
5.0000000e+00 0.0000000e+00 6.0000000e+00 
5.0000000e+00 0.0000000e+00 9.0000000e+00 
5.0000000e+00 0.0000000e+00 1.2000000e+01 
5.0000000e+00 0.0000000e+00 1.5000000e+01 
5.0000000e+00 0.0000000e+00 1.8000000e+01 
5.5000000e+00 0.0000000e+00 3.0000000e+00 
5.5000000e+00 0.0000000e+00 6.0000000e+00 
5.5000000e+00 0.0000000e+00 9.0000000e+00 
5.5000000e+00 0.0000000e+00 1.2000000e+01 
5.5000000e+00 0.0000000e+00 1.5000000e+01 
5.5000000e+00 0.0000000e+00 1.8000000e+01 
6.0000000e+00 0.0000000e+00 0.0000000e+00 
6.0000000e+00 0.0000000e+00 2.5000000e-01 
6.0000000e+00 0.0000000e+00 5.0000000e-01 
6.0000000e+00 0.0000000e+00 7.5000000e-01 
6.0000000e+00 0.0000000e+00 1.0000000e+00 
6.0000000e+00 0.0000000e+00 1.2500000e+00 
6.0000000e+00 0.0000000e+00 1.5000000e+00 
6.0000000e+00 0.0000000e+00 1.7500000e+00 
6.0000000e+00 0.0000000e+00 2.0000000e+00 
6.0000000e+00 0.0000000e+00 2.2500000e+00 
6.0000000e+00 0.0000000e+00 2.5000000e+00 
6.0000000e+00 0.0000000e+00 2.7500000e+00 
6.0000000e+00 0.0000000e+00 3.0000000e+00 
6.0000000e+00 0.0000000e+00 3.2500000e+00 
6.0000000e+00 0.0000000e+00 3.5000000e+00 
6.0000000e+00 0.0000000e+00 3.7500000e+00 
6.0000000e+00 0.0000000e+00 4.0000000e+00 
6.0000000e+00 0.0000000e+00 4.2500000e+00 
6.0000000e+00 0.0000000e+00 4.5000000e+00 
6.0000000e+00 0.0000000e+00 4.7500000e+00 
6.0000000e+00 0.0000000e+00 5.0000000e+00 
6.0000000e+00 0.0000000e+00 5.2500000e+00 
6.0000000e+00 0.0000000e+00 5.5000000e+00 
6.0000000e+00 0.0000000e+00 5.7500000e+00 
6.0000000e+00 0.0000000e+00 6.0000000e+00 
6.0000000e+00 0.0000000e+00 6.2500000e+00 
6.0000000e+00 0.0000000e+00 6.5000000e+00 
6.0000000e+00 0.0000000e+00 6.7500000e+00 
6.0000000e+00 0.0000000e+00 7.0000000e+00 
6.0000000e+00 0.0000000e+00 7.2500000e+00 
6.0000000e+00 0.0000000e+00 7.5000000e+00 
6.0000000e+00 0.0000000e+00 7.7500000e+00 
6.0000000e+00 0.0000000e+00 8.0000000e+00 
6.0000000e+00 0.0000000e+00 8.2500000e+00 
6.0000000e+00 0.0000000e+00 8.5000000e+00 
6.0000000e+00 0.0000000e+00 8.7500000e+00 
6.0000000e+00 0.0000000e+00 9.0000000e+00 
6.0000000e+00 0.0000000e+00 9.2500000e+00 
6.0000000e+00 0.0000000e+00 9.5000000e+00 
6.0000000e+00 0.0000000e+00 9.7500000e+00 
6.0000000e+00 0.0000000e+00 1.0000000e+01 
6.0000000e+00 0.0000000e+00 1.0250000e+01 
6.0000000e+00 0.0000000e+00 1.0500000e+01 
6.0000000e+00 0.0000000e+00 1.0750000e+01 
6.0000000e+00 0.0000000e+00 1.1000000e+01 
6.0000000e+00 0.0000000e+00 1.1250000e+01 
6.0000000e+00 0.0000000e+00 1.1500000e+01 
6.0000000e+00 0.0000000e+00 1.1750000e+01 
6.0000000e+00 0.0000000e+00 1.2000000e+01 
6.0000000e+00 0.0000000e+00 1.2250000e+01 
6.0000000e+00 0.0000000e+00 1.2500000e+01 
6.0000000e+00 0.0000000e+00 1.2750000e+01 
6.0000000e+00 0.0000000e+00 1.3000000e+01 
6.0000000e+00 0.0000000e+00 1.3250000e+01 
6.0000000e+00 0.0000000e+00 1.3500000e+01 
6.0000000e+00 0.0000000e+00 1.3750000e+01 
6.0000000e+00 0.0000000e+00 1.4000000e+01 
6.0000000e+00 0.0000000e+00 1.4250000e+01 
6.0000000e+00 0.0000000e+00 1.4500000e+01 
6.0000000e+00 0.0000000e+00 1.4750000e+01 
6.0000000e+00 0.0000000e+00 1.5000000e+01 
6.0000000e+00 0.0000000e+00 1.5250000e+01 
6.0000000e+00 0.0000000e+00 1.5500000e+01 
6.0000000e+00 0.0000000e+00 1.5750000e+01 
6.0000000e+00 0.0000000e+00 1.6000000e+01 
6.0000000e+00 0.0000000e+00 1.6250000e+01 
6.0000000e+00 0.0000000e+00 1.6500000e+01 
6.0000000e+00 0.0000000e+00 1.6750000e+01 
6.0000000e+00 0.0000000e+00 1.7000000e+01 
6.0000000e+00 0.0000000e+00 1.7250000e+01 
6.0000000e+00 0.0000000e+00 1.7500000e+01 
6.0000000e+00 0.0000000e+00 1.7750000e+01 
6.0000000e+00 0.0000000e+00 1.8000000e+01 

CELLS 216 648
2 0 1
2 1 2
2 2 3
2 3 4
2 4 5
2 5 6
2 6 7
2 7 8
2 8 9
2 9 10
2 10 11
2 11 12
2 12 13
2 13 14
2 14 15
2 15 16
2 16 17
2 17 18
2 18 19
2 19 20
2 20 21
2 21 22
2 22 23
2 23 24
2 24 25
2 25 26
2 26 27
2 27 28
2 28 29
2 29 30
2 30 31
2 31 32
2 32 33
2 33 34
2 34 35
2 35 36
2 36 37
2 37 38
2 38 39
2 39 40
2 40 41
2 41 42
2 42 43
2 43 44
2 44 45
2 45 46
2 46 47
2 47 48
2 48 49
2 49 50
2 50 51
2 51 52
2 52 53
2 53 54
2 54 55
2 55 56
2 56 57
2 57 58
2 58 59
2 59 60
2 60 61
2 61 62
2 62 63
2 63 64
2 64 65
2 65 66
2 66 67
2 67 68
2 68 69
2 69 70
2 70 71
2 71 72
2 139 140
2 140 141
2 141 142
2 142 143
2 143 144
2 144 145
2 145 146
2 146 147
2 147 148
2 148 149
2 149 150
2 150 151
2 151 152
2 152 153
2 153 154
2 154 155
2 155 156
2 156 157
2 157 158
2 158 159
2 159 160
2 160 161
2 161 162
2 162 163
2 163 164
2 164 165
2 165 166
2 166 167
2 167 168
2 168 169
2 169 170
2 170 171
2 171 172
2 172 173
2 173 174
2 174 175
2 175 176
2 176 177
2 177 178
2 178 179
2 179 180
2 180 181
2 181 182
2 182 183
2 183 184
2 184 185
2 185 186
2 186 187
2 187 188
2 188 189
2 189 190
2 190 191
2 191 192
2 192 193
2 193 194
2 194 195
2 195 196
2 196 197
2 197 198
2 198 199
2 199 200
2 200 201
2 201 202
2 202 203
2 203 204
2 204 205
2 205 206
2 206 207
2 207 208
2 208 209
2 209 210
2 210 211
2 12 73
2 73 79
2 79 85
2 85 91
2 91 97
2 97 103
2 103 109
2 109 115
2 115 121
2 121 127
2 127 133
2 133 151
2 24 74
2 74 80
2 80 86
2 86 92
2 92 98
2 98 104
2 104 110
2 110 116
2 116 122
2 122 128
2 128 134
2 134 163
2 36 75
2 75 81
2 81 87
2 87 93
2 93 99
2 99 105
2 105 111
2 111 117
2 117 123
2 123 129
2 129 135
2 135 175
2 48 76
2 76 82
2 82 88
2 88 94
2 94 100
2 100 106
2 106 112
2 112 118
2 118 124
2 124 130
2 130 136
2 136 187
2 60 77
2 77 83
2 83 89
2 89 95
2 95 101
2 101 107
2 107 113
2 113 119
2 119 125
2 125 131
2 131 137
2 137 199
2 72 78
2 78 84
2 84 90
2 90 96
2 96 102
2 102 108
2 108 114
2 114 120
2 120 126
2 126 132
2 132 138
2 138 211

CELL_TYPES 216
3
3
3
3
3
3
3
3
3
3
3
3
3
3
3
3
3
3
3
3
3
3
3
3
3
3
3
3
3
3
3
3
3
3
3
3
3
3
3
3
3
3
3
3
3
3
3
3
3
3
3
3
3
3
3
3
3
3
3
3
3
3
3
3
3
3
3
3
3
3
3
3
3
3
3
3
3
3
3
3
3
3
3
3
3
3
3
3
3
3
3
3
3
3
3
3
3
3
3
3
3
3
3
3
3
3
3
3
3
3
3
3
3
3
3
3
3
3
3
3
3
3
3
3
3
3
3
3
3
3
3
3
3
3
3
3
3
3
3
3
3
3
3
3
3
3
3
3
3
3
3
3
3
3
3
3
3
3
3
3
3
3
3
3
3
3
3
3
3
3
3
3
3
3
3
3
3
3
3
3
3
3
3
3
3
3
3
3
3
3
3
3
3
3
3
3
3
3
3
3
3
3
3
3
3
3
3
3
3
3
3
3
3
3
3
3
POINT_DATA 212
FIELD FieldData 3
ADJOINT_DISPLACEMENT 3 212  float
0.0000000e+00 0.0000000e+00 0.0000000e+00 
-3.4594934e-05 0.0000000e+00 -4.2365396e-16 
-6.9726033e-05 0.0000000e+00 -8.4730792e-16 
-1.0592945e-04 0.0000000e+00 -1.2709618e-15 
-1.4374134e-04 0.0000000e+00 -1.6946158e-15 
-1.8369789e-04 0.0000000e+00 -2.1182697e-15 
-2.2633524e-04 0.0000000e+00 -2.5419236e-15 
-2.7218956e-04 0.0000000e+00 -2.9655775e-15 
-3.2179698e-04 0.0000000e+00 -3.3892317e-15 
-3.7569369e-04 0.0000000e+00 -3.8128854e-15 
-4.3441585e-04 0.0000000e+00 -4.2365395e-15 
-4.9849960e-04 0.0000000e+00 -4.6601936e-15 
-5.6848116e-04 0.0000000e+00 -5.0838473e-15 
-6.5126049e-04 0.0000000e+00 9.0885219e-09 
-7.5122877e-04 0.0000000e+00 1.8177049e-08 
-8.6515880e-04 0.0000000e+00 2.7265576e-08 
-9.8982337e-04 0.0000000e+00 3.6354106e-08 
-1.1219952e-03 0.0000000e+00 4.5442633e-08 
-1.2584471e-03 0.0000000e+00 5.4531160e-08 
-1.3959520e-03 0.0000000e+00 6.3619687e-08 
-1.5312824e-03 0.0000000e+00 7.2708211e-08 
-1.6612115e-03 0.0000000e+00 8.1796742e-08 
-1.7825117e-03 0.0000000e+00 9.0885266e-08 
-1.8919560e-03 0.0000000e+00 9.9973796e-08 
-1.9863171e-03 0.0000000e+00 1.0906232e-07 
-2.0846003e-03 0.0000000e+00 1.5450671e-07 
-2.2173270e-03 0.0000000e+00 1.9995109e-07 
-2.3985445e-03 0.0000000e+00 2.4539548e-07 
-2.6422995e-03 0.0000000e+00 2.9083986e-07 
-2.9626396e-03 0.0000000e+00 3.3628424e-07 
-3.3736115e-03 0.0000000e+00 3.8172863e-07 
-3.8892627e-03 0.0000000e+00 4.2717301e-07 
-4.5236400e-03 0.0000000e+00 4.7261739e-07 
-5.2907909e-03 0.0000000e+00 5.1806177e-07 
-6.2047620e-03 0.0000000e+00 5.6350615e-07 
-7.2796009e-03 0.0000000e+00 6.0895053e-07 
-8.5293548e-03 0.0000000e+00 6.5439491e-07 
-1.0086562e-02 0.0000000e+00 8.7253704e-07 
-1.2034230e-02 0.0000000e+00 1.0906791e-06 
-1.4312111e-02 0.0000000e+00 1.3088212e-06 
-1.6859956e-02 0.0000000e+00 1.5269634e-06 
-1.9617515e-02 0.0000000e+00 1.7451055e-06 
-2.2524539e-02 0.0000000e+00 1.9632475e-06 
-2.5520779e-02 0.0000000e+00 2.1813896e-06 
-2.8545989e-02 0.0000000e+00 2.3995317e-06 
-3.1539913e-02 0.0000000e+00 2.6176740e-06 
-3.4442309e-02 0.0000000e+00 2.8358161e-06 
-3.7192926e-02 0.0000000e+00 3.0539582e-06 
-3.9731514e-02 0.0000000e+00 3.2721002e-06 
-4.2510383e-02 0.0000000e+00 4.3174082e-06 
-4.6193805e-02 0.0000000e+00 5.3627164e-06 
-5.1039487e-02 0.0000000e+00 6.4080245e-06 
-5.7305135e-02 0.0000000e+00 7.4533323e-06 
-6.5248452e-02 0.0000000e+00 8.4986405e-06 
-7.5127140e-02 0.0000000e+00 9.5439482e-06 
-8.7198898e-02 0.0000000e+00 1.0589257e-05 
-1.0172144e-01 0.0000000e+00 1.1634565e-05 
-1.1895247e-01 0.0000000e+00 1.2679873e-05 
-1.3914968e-01 0.0000000e+00 1.3725181e-05 
-1.6257079e-01 0.0000000e+00 1.4770489e-05 
-1.8947348e-01 0.0000000e+00 1.5815796e-05 
-2.2302361e-01 0.0000000e+00 2.0824396e-05 
-2.6634994e-01 0.0000000e+00 2.5832995e-05 
-3.1965464e-01 0.0000000e+00 3.0841595e-05 
-3.8313985e-01 0.0000000e+00 3.5850193e-05 
-4.5700768e-01 0.0000000e+00 4.0858791e-05 
-5.4146028e-01 0.0000000e+00 4.5867389e-05 
-6.3669980e-01 0.0000000e+00 5.0875988e-05 
-7.4292839e-01 0.0000000e+00 5.5884586e-05 
-8.6034817e-01 0.0000000e+00 6.0893188e-05 
-7.3916131e-01 0.0000000e+00 6.5901782e-05 
-6.2956989e-01 0.0000000e+00 7.0910384e-05 
-5.3177613e-01 0.0000000e+00 7.5918986e-05 
-5.6841178e-04 0.0000000e+00 1.1956881e-04 
-1.9866356e-03 0.0000000e+00 9.9443321e-05 
-8.5279848e-03 0.0000000e+00 2.1859303e-03 
-3.9737374e-02 0.0000000e+00 3.1096705e-03 
-1.8947247e-01 0.0000000e+00 4.6378482e-02 
-5.3177238e-01 0.0000000e+00 -1.6030441e-01 
-5.6834245e-04 0.0000000e+00 1.9109853e-04 
-1.9869539e-03 0.0000000e+00 7.5511234e-05 
-8.5266158e-03 0.0000000e+00 3.4741312e-03 
-3.9743233e-02 0.0000000e+00 3.2576150e-03 
-1.8947144e-01 0.0000000e+00 7.2842591e-02 
-5.3176868e-01 0.0000000e+00 -2.7703369e-01 
-5.6827307e-04 0.0000000e+00 2.2247895e-04 
-1.9872724e-03 0.0000000e+00 -4.0126517e-05 
-8.5252468e-03 0.0000000e+00 4.0151770e-03 
-3.9749093e-02 0.0000000e+00 1.1651723e-03 
-1.8947041e-01 0.0000000e+00 8.2848698e-02 
-5.3176492e-01 0.0000000e+00 -3.5445991e-01 
-5.6820374e-04 0.0000000e+00 2.2159987e-04 
-1.9875907e-03 0.0000000e+00 -2.1590925e-04 
-8.5238768e-03 0.0000000e+00 3.9589871e-03 
-3.9754953e-02 0.0000000e+00 -2.4495909e-03 
-1.8946938e-01 0.0000000e+00 7.9837345e-02 
-5.3176123e-01 0.0000000e+00 -3.9693105e-01 
-5.6813436e-04 0.0000000e+00 1.9635107e-04 
-1.9879090e-03 0.0000000e+00 -4.2027631e-04 
-8.5225077e-03 0.0000000e+00 3.4554810e-03 
-3.9760817e-02 0.0000000e+00 -6.8686088e-03 
-1.8946837e-01 0.0000000e+00 6.7249089e-02 
-5.3175747e-01 0.0000000e+00 -4.0879512e-01 
-5.6806498e-04 0.0000000e+00 1.5462235e-04 
-1.9882275e-03 0.0000000e+00 -6.2166696e-04 
-8.5211387e-03 0.0000000e+00 2.6545790e-03 
-3.9766677e-02 0.0000000e+00 -1.1373814e-02 
-1.8946734e-01 0.0000000e+00 4.8524477e-02 
-5.3175378e-01 0.0000000e+00 -3.9440006e-01 
-5.6799565e-04 0.0000000e+00 1.0430350e-04 
-1.9885458e-03 0.0000000e+00 -7.8852061e-04 
-8.5197687e-03 0.0000000e+00 1.7062002e-03 
-3.9772537e-02 0.0000000e+00 -1.5247141e-02 
-1.8946631e-01 0.0000000e+00 2.7104063e-02 
-5.3175002e-01 0.0000000e+00 -3.5809392e-01 
-5.6792627e-04 0.0000000e+00 5.3284315e-05 
-1.9888643e-03 0.0000000e+00 -8.8927650e-04 
-8.5183997e-03 0.0000000e+00 7.6026446e-04 
-3.9778396e-02 0.0000000e+00 -1.7770523e-02 
-1.8946528e-01 0.0000000e+00 6.4283931e-03 
-5.3174633e-01 0.0000000e+00 -3.0422461e-01 
-5.6785689e-04 0.0000000e+00 9.4545785e-06 
-1.9891826e-03 0.0000000e+00 -8.9237397e-04 
-8.5170306e-03 0.0000000e+00 -3.3308541e-05 
-3.9784256e-02 0.0000000e+00 -1.8225893e-02 
-1.8946427e-01 0.0000000e+00 -1.0061980e-02 
-5.3174257e-01 0.0000000e+00 -2.3714018e-01 
-5.6778756e-04 0.0000000e+00 -1.9295914e-05 
-1.9895011e-03 0.0000000e+00 -7.6625234e-04 
-8.5156607e-03 0.0000000e+00 -5.2459911e-04 
-3.9790116e-02 0.0000000e+00 -1.5895186e-02 
-1.8946324e-01 0.0000000e+00 -1.8926507e-02 
-5.3173888e-01 0.0000000e+00 -1.6118860e-01 
-5.6771818e-04 0.0000000e+00 -2.5077370e-05 
-1.9898193e-03 0.0000000e+00 -4.7935091e-04 
-8.5142916e-03 0.0000000e+00 -5.6368764e-04 
-3.9795976e-02 0.0000000e+00 -1.0060335e-02 
-1.8946221e-01 0.0000000e+00 -1.6724635e-02 
-5.3173512e-01 0.0000000e+00 -8.0717847e-02 
0.0000000e+00 0.0000000e+00 0.0000000e+00 
-6.0082562e-05 0.0000000e+00 4.2824234e-16 
-1.1962897e-04 0.0000000e+00 8.5648472e-16 
-1.7810304e-04 0.0000000e+00 1.2847273e-15 
-2.3496864e-04 0.0000000e+00 1.7129697e-15 
-2.8968960e-04 0.0000000e+00 2.1412123e-15 
-3.4172976e-04 0.0000000e+00 2.5694548e-15 
-3.9055294e-04 0.0000000e+00 2.9976970e-15 
-4.3562302e-04 0.0000000e+00 3.4259395e-15 
-4.7640380e-04 0.0000000e+00 3.8541820e-15 
-5.1235914e-04 0.0000000e+00 4.2824249e-15 
-5.4295285e-04 0.0000000e+00 4.7106674e-15 
-5.6764879e-04 0.0000000e+00 5.1389104e-15 
-5.9138163e-04 0.0000000e+00 -9.0885219e-09 
-6.2159495e-04 0.0000000e+00 -1.8177049e-08 
-6.6151586e-04 0.0000000e+00 -2.7265576e-08 
-7.1437162e-04 0.0000000e+00 -3.6354106e-08 
-7.8338949e-04 0.0000000e+00 -4.5442633e-08 
-8.7179657e-04 0.0000000e+00 -5.4531160e-08 
-9.8282017e-04 0.0000000e+00 -6.3619687e-08 
-1.1196875e-03 0.0000000e+00 -7.2708211e-08 
-1.2856256e-03 0.0000000e+00 -8.1796742e-08 
-1.4838619e-03 0.0000000e+00 -9.0885266e-08 
-1.7176236e-03 0.0000000e+00 -9.9973796e-08 
-1.9901379e-03 0.0000000e+00 -1.0906232e-07 
-2.3297402e-03 0.0000000e+00 -1.5450671e-07 
-2.7532505e-03 0.0000000e+00 -1.9995109e-07 
-3.2466217e-03 0.0000000e+00 -2.4539548e-07 
-3.7958066e-03 0.0000000e+00 -2.9083986e-07 
-4.3867580e-03 0.0000000e+00 -3.3628424e-07 
-5.0054286e-03 0.0000000e+00 -3.8172863e-07 
-5.6377719e-03 0.0000000e+00 -4.2717301e-07 
-6.2697399e-03 0.0000000e+00 -4.7261739e-07 
-6.8872864e-03 0.0000000e+00 -5.1806177e-07 
-7.4763633e-03 0.0000000e+00 -5.6350615e-07 
-8.0229249e-03 0.0000000e+00 -6.0895053e-07 
-8.5129226e-03 0.0000000e+00 -6.5439491e-07 
-9.0386970e-03 0.0000000e+00 -8.7253704e-07 
-9.7421212e-03 0.0000000e+00 -1.0906791e-06 
-1.0683443e-02 0.0000000e+00 -1.3088212e-06 
-1.1922913e-02 0.0000000e+00 -1.5269634e-06 
-1.3520777e-02 0.0000000e+00 -1.7451055e-06 
-1.5537287e-02 0.0000000e+00 -1.9632475e-06 
-1.8032691e-02 0.0000000e+00 -2.1813896e-06 
-2.1067237e-02 0.0000000e+00 -2.3995317e-06 
-2.4701176e-02 0.0000000e+00 -2.6176740e-06 
-2.8994758e-02 0.0000000e+00 -2.8358161e-06 
-3.4008227e-02 0.0000000e+00 -3.0539582e-06 
-3.9801836e-02 0.0000000e+00 -3.2721002e-06 
-4.7000375e-02 0.0000000e+00 -4.3174082e-06 
-5.6016669e-02 0.0000000e+00 -5.3627164e-06 
-6.6593014e-02 0.0000000e+00 -6.4080245e-06 
-7.8471698e-02 0.0000000e+00 -7.4533323e-06 
-9.1395035e-02 0.0000000e+00 -8.4986405e-06 
-1.0510530e-01 0.0000000e+00 -9.5439482e-06 
-1.1934480e-01 0.0000000e+00 -1.0589257e-05 
-1.3385583e-01 0.0000000e+00 -1.1634565e-05 
-1.4838070e-01 0.0000000e+00 -1.2679873e-05 
-1.6266167e-01 0.0000000e+00 -1.3725181e-05 
-1.7644107e-01 0.0000000e+00 -1.4770489e-05 
-1.8946120e-01 0.0000000e+00 -1.5815796e-05 
-2.0371702e-01 0.0000000e+00 -2.0824396e-05 
-2.2124059e-01 0.0000000e+00 -2.5832995e-05 
-2.4182977e-01 0.0000000e+00 -3.0841595e-05 
-2.6528239e-01 0.0000000e+00 -3.5850193e-05 
-2.9139638e-01 0.0000000e+00 -4.0858791e-05 
-3.1996951e-01 0.0000000e+00 -4.5867389e-05 
-3.5079971e-01 0.0000000e+00 -5.0875988e-05 
-3.8368478e-01 0.0000000e+00 -5.5884586e-05 
-4.1842264e-01 0.0000000e+00 -6.0893188e-05 
-4.5481113e-01 0.0000000e+00 -6.5901782e-05 
-4.9264809e-01 0.0000000e+00 -7.0910384e-05 
-5.3173143e-01 0.0000000e+00 -7.5918986e-05 
ADJOINT_ROTATION 3 212  float
0.0000000e+00 -1.3802230e-04 0.0000000e+00 
0.0000000e+00 -1.3909463e-04 0.0000000e+00 
0.0000000e+00 -1.4231159e-04 0.0000000e+00 
0.0000000e+00 -1.4767320e-04 0.0000000e+00 
0.0000000e+00 -1.5517944e-04 0.0000000e+00 
0.0000000e+00 -1.6483033e-04 0.0000000e+00 
0.0000000e+00 -1.7662586e-04 0.0000000e+00 
0.0000000e+00 -1.9056605e-04 0.0000000e+00 
0.0000000e+00 -2.0665086e-04 0.0000000e+00 
0.0000000e+00 -2.2488032e-04 0.0000000e+00 
0.0000000e+00 -2.4525443e-04 0.0000000e+00 
0.0000000e+00 -2.6777317e-04 0.0000000e+00 
0.0000000e+00 -2.9243657e-04 0.0000000e+00 
0.0000000e+00 -3.6764675e-04 0.0000000e+00 
0.0000000e+00 -4.2994806e-04 0.0000000e+00 
0.0000000e+00 -4.7934055e-04 0.0000000e+00 
0.0000000e+00 -5.1582424e-04 0.0000000e+00 
0.0000000e+00 -5.3939904e-04 0.0000000e+00 
0.0000000e+00 -5.5006501e-04 0.0000000e+00 
0.0000000e+00 -5.4782216e-04 0.0000000e+00 
0.0000000e+00 -5.3267047e-04 0.0000000e+00 
0.0000000e+00 -5.0460995e-04 0.0000000e+00 
0.0000000e+00 -4.6364058e-04 0.0000000e+00 
0.0000000e+00 -4.0976238e-04 0.0000000e+00 
0.0000000e+00 -3.4297531e-04 0.0000000e+00 
0.0000000e+00 -4.5265513e-04 0.0000000e+00 
0.0000000e+00 -6.1852345e-04 0.0000000e+00 
0.0000000e+00 -8.4058021e-04 0.0000000e+00 
0.0000000e+00 -1.1188255e-03 0.0000000e+00 
0.0000000e+00 -1.4532593e-03 0.0000000e+00 
0.0000000e+00 -1.8438814e-03 0.0000000e+00 
0.0000000e+00 -2.2906922e-03 0.0000000e+00 
0.0000000e+00 -2.7936914e-03 0.0000000e+00 
0.0000000e+00 -3.3528791e-03 0.0000000e+00 
0.0000000e+00 -3.9682551e-03 0.0000000e+00 
0.0000000e+00 -4.6398202e-03 0.0000000e+00 
0.0000000e+00 -5.3675734e-03 0.0000000e+00 
0.0000000e+00 -7.0499172e-03 0.0000000e+00 
0.0000000e+00 -8.4912656e-03 0.0000000e+00 
0.0000000e+00 -9.6916175e-03 0.0000000e+00 
0.0000000e+00 -1.0650973e-02 0.0000000e+00 
0.0000000e+00 -1.1369333e-02 0.0000000e+00 
0.0000000e+00 -1.1846696e-02 0.0000000e+00 
0.0000000e+00 -1.2083064e-02 0.0000000e+00 
0.0000000e+00 -1.2078435e-02 0.0000000e+00 
0.0000000e+00 -1.1832811e-02 0.0000000e+00 
0.0000000e+00 -1.1346190e-02 0.0000000e+00 
0.0000000e+00 -1.0618574e-02 0.0000000e+00 
0.0000000e+00 -9.6499613e-03 0.0000000e+00 
0.0000000e+00 -1.2752778e-02 0.0000000e+00 
0.0000000e+00 -1.6886411e-02 0.0000000e+00 
0.0000000e+00 -2.2050859e-02 0.0000000e+00 
0.0000000e+00 -2.8246123e-02 0.0000000e+00 
0.0000000e+00 -3.5472203e-02 0.0000000e+00 
0.0000000e+00 -4.3729097e-02 0.0000000e+00 
0.0000000e+00 -5.3016808e-02 0.0000000e+00 
0.0000000e+00 -6.3335329e-02 0.0000000e+00 
0.0000000e+00 -7.4684672e-02 0.0000000e+00 
0.0000000e+00 -8.7064832e-02 0.0000000e+00 
0.0000000e+00 -1.0047580e-01 0.0000000e+00 
0.0000000e+00 -1.1491759e-01 0.0000000e+00 
0.0000000e+00 -1.5361817e-01 0.0000000e+00 
0.0000000e+00 -1.9312732e-01 0.0000000e+00 
0.0000000e+00 -2.3344502e-01 0.0000000e+00 
0.0000000e+00 -2.7457130e-01 0.0000000e+00 
0.0000000e+00 -3.1650612e-01 0.0000000e+00 
0.0000000e+00 -3.5924950e-01 0.0000000e+00 
0.0000000e+00 -4.0280145e-01 0.0000000e+00 
0.0000000e+00 -4.4716197e-01 0.0000000e+00 
0.0000000e+00 -4.9233103e-01 0.0000000e+00 
0.0000000e+00 4.6169132e-01 0.0000000e+00 
0.0000000e+00 4.1490513e-01 0.0000000e+00 
0.0000000e+00 3.6731037e-01 0.0000000e+00 
0.0000000e+00 -1.8846859e-04 0.0000000e+00 
0.0000000e+00 -6.4881948e-05 0.0000000e+00 
0.0000000e+00 -3.4235036e-03 0.0000000e+00 
0.0000000e+00 -3.0149873e-03 0.0000000e+00 
0.0000000e+00 -7.1679927e-02 0.0000000e+00 
0.0000000e+00 2.7566028e-01 0.0000000e+00 
0.0000000e+00 -1.0028021e-04 0.0000000e+00 
0.0000000e+00 1.5009007e-04 0.0000000e+00 
0.0000000e+00 -1.7792734e-03 0.0000000e+00 
0.0000000e+00 2.1838534e-03 0.0000000e+00 
0.0000000e+00 -3.5323363e-02 0.0000000e+00 
0.0000000e+00 1.9270617e-01 0.0000000e+00 
0.0000000e+00 -2.7871409e-05 0.0000000e+00 
0.0000000e+00 3.0194072e-04 0.0000000e+00 
0.0000000e+00 -4.3488250e-04 0.0000000e+00 
0.0000000e+00 5.9465617e-03 0.0000000e+00 
0.0000000e+00 -5.8479030e-03 0.0000000e+00 
0.0000000e+00 1.1844803e-01 0.0000000e+00 
0.0000000e+00 2.8757810e-05 0.0000000e+00 
0.0000000e+00 3.9067000e-04 0.0000000e+00 
0.0000000e+00 6.0966908e-04 0.0000000e+00 
0.0000000e+00 8.2731368e-03 0.0000000e+00 
0.0000000e+00 1.6746458e-02 0.0000000e+00 
0.0000000e+00 5.2885868e-02 0.0000000e+00 
0.0000000e+00 6.9607442e-05 0.0000000e+00 
0.0000000e+00 4.1627794e-04 0.0000000e+00 
0.0000000e+00 1.3543813e-03 0.0000000e+00 
0.0000000e+00 9.1635790e-03 0.0000000e+00 
0.0000000e+00 3.2459717e-02 0.0000000e+00 
0.0000000e+00 -3.9803213e-03 0.0000000e+00 
0.0000000e+00 9.4677496e-05 0.0000000e+00 
0.0000000e+00 3.7876453e-04 0.0000000e+00 
0.0000000e+00 1.7992542e-03 0.0000000e+00 
0.0000000e+00 8.6178882e-03 0.0000000e+00 
0.0000000e+00 4.1291878e-02 0.0000000e+00 
0.0000000e+00 -5.2150536e-02 0.0000000e+00 
0.0000000e+00 1.0396797e-04 0.0000000e+00 
0.0000000e+00 2.7812974e-04 0.0000000e+00 
0.0000000e+00 1.9442877e-03 0.0000000e+00 
0.0000000e+00 6.6360645e-03 0.0000000e+00 
0.0000000e+00 4.3242935e-02 0.0000000e+00 
0.0000000e+00 -9.1624781e-02 0.0000000e+00 
0.0000000e+00 9.7478856e-05 0.0000000e+00 
0.0000000e+00 1.1437358e-04 0.0000000e+00 
0.0000000e+00 1.7894820e-03 0.0000000e+00 
0.0000000e+00 3.2181081e-03 0.0000000e+00 
0.0000000e+00 3.8312893e-02 0.0000000e+00 
0.0000000e+00 -1.2240305e-01 0.0000000e+00 
0.0000000e+00 7.5210155e-05 0.0000000e+00 
0.0000000e+00 -1.1250393e-04 0.0000000e+00 
0.0000000e+00 1.3348368e-03 0.0000000e+00 
0.0000000e+00 -1.6359814e-03 0.0000000e+00 
0.0000000e+00 2.6501749e-02 0.0000000e+00 
0.0000000e+00 -1.4448534e-01 0.0000000e+00 
0.0000000e+00 3.7161877e-05 0.0000000e+00 
0.0000000e+00 -4.0250280e-04 0.0000000e+00 
0.0000000e+00 5.8035232e-04 0.0000000e+00 
0.0000000e+00 -7.9262033e-03 0.0000000e+00 
0.0000000e+00 7.8095049e-03 0.0000000e+00 
0.0000000e+00 -1.5787166e-01 0.0000000e+00 
0.0000000e+00 -1.6665983e-05 0.0000000e+00 
0.0000000e+00 -7.5562304e-04 0.0000000e+00 
0.0000000e+00 -4.7397151e-04 0.0000000e+00 
0.0000000e+00 -1.5652560e-02 0.0000000e+00 
0.0000000e+00 -1.7763840e-02 0.0000000e+00 
0.0000000e+00 -1.6256201e-01 0.0000000e+00 
0.0000000e+00 -2.4068769e-04 0.0000000e+00 
0.0000000e+00 -2.3961537e-04 0.0000000e+00 
0.0000000e+00 -2.3639841e-04 0.0000000e+00 
0.0000000e+00 -2.3103680e-04 0.0000000e+00 
0.0000000e+00 -2.2353056e-04 0.0000000e+00 
0.0000000e+00 -2.1387966e-04 0.0000000e+00 
0.0000000e+00 -2.0208412e-04 0.0000000e+00 
0.0000000e+00 -1.8814395e-04 0.0000000e+00 
0.0000000e+00 -1.7205912e-04 0.0000000e+00 
0.0000000e+00 -1.5382966e-04 0.0000000e+00 
0.0000000e+00 -1.3345557e-04 0.0000000e+00 
0.0000000e+00 -1.1093682e-04 0.0000000e+00 
0.0000000e+00 -8.6273430e-05 0.0000000e+00 
0.0000000e+00 -1.0574076e-04 0.0000000e+00 
0.0000000e+00 -1.3811691e-04 0.0000000e+00 
0.0000000e+00 -1.8340192e-04 0.0000000e+00 
0.0000000e+00 -2.4159576e-04 0.0000000e+00 
0.0000000e+00 -3.1269842e-04 0.0000000e+00 
0.0000000e+00 -3.9670995e-04 0.0000000e+00 
0.0000000e+00 -4.9363030e-04 0.0000000e+00 
0.0000000e+00 -6.0345948e-04 0.0000000e+00 
0.0000000e+00 -7.2619750e-04 0.0000000e+00 
0.0000000e+00 -8.6184440e-04 0.0000000e+00 
0.0000000e+00 -1.0104001e-03 0.0000000e+00 
0.0000000e+00 -1.1718646e-03 0.0000000e+00 
0.0000000e+00 -1.5355905e-03 0.0000000e+00 
0.0000000e+00 -1.8431279e-03 0.0000000e+00 
0.0000000e+00 -2.0944767e-03 0.0000000e+00 
0.0000000e+00 -2.2896370e-03 0.0000000e+00 
0.0000000e+00 -2.4286089e-03 0.0000000e+00 
0.0000000e+00 -2.5113923e-03 0.0000000e+00 
0.0000000e+00 -2.5379874e-03 0.0000000e+00 
0.0000000e+00 -2.5083937e-03 0.0000000e+00 
0.0000000e+00 -2.4226117e-03 0.0000000e+00 
0.0000000e+00 -2.2806411e-03 0.0000000e+00 
0.0000000e+00 -2.0824822e-03 0.0000000e+00 
0.0000000e+00 -1.8281346e-03 0.0000000e+00 
0.0000000e+00 -2.4182324e-03 0.0000000e+00 
0.0000000e+00 -3.2493260e-03 0.0000000e+00 
0.0000000e+00 -4.3214159e-03 0.0000000e+00 
0.0000000e+00 -5.6345016e-03 0.0000000e+00 
0.0000000e+00 -7.1885837e-03 0.0000000e+00 
0.0000000e+00 -8.9836614e-03 0.0000000e+00 
0.0000000e+00 -1.1019736e-02 0.0000000e+00 
0.0000000e+00 -1.3296806e-02 0.0000000e+00 
0.0000000e+00 -1.5814872e-02 0.0000000e+00 
0.0000000e+00 -1.8573934e-02 0.0000000e+00 
0.0000000e+00 -2.1573992e-02 0.0000000e+00 
0.0000000e+00 -2.4815047e-02 0.0000000e+00 
0.0000000e+00 -3.2601468e-02 0.0000000e+00 
0.0000000e+00 -3.9357074e-02 0.0000000e+00 
0.0000000e+00 -4.5081865e-02 0.0000000e+00 
0.0000000e+00 -4.9775843e-02 0.0000000e+00 
0.0000000e+00 -5.3439002e-02 0.0000000e+00 
0.0000000e+00 -5.6071345e-02 0.0000000e+00 
0.0000000e+00 -5.7672873e-02 0.0000000e+00 
0.0000000e+00 -5.8243588e-02 0.0000000e+00 
0.0000000e+00 -5.7783484e-02 0.0000000e+00 
0.0000000e+00 -5.6292567e-02 0.0000000e+00 
0.0000000e+00 -5.3770836e-02 0.0000000e+00 
0.0000000e+00 -5.0218288e-02 0.0000000e+00 
0.0000000e+00 -6.3693546e-02 0.0000000e+00 
0.0000000e+00 -7.6360248e-02 0.0000000e+00 