# vtk DataFile Version 4.0
vtk output
ASCII
DATASET UNSTRUCTURED_GRID
POINTS 30 float
0.0000000e+00 0.0000000e+00 0.0000000e+00 
0.0000000e+00 0.0000000e+00 8.0000001e-01 
0.0000000e+00 0.0000000e+00 1.6000000e+00 
0.0000000e+00 0.0000000e+00 2.4000001e+00 
0.0000000e+00 0.0000000e+00 3.2000000e+00 
0.0000000e+00 0.0000000e+00 4.0000000e+00 
0.0000000e+00 0.0000000e+00 4.8000002e+00 
0.0000000e+00 0.0000000e+00 5.5999999e+00 
0.0000000e+00 0.0000000e+00 6.4000001e+00 
0.0000000e+00 0.0000000e+00 7.1999998e+00 
0.0000000e+00 0.0000000e+00 8.0000000e+00 
1.0000000e+01 0.0000000e+00 0.0000000e+00 
1.0000000e+01 0.0000000e+00 8.0000001e-01 
1.0000000e+01 0.0000000e+00 1.6000000e+00 
1.0000000e+01 0.0000000e+00 2.4000001e+00 
1.0000000e+01 0.0000000e+00 3.2000000e+00 
1.0000000e+01 0.0000000e+00 4.0000000e+00 
1.0000000e+01 0.0000000e+00 4.8000002e+00 
1.0000000e+01 0.0000000e+00 5.5999999e+00 
1.0000000e+01 0.0000000e+00 6.4000001e+00 
1.0000000e+01 0.0000000e+00 7.1999998e+00 
1.0000000e+01 0.0000000e+00 8.0000000e+00 
2.0000000e+00 0.0000000e+00 4.0000000e+00 
4.0000000e+00 0.0000000e+00 4.0000000e+00 
6.0000000e+00 0.0000000e+00 4.0000000e+00 
8.0000000e+00 0.0000000e+00 4.0000000e+00 
2.0000000e+00 0.0000000e+00 8.0000000e+00 
4.0000000e+00 0.0000000e+00 8.0000000e+00 
6.0000000e+00 0.0000000e+00 8.0000000e+00 
8.0000000e+00 0.0000000e+00 8.0000000e+00 

CELLS 30 90
2 0 1
2 1 2
2 2 3
2 3 4
2 4 5
2 5 6
2 6 7
2 7 8
2 8 9
2 9 10
2 11 12
2 12 13
2 13 14
2 14 15
2 15 16
2 16 17
2 17 18
2 18 19
2 19 20
2 20 21
2 5 22
2 22 23
2 23 24
2 24 25
2 25 16
2 10 26
2 26 27
2 27 28
2 28 29
2 29 21

CELL_TYPES 30
3
3
3
3
3
3
3
3
3
3
3
3
3
3
3
3
3
3
3
3
3
3
3
3
3
3
3
3
3
3
POINT_DATA 30
FIELD FieldData 7
DISPLACEMENT 3 30  float
0.0000000e+00 0.0000000e+00 0.0000000e+00 
5.4636314e-03 0.0000000e+00 9.8690480e-06 
1.0609733e-02 0.0000000e+00 1.9738096e-05 
1.5117444e-02 0.0000000e+00 2.7760478e-05 
1.8659201e-02 0.0000000e+00 3.4914705e-05 
2.0957304e-02 0.0000000e+00 4.0051884e-05 
2.2516871e-02 0.0000000e+00 3.9581366e-05 
2.3882179e-02 0.0000000e+00 3.9110848e-05 
2.4952758e-02 0.0000000e+00 3.8174669e-05 
2.5698857e-02 0.0000000e+00 4.0272938e-05 
2.6100062e-02 0.0000000e+00 4.2371204e-05 
0.0000000e+00 0.0000000e+00 0.0000000e+00 
5.2934103e-03 0.0000000e+00 7.5342423e-06 
1.0291189e-02 0.0000000e+00 1.5068485e-05 
1.4706022e-02 0.0000000e+00 2.1074256e-05 
1.8300401e-02 0.0000000e+00 2.7994211e-05 
2.0887086e-02 0.0000000e+00 3.3681601e-05 
2.2606293e-02 0.0000000e+00 3.9026079e-05 
2.3841159e-02 0.0000000e+00 4.6969708e-05 
2.4743985e-02 0.0000000e+00 5.1797469e-05 
2.5453327e-02 0.0000000e+00 5.4985314e-05 
2.6117912e-02 0.0000000e+00 5.8173158e-05 
2.0949978e-02 0.0000000e+00 -7.5675023e-04 
2.0939711e-02 0.0000000e+00 1.6044660e-03 
2.0926015e-02 0.0000000e+00 3.5429609e-03 
2.0908697e-02 0.0000000e+00 3.1849518e-03 
2.6101388e-02 0.0000000e+00 4.0475806e-04 
2.6102714e-02 0.0000000e+00 1.6654006e-03 
2.6110684e-02 0.0000000e+00 2.4557649e-03 
2.6118424e-02 0.0000000e+00 1.7929537e-03 
ROTATION 3 30  float
0.0000000e+00 6.8956912e-03 0.0000000e+00 
0.0000000e+00 6.6972352e-03 0.0000000e+00 
0.0000000e+00 6.1018663e-03 0.0000000e+00 
0.0000000e+00 5.0970986e-03 0.0000000e+00 
0.0000000e+00 3.6952405e-03 0.0000000e+00 
0.0000000e+00 2.0214110e-03 0.0000000e+00 
0.0000000e+00 1.8527774e-03 0.0000000e+00 
0.0000000e+00 1.5357625e-03 0.0000000e+00 
0.0000000e+00 1.1387502e-03 0.0000000e+00 
0.0000000e+00 7.2178122e-04 0.0000000e+00 
0.0000000e+00 2.7651142e-04 0.0000000e+00 
0.0000000e+00 6.6783531e-03 0.0000000e+00 
0.0000000e+00 6.4935829e-03 0.0000000e+00 
0.0000000e+00 5.9392727e-03 0.0000000e+00 
0.0000000e+00 5.0466186e-03 0.0000000e+00 
0.0000000e+00 3.9087953e-03 0.0000000e+00 
0.0000000e+00 2.4971922e-03 0.0000000e+00 
0.0000000e+00 1.8189675e-03 0.0000000e+00 
0.0000000e+00 1.3047091e-03 0.0000000e+00 
0.0000000e+00 9.7854144e-04 0.0000000e+00 
0.0000000e+00 8.2676020e-04 0.0000000e+00 
0.0000000e+00 8.6664403e-04 0.0000000e+00 
0.0000000e+00 -7.6610502e-04 0.0000000e+00 
0.0000000e+00 -1.3036121e-03 0.0000000e+00 
0.0000000e+00 -4.6901286e-04 0.0000000e+00 
0.0000000e+00 8.0893486e-04 0.0000000e+00 
0.0000000e+00 -5.2232778e-04 0.0000000e+00 
0.0000000e+00 -6.2174420e-04 0.0000000e+00 
0.0000000e+00 -6.7205714e-05 0.0000000e+00 
0.0000000e+00 6.9923734e-04 0.0000000e+00 
REACTION 3 30  float
-1.9535535e+04 -0.0000000e+00 -2.5906252e+04 
-6.9849193e-10 -0.0000000e+00 -0.0000000e+00 
-1.2878445e-09 -0.0000000e+00 1.4551915e-11 
-5.1659299e-10 -0.0000000e+00 -2.1827873e-11 
1.4702891e-08 -0.0000000e+00 -1.4551915e-11 
-1.0135409e-08 -0.0000000e+00 -1.1932570e-09 
2.0838343e-08 -0.0000000e+00 6.1118044e-10 
-1.6007107e-10 -0.0000000e+00 5.2750693e-11 
-6.3337211e-09 -0.0000000e+00 -1.5825208e-10 
1.8917490e-10 -0.0000000e+00 1.4551915e-11 
1.9063009e-09 -0.0000000e+00 -4.3655746e-11 
-1.8188307e+04 -0.0000000e+00 -1.9777387e+04 
1.3969839e-09 -0.0000000e+00 2.1827873e-11 
2.5283953e-10 -0.0000000e+00 2.4556357e-10 
-3.3269316e-09 -0.0000000e+00 -2.5465852e-10 
-8.5856300e-10 -0.0000000e+00 -2.5102054e-10 
-8.5019565e-09 -0.0000000e+00 -7.0958777e-09 
-4.6929927e-10 -0.0000000e+00 -0.0000000e+00 
-1.9026629e-09 -0.0000000e+00 -1.8189894e-11 
3.5852281e-09 -0.0000000e+00 3.2741809e-10 
8.7311491e-11 -0.0000000e+00 -0.0000000e+00 
2.8885552e-09 -0.0000000e+00 3.2741809e-10 
1.0550139e-10 -0.0000000e+00 8.9130481e-10 
-5.3787517e-09 -0.0000000e+00 -2.7284841e-11 
-7.2759576e-10 -0.0000000e+00 1.9135769e-09 
-3.3469405e-10 -0.0000000e+00 -2.4374458e-10 
3.7252903e-09 -0.0000000e+00 5.4569682e-11 
-1.1263182e-08 -0.0000000e+00 -3.0922820e-11 
4.4310582e-09 -0.0000000e+00 1.4733814e-09 
-2.9031071e-09 -0.0000000e+00 2.1827873e-11 
REACTION_MOMENT 3 30  float
-0.0000000e+00 9.3132257e-10 -0.0000000e+00 
-0.0000000e+00 6.4028427e-10 -0.0000000e+00 
-0.0000000e+00 -1.2805685e-09 -0.0000000e+00 
-0.0000000e+00 -2.0372681e-09 -0.0000000e+00 
-0.0000000e+00 7.5087883e-09 -0.0000000e+00 
-0.0000000e+00 6.7811925e-09 -0.0000000e+00 
-0.0000000e+00 5.1222742e-09 -0.0000000e+00 
-0.0000000e+00 4.3946784e-09 -0.0000000e+00 
-0.0000000e+00 6.4028427e-09 -0.0000000e+00 
-0.0000000e+00 8.2945917e-10 -0.0000000e+00 
-0.0000000e+00 -2.2919266e-10 -0.0000000e+00 
-0.0000000e+00 4.0745363e-10 -0.0000000e+00 
-0.0000000e+00 3.4924597e-10 -0.0000000e+00 
-0.0000000e+00 -3.4924597e-10 -0.0000000e+00 
-0.0000000e+00 -1.1641532e-09 -0.0000000e+00 
-0.0000000e+00 -6.9849193e-10 -0.0000000e+00 
-0.0000000e+00 3.3469405e-10 -0.0000000e+00 
-0.0000000e+00 7.2759576e-11 -0.0000000e+00 
-0.0000000e+00 9.3132257e-10 -0.0000000e+00 
-0.0000000e+00 8.5128704e-10 -0.0000000e+00 
-0.0000000e+00 -1.1496013e-09 -0.0000000e+00 
-0.0000000e+00 -1.0841177e-09 -0.0000000e+00 
-0.0000000e+00 -1.0768417e-09 -0.0000000e+00 
-0.0000000e+00 -3.5288394e-10 -0.0000000e+00 
-0.0000000e+00 -1.3096724e-10 -0.0000000e+00 
-0.0000000e+00 -2.0372681e-10 -0.0000000e+00 
-0.0000000e+00 2.1827873e-11 -0.0000000e+00 
-0.0000000e+00 -1.6825652e-11 -0.0000000e+00 
-0.0000000e+00 2.5465852e-11 -0.0000000e+00 
-0.0000000e+00 -3.6379788e-12 -0.0000000e+00 
VOLUME_ACCELERATION 3 30  float
0.0000000e+00 0.0000000e+00 0.0000000e+00 
0.0000000e+00 0.0000000e+00 0.0000000e+00 
0.0000000e+00 0.0000000e+00 0.0000000e+00 
0.0000000e+00 0.0000000e+00 0.0000000e+00 
0.0000000e+00 0.0000000e+00 0.0000000e+00 
0.0000000e+00 0.0000000e+00 0.0000000e+00 
0.0000000e+00 0.0000000e+00 0.0000000e+00 
0.0000000e+00 0.0000000e+00 0.0000000e+00 
0.0000000e+00 0.0000000e+00 0.0000000e+00 
0.0000000e+00 0.0000000e+00 0.0000000e+00 
0.0000000e+00 0.0000000e+00 0.0000000e+00 
0.0000000e+00 0.0000000e+00 0.0000000e+00 
0.0000000e+00 0.0000000e+00 0.0000000e+00 
0.0000000e+00 0.0000000e+00 0.0000000e+00 
0.0000000e+00 0.0000000e+00 0.0000000e+00 
0.0000000e+00 0.0000000e+00 0.0000000e+00 
0.0000000e+00 0.0000000e+00 0.0000000e+00 
0.0000000e+00 0.0000000e+00 0.0000000e+00 
0.0000000e+00 0.0000000e+00 0.0000000e+00 
0.0000000e+00 0.0000000e+00 0.0000000e+00 
0.0000000e+00 0.0000000e+00 0.0000000e+00 
0.0000000e+00 0.0000000e+00 0.0000000e+00 
0.0000000e+00 0.0000000e+00 0.0000000e+00 
0.0000000e+00 0.0000000e+00 0.0000000e+00 
0.0000000e+00 0.0000000e+00 0.0000000e+00 
0.0000000e+00 0.0000000e+00 0.0000000e+00 
0.0000000e+00 0.0000000e+00 0.0000000e+00 
0.0000000e+00 0.0000000e+00 0.0000000e+00 
0.0000000e+00 0.0000000e+00 0.0000000e+00 
0.0000000e+00 0.0000000e+00 0.0000000e+00 
POINT_LOAD 3 30  float
0.0000000e+00 0.0000000e+00 0.0000000e+00 
0.0000000e+00 0.0000000e+00 0.0000000e+00 
-1.2291511e+03 0.0000000e+00 4.8475020e+03 
2.4408145e+03 0.0000000e+00 2.2789023e+03 
9.8755361e+03 0.0000000e+00 5.2947461e+03 
8.8362480e+03 0.0000000e+00 -6.9440972e+03 
0.0000000e+00 0.0000000e+00 0.0000000e+00 
6.7315684e+03 0.0000000e+00 1.2223596e+03 
-8.2135370e+02 0.0000000e+00 -7.9654253e+03 
0.0000000e+00 0.0000000e+00 0.0000000e+00 
0.0000000e+00 0.0000000e+00 0.0000000e+00 
0.0000000e+00 0.0000000e+00 0.0000000e+00 
0.0000000e+00 0.0000000e+00 0.0000000e+00 
3.0709133e+03 0.0000000e+00 4.0122354e+03 
6.1008872e+03 0.0000000e+00 -2.3997312e+03 
-8.9171348e+03 0.0000000e+00 3.2354873e+03 
5.9999658e+02 0.0000000e+00 8.2171240e+03 
5.4245566e+03 0.0000000e+00 -6.8227666e+03 
-3.0498381e+03 0.0000000e+00 8.1791582e+03 
1.7008499e+03 0.0000000e+00 4.3047754e+03 
0.0000000e+00 0.0000000e+00 0.0000000e+00 
-9.9714336e+03 0.0000000e+00 3.8760666e+02 
3.0903567e+03 0.0000000e+00 7.8909790e+03 
3.5995608e+03 0.0000000e+00 5.9359814e+03 
3.8020398e+03 0.0000000e+00 8.6919600e+03 
4.5085752e+03 0.0000000e+00 -8.1716006e+03 
0.0000000e+00 0.0000000e+00 0.0000000e+00 
-6.9763320e+03 0.0000000e+00 7.1611932e+02 
2.4324181e+02 0.0000000e+00 6.2461733e+03 
8.6639414e+03 0.0000000e+00 6.5261475e+03 
POINT_MOMENT 3 30  float
0.0000000e+00 0.0000000e+00 0.0000000e+00 
0.0000000e+00 0.0000000e+00 0.0000000e+00 
0.0000000e+00 0.0000000e+00 0.0000000e+00 
0.0000000e+00 0.0000000e+00 0.0000000e+00 
0.0000000e+00 0.0000000e+00 0.0000000e+00 
0.0000000e+00 0.0000000e+00 0.0000000e+00 
0.0000000e+00 0.0000000e+00 0.0000000e+00 
0.0000000e+00 0.0000000e+00 0.0000000e+00 
0.0000000e+00 0.0000000e+00 0.0000000e+00 
0.0000000e+00 0.0000000e+00 0.0000000e+00 
0.0000000e+00 0.0000000e+00 0.0000000e+00 
0.0000000e+00 0.0000000e+00 0.0000000e+00 
0.0000000e+00 0.0000000e+00 0.0000000e+00 
0.0000000e+00 0.0000000e+00 0.0000000e+00 
0.0000000e+00 0.0000000e+00 0.0000000e+00 
0.0000000e+00 0.0000000e+00 0.0000000e+00 
0.0000000e+00 0.0000000e+00 0.0000000e+00 
0.0000000e+00 0.0000000e+00 0.0000000e+00 
0.0000000e+00 0.0000000e+00 0.0000000e+00 
0.0000000e+00 0.0000000e+00 0.0000000e+00 
0.0000000e+00 0.0000000e+00 0.0000000e+00 
0.0000000e+00 0.0000000e+00 0.0000000e+00 
0.0000000e+00 0.0000000e+00 0.0000000e+00 
0.0000000e+00 0.0000000e+00 0.0000000e+00 
0.0000000e+00 0.0000000e+00 0.0000000e+00 
0.0000000e+00 0.0000000e+00 0.0000000e+00 
0.0000000e+00 0.0000000e+00 0.0000000e+00 
0.0000000e+00 0.0000000e+00 0.0000000e+00 
0.0000000e+00 0.0000000e+00 0.0000000e+00 
0.0000000e+00 0.0000000e+00 0.0000000e+00 
CELL_DATA 30
FIELD FieldData 9
YOUNG_MODULUS 1 30  float
2.1000000e+11
2.1000000e+11
2.1000000e+11
2.1000000e+11
2.1000000e+11
2.1000000e+11
2.1000000e+11
2.1000000e+11
2.1000000e+11
2.1000000e+11
2.1000000e+11
2.1000000e+11
2.1000000e+11
2.1000000e+11
2.1000000e+11
2.1000000e+11
2.1000000e+11
2.1000000e+11
2.1000000e+11
2.1000000e+11
2.1000000e+11
2.1000000e+11
2.1000000e+11
2.1000000e+11
2.1000000e+11
2.1000000e+11
2.1000000e+11
2.1000000e+11
2.1000000e+11
2.1000000e+11
DENSITY 1 30  float
7.8500000e+03
7.8500000e+03
7.8500000e+03
7.8500000e+03
7.8500000e+03
7.8500000e+03
7.8500000e+03
7.8500000e+03
7.8500000e+03
7.8500000e+03
7.8500000e+03
7.8500000e+03
7.8500000e+03
7.8500000e+03
7.8500000e+03
7.8500000e+03
7.8500000e+03
7.8500000e+03
7.8500000e+03
7.8500000e+03
7.8500000e+03
7.8500000e+03
7.8500000e+03
7.8500000e+03
7.8500000e+03
7.8500000e+03
7.8500000e+03
7.8500000e+03
7.8500000e+03
7.8500000e+03
CROSS_AREA 1 30  float
9.9999998e-03
9.9999998e-03
9.9999998e-03
9.9999998e-03
9.9999998e-03
9.9999998e-03
9.9999998e-03
9.9999998e-03
9.9999998e-03
9.9999998e-03
9.9999998e-03
9.9999998e-03
9.9999998e-03
9.9999998e-03
9.9999998e-03
9.9999998e-03
9.9999998e-03
9.9999998e-03
9.9999998e-03
9.9999998e-03
9.9999998e-03
9.9999998e-03
9.9999998e-03
9.9999998e-03
9.9999998e-03
9.9999998e-03
9.9999998e-03
9.9999998e-03
9.9999998e-03
9.9999998e-03
I22 1 30  float
1.5000001e-04
1.5000001e-04
1.5000001e-04
1.5000001e-04
1.5000001e-04
1.5000001e-04
1.5000001e-04
1.5000001e-04
1.5000001e-04
1.5000001e-04
1.5000001e-04
1.5000001e-04
1.5000001e-04
1.5000001e-04
1.5000001e-04
1.5000001e-04
1.5000001e-04
1.5000001e-04
1.5000001e-04
1.5000001e-04
1.5000001e-04
1.5000001e-04
1.5000001e-04
1.5000001e-04
1.5000001e-04
1.5000001e-04
1.5000001e-04
1.5000001e-04
1.5000001e-04
1.5000001e-04
I33 1 30  float
1.5000001e-04
1.5000001e-04
1.5000001e-04
1.5000001e-04
1.5000001e-04
1.5000001e-04
1.5000001e-04
1.5000001e-04
1.5000001e-04
1.5000001e-04
1.5000001e-04
1.5000001e-04
1.5000001e-04
1.5000001e-04
1.5000001e-04
1.5000001e-04
1.5000001e-04
1.5000001e-04
1.5000001e-04
1.5000001e-04
1.5000001e-04
1.5000001e-04
1.5000001e-04
1.5000001e-04
1.5000001e-04
1.5000001e-04
1.5000001e-04
1.5000001e-04
1.5000001e-04
1.5000001e-04
TORSIONAL_INERTIA 1 30  float
3.0000001e-04
3.0000001e-04
3.0000001e-04
3.0000001e-04
3.0000001e-04
3.0000001e-04
3.0000001e-04
3.0000001e-04
3.0000001e-04
3.0000001e-04
3.0000001e-04
3.0000001e-04
3.0000001e-04
3.0000001e-04
3.0000001e-04
3.0000001e-04
3.0000001e-04
3.0000001e-04
3.0000001e-04
3.0000001e-04
3.0000001e-04
3.0000001e-04
3.0000001e-04
3.0000001e-04
3.0000001e-04
3.0000001e-04
3.0000001e-04
3.0000001e-04
3.0000001e-04
3.0000001e-04
POISSON_RATIO 1 30  float
3.0000001e-01
3.0000001e-01
3.0000001e-01
3.0000001e-01
3.0000001e-01
3.0000001e-01
3.0000001e-01
3.0000001e-01
3.0000001e-01
3.0000001e-01
3.0000001e-01
3.0000001e-01
3.0000001e-01
3.0000001e-01
3.0000001e-01
3.0000001e-01
3.0000001e-01
3.0000001e-01
3.0000001e-01
3.0000001e-01
3.0000001e-01
3.0000001e-01
3.0000001e-01
3.0000001e-01
3.0000001e-01
3.0000001e-01
3.0000001e-01
3.0000001e-01
3.0000001e-01
3.0000001e-01
MOMENT 3 30  float
0.0000000e+00 -7.8142144e+03 0.0000000e+00 
0.0000000e+00 -2.3442643e+04 0.0000000e+00 
0.0000000e+00 -3.9562734e+04 0.0000000e+00 
0.0000000e+00 -5.5198156e+04 0.0000000e+00 
0.0000000e+00 -6.5907039e+04 0.0000000e+00 
0.0000000e+00 -6.6399482e+03 0.0000000e+00 
0.0000000e+00 -1.2482464e+04 0.0000000e+00 
0.0000000e+00 -1.5632353e+04 0.0000000e+00 
0.0000000e+00 -1.6418156e+04 0.0000000e+00 
0.0000000e+00 -1.7532500e+04 0.0000000e+00 
0.0000000e+00 -7.2753228e+03 0.0000000e+00 
0.0000000e+00 -2.1825967e+04 0.0000000e+00 
0.0000000e+00 -3.5148246e+04 0.0000000e+00 
0.0000000e+00 -4.4801809e+04 0.0000000e+00 
0.0000000e+00 -5.5581867e+04 0.0000000e+00 
0.0000000e+00 -2.6705100e+04 0.0000000e+00 
0.0000000e+00 -2.0248922e+04 0.0000000e+00 
0.0000000e+00 -1.2842855e+04 0.0000000e+00 
0.0000000e+00 -5.9763853e+03 0.0000000e+00 
0.0000000e+00 1.5704254e+03 0.0000000e+00 
0.0000000e+00 -4.3903375e+04 0.0000000e+00 
0.0000000e+00 -8.4657383e+03 0.0000000e+00 
0.0000000e+00 1.3144939e+04 0.0000000e+00 
0.0000000e+00 2.0127676e+04 0.0000000e+00 
0.0000000e+00 2.6590055e+04 0.0000000e+00 
0.0000000e+00 -1.2581718e+04 0.0000000e+00 
0.0000000e+00 -1.5658085e+03 0.0000000e+00 
0.0000000e+00 8.7339814e+03 0.0000000e+00 
0.0000000e+00 1.2071479e+04 0.0000000e+00 
0.0000000e+00 2.6366548e+03 0.0000000e+00 
FORCE 3 30  float
2.5906252e+04 0.0000000e+00 -1.9535535e+04 
2.5906252e+04 0.0000000e+00 -1.9535535e+04 
2.1058750e+04 0.0000000e+00 -2.0764688e+04 
1.8779848e+04 0.0000000e+00 -1.8323873e+04 
1.3485101e+04 0.0000000e+00 -8.4483369e+03 
-1.2351111e+03 0.0000000e+00 -7.3031450e+03 
-1.2351111e+03 0.0000000e+00 -7.3031450e+03 
-2.4574707e+03 0.0000000e+00 -5.7157666e+02 
5.5079546e+03 0.0000000e+00 -1.3929303e+03 
5.5079546e+03 0.0000000e+00 -1.3929303e+03 
1.9777387e+04 0.0000000e+00 -1.8188307e+04 
1.9777387e+04 0.0000000e+00 -1.8188307e+04 
1.5765150e+04 0.0000000e+00 -1.5117393e+04 
1.8164883e+04 0.0000000e+00 -9.0165059e+03 
1.4929395e+04 0.0000000e+00 -1.7933641e+04 
1.4029260e+04 0.0000000e+00 5.3579448e+03 
2.0852025e+04 0.0000000e+00 1.0782501e+04 
1.2672868e+04 0.0000000e+00 7.7326636e+03 
8.3680918e+03 0.0000000e+00 9.4335137e+03 
8.3680918e+03 0.0000000e+00 9.4335137e+03 
-7.6910566e+03 0.0000000e+00 2.1664309e+04 
-1.0781413e+04 0.0000000e+00 1.3773330e+04 
-1.4380974e+04 0.0000000e+00 7.8373481e+03 
-1.8183014e+04 0.0000000e+00 -8.5461157e+02 
-2.2691588e+04 0.0000000e+00 7.3169893e+03 
1.3929303e+03 0.0000000e+00 5.5079546e+03 
1.3929303e+03 0.0000000e+00 5.5079546e+03 
8.3692627e+03 0.0000000e+00 4.7918354e+03 
8.1260205e+03 0.0000000e+00 -1.4543381e+03 
-5.3792059e+02 0.0000000e+00 -7.9804854e+03 
