# vtk DataFile Version 4.0
vtk output
ASCII
DATASET UNSTRUCTURED_GRID
POINTS 86 float
0.0000000e+00 0.0000000e+00 0.0000000e+00 
0.0000000e+00 0.0000000e+00 6.0000002e-01 
0.0000000e+00 0.0000000e+00 1.2000000e+00 
0.0000000e+00 0.0000000e+00 1.8000000e+00 
0.0000000e+00 0.0000000e+00 2.4000001e+00 
0.0000000e+00 0.0000000e+00 3.0000000e+00 
0.0000000e+00 0.0000000e+00 3.5999999e+00 
0.0000000e+00 0.0000000e+00 4.1999998e+00 
0.0000000e+00 0.0000000e+00 4.8000002e+00 
0.0000000e+00 0.0000000e+00 5.4000001e+00 
0.0000000e+00 0.0000000e+00 6.0000000e+00 
0.0000000e+00 0.0000000e+00 6.5999999e+00 
0.0000000e+00 0.0000000e+00 7.1999998e+00 
0.0000000e+00 0.0000000e+00 7.8000002e+00 
0.0000000e+00 0.0000000e+00 8.3999996e+00 
0.0000000e+00 0.0000000e+00 9.0000000e+00 
0.0000000e+00 0.0000000e+00 9.6000004e+00 
0.0000000e+00 0.0000000e+00 1.0200000e+01 
0.0000000e+00 0.0000000e+00 1.0800000e+01 
0.0000000e+00 0.0000000e+00 1.1400000e+01 
0.0000000e+00 0.0000000e+00 1.2000000e+01 
0.0000000e+00 0.0000000e+00 1.2600000e+01 
0.0000000e+00 0.0000000e+00 1.3200000e+01 
0.0000000e+00 0.0000000e+00 1.3800000e+01 
0.0000000e+00 0.0000000e+00 1.4400000e+01 
0.0000000e+00 0.0000000e+00 1.5000000e+01 
0.0000000e+00 0.0000000e+00 1.5600000e+01 
0.0000000e+00 0.0000000e+00 1.6200001e+01 
0.0000000e+00 0.0000000e+00 1.6799999e+01 
0.0000000e+00 0.0000000e+00 1.7400000e+01 
0.0000000e+00 0.0000000e+00 1.8000000e+01 
6.0000000e+00 0.0000000e+00 0.0000000e+00 
6.0000000e+00 0.0000000e+00 6.0000002e-01 
6.0000000e+00 0.0000000e+00 1.2000000e+00 
6.0000000e+00 0.0000000e+00 1.8000000e+00 
6.0000000e+00 0.0000000e+00 2.4000001e+00 
6.0000000e+00 0.0000000e+00 3.0000000e+00 
6.0000000e+00 0.0000000e+00 3.5999999e+00 
6.0000000e+00 0.0000000e+00 4.1999998e+00 
6.0000000e+00 0.0000000e+00 4.8000002e+00 
6.0000000e+00 0.0000000e+00 5.4000001e+00 
6.0000000e+00 0.0000000e+00 6.0000000e+00 
6.0000000e+00 0.0000000e+00 6.5999999e+00 
6.0000000e+00 0.0000000e+00 7.1999998e+00 
6.0000000e+00 0.0000000e+00 7.8000002e+00 
6.0000000e+00 0.0000000e+00 8.3999996e+00 
6.0000000e+00 0.0000000e+00 9.0000000e+00 
6.0000000e+00 0.0000000e+00 9.6000004e+00 
6.0000000e+00 0.0000000e+00 1.0200000e+01 
6.0000000e+00 0.0000000e+00 1.0800000e+01 
6.0000000e+00 0.0000000e+00 1.1400000e+01 
6.0000000e+00 0.0000000e+00 1.2000000e+01 
6.0000000e+00 0.0000000e+00 1.2600000e+01 
6.0000000e+00 0.0000000e+00 1.3200000e+01 
6.0000000e+00 0.0000000e+00 1.3800000e+01 
6.0000000e+00 0.0000000e+00 1.4400000e+01 
6.0000000e+00 0.0000000e+00 1.5000000e+01 
6.0000000e+00 0.0000000e+00 1.5600000e+01 
6.0000000e+00 0.0000000e+00 1.6200001e+01 
6.0000000e+00 0.0000000e+00 1.6799999e+01 
6.0000000e+00 0.0000000e+00 1.7400000e+01 
6.0000000e+00 0.0000000e+00 1.8000000e+01 
1.2000000e+00 0.0000000e+00 3.0000000e+00 
2.4000001e+00 0.0000000e+00 3.0000000e+00 
3.5999999e+00 0.0000000e+00 3.0000000e+00 
4.8000002e+00 0.0000000e+00 3.0000000e+00 
1.2000000e+00 0.0000000e+00 6.0000000e+00 
2.4000001e+00 0.0000000e+00 6.0000000e+00 
3.5999999e+00 0.0000000e+00 6.0000000e+00 
4.8000002e+00 0.0000000e+00 6.0000000e+00 
1.2000000e+00 0.0000000e+00 9.0000000e+00 
2.4000001e+00 0.0000000e+00 9.0000000e+00 
3.5999999e+00 0.0000000e+00 9.0000000e+00 
4.8000002e+00 0.0000000e+00 9.0000000e+00 
1.2000000e+00 0.0000000e+00 1.2000000e+01 
2.4000001e+00 0.0000000e+00 1.2000000e+01 
3.5999999e+00 0.0000000e+00 1.2000000e+01 
4.8000002e+00 0.0000000e+00 1.2000000e+01 
1.2000000e+00 0.0000000e+00 1.5000000e+01 
2.4000001e+00 0.0000000e+00 1.5000000e+01 
3.5999999e+00 0.0000000e+00 1.5000000e+01 
4.8000002e+00 0.0000000e+00 1.5000000e+01 
1.2000000e+00 0.0000000e+00 1.8000000e+01 
2.4000001e+00 0.0000000e+00 1.8000000e+01 
3.5999999e+00 0.0000000e+00 1.8000000e+01 
4.8000002e+00 0.0000000e+00 1.8000000e+01 

CELLS 90 270
2 0 1
2 1 2
2 2 3
2 3 4
2 4 5
2 5 6
2 6 7
2 7 8
2 8 9
2 9 10
2 10 11
2 11 12
2 12 13
2 13 14
2 14 15
2 15 16
2 16 17
2 17 18
2 18 19
2 19 20
2 20 21
2 21 22
2 22 23
2 23 24
2 24 25
2 25 26
2 26 27
2 27 28
2 28 29
2 29 30
2 31 32
2 32 33
2 33 34
2 34 35
2 35 36
2 36 37
2 37 38
2 38 39
2 39 40
2 40 41
2 41 42
2 42 43
2 43 44
2 44 45
2 45 46
2 46 47
2 47 48
2 48 49
2 49 50
2 50 51
2 51 52
2 52 53
2 53 54
2 54 55
2 55 56
2 56 57
2 57 58
2 58 59
2 59 60
2 60 61
2 5 62
2 62 63
2 63 64
2 64 65
2 65 36
2 10 66
2 66 67
2 67 68
2 68 69
2 69 41
2 15 70
2 70 71
2 71 72
2 72 73
2 73 46
2 20 74
2 74 75
2 75 76
2 76 77
2 77 51
2 25 78
2 78 79
2 79 80
2 80 81
2 81 56
2 30 82
2 82 83
2 83 84
2 84 85
2 85 61

CELL_TYPES 90
3
3
3
3
3
3
3
3
3
3
3
3
3
3
3
3
3
3
3
3
3
3
3
3
3
3
3
3
3
3
3
3
3
3
3
3
3
3
3
3
3
3
3
3
3
3
3
3
3
3
3
3
3
3
3
3
3
3
3
3
3
3
3
3
3
3
3
3
3
3
3
3
3
3
3
3
3
3
3
3
3
3
3
3
3
3
3
3
3
3
POINT_DATA 86
FIELD FieldData 3
ADJOINT_DISPLACEMENT 3 86  float
0.0000000e+00 0.0000000e+00 0.0000000e+00 
2.1837286e-05 0.0000000e+00 -1.2888378e-15 
4.3518590e-05 0.0000000e+00 -2.5776756e-15 
6.4887929e-05 0.0000000e+00 -3.8665136e-15 
8.5789325e-05 0.0000000e+00 -5.1553513e-15 
1.0606679e-04 0.0000000e+00 -6.4441894e-15 
1.3237412e-04 0.0000000e+00 -7.3110158e-07 
1.7309235e-04 0.0000000e+00 -1.4622032e-06 
2.3065640e-04 0.0000000e+00 -2.1933047e-06 
3.0750115e-04 0.0000000e+00 -2.9244063e-06 
4.0606150e-04 0.0000000e+00 -3.6555077e-06 
5.5489311e-04 0.0000000e+00 -7.3353858e-06 
7.7187968e-04 0.0000000e+00 -1.1015263e-05 
1.0434483e-03 0.0000000e+00 -1.4695142e-05 
1.3560259e-03 0.0000000e+00 -1.8375020e-05 
1.6960397e-03 0.0000000e+00 -2.2054897e-05 
2.1644754e-03 0.0000000e+00 -3.9845847e-05 
2.8404414e-03 0.0000000e+00 -5.7636797e-05 
3.6775493e-03 0.0000000e+00 -7.5427750e-05 
4.6294094e-03 0.0000000e+00 -9.3218696e-05 
5.6496328e-03 0.0000000e+00 -1.1100965e-04 
7.4582146e-03 0.0000000e+00 -1.9687756e-04 
1.1782381e-02 0.0000000e+00 -2.8274546e-04 
2.0086590e-02 0.0000000e+00 -3.6861337e-04 
3.3835299e-02 0.0000000e+00 -4.5448128e-04 
5.4492969e-02 0.0000000e+00 -5.4034917e-04 
8.5887253e-02 0.0000000e+00 -9.5476001e-04 
1.2353023e-01 0.0000000e+00 -1.3691708e-03 
1.5641299e-01 0.0000000e+00 -1.7835817e-03 
1.7352663e-01 0.0000000e+00 -2.1979925e-03 
1.6386221e-01 0.0000000e+00 -2.6124034e-03 
0.0000000e+00 0.0000000e+00 0.0000000e+00 
2.2028808e-05 0.0000000e+00 1.0961252e-15 
4.4213597e-05 0.0000000e+00 2.1922500e-15 
6.6710352e-05 0.0000000e+00 3.2883754e-15 
8.9675050e-05 0.0000000e+00 4.3845013e-15 
1.1326368e-04 0.0000000e+00 5.4806250e-15 
1.4398227e-04 0.0000000e+00 7.3110158e-07 
1.8660961e-04 0.0000000e+00 1.4622032e-06 
2.3871080e-04 0.0000000e+00 2.1933047e-06 
2.9785096e-04 0.0000000e+00 2.9244063e-06 
3.6159516e-04 0.0000000e+00 3.6555077e-06 
4.5446571e-04 0.0000000e+00 7.3353858e-06 
6.1165693e-04 0.0000000e+00 1.1015263e-05 
8.4674166e-04 0.0000000e+00 1.4695142e-05 
1.1732930e-03 0.0000000e+00 1.8375020e-05 
1.6048839e-03 0.0000000e+00 2.2054897e-05 
2.2945278e-03 0.0000000e+00 3.9845847e-05 
3.4171152e-03 0.0000000e+00 5.7636797e-05 
5.0190357e-03 0.0000000e+00 7.5427750e-05 
7.1466775e-03 0.0000000e+00 9.3218696e-05 
9.8464303e-03 0.0000000e+00 1.1100965e-04 
1.3623685e-02 0.0000000e+00 1.9687756e-04 
1.7976599e-02 0.0000000e+00 2.8274546e-04 
2.1440715e-02 0.0000000e+00 3.6861337e-04 
2.2551574e-02 0.0000000e+00 4.5448128e-04 
1.9844720e-02 0.0000000e+00 5.4034917e-04 
1.5406266e-02 0.0000000e+00 9.5476001e-04 
1.9637909e-02 0.0000000e+00 1.3691708e-03 
4.3548558e-02 0.0000000e+00 1.7835817e-03 
9.8147132e-02 0.0000000e+00 2.1979925e-03 
1.9444253e-01 0.0000000e+00 2.6124034e-03 
1.0750617e-04 0.0000000e+00 -1.7824465e-05 
1.0894555e-04 0.0000000e+00 -5.6809713e-06 
1.1038492e-04 0.0000000e+00 1.5374753e-05 
1.1182430e-04 0.0000000e+00 2.4286986e-05 
3.9716822e-04 0.0000000e+00 -1.2311421e-04 
3.8827496e-04 0.0000000e+00 -9.7187694e-05 
3.7938170e-04 0.0000000e+00 -1.0800730e-05 
3.7048841e-04 0.0000000e+00 5.1121922e-05 
1.6778085e-03 0.0000000e+00 -3.0808971e-04 
1.6595774e-03 0.0000000e+00 -4.0297262e-05 
1.6413463e-03 0.0000000e+00 3.7492358e-04 
1.6231150e-03 0.0000000e+00 5.3117395e-04 
6.4889924e-03 0.0000000e+00 -4.5735884e-04 
7.3283520e-03 0.0000000e+00 1.3522848e-03 
8.1677111e-03 0.0000000e+00 3.3573050e-03 
9.0070711e-03 0.0000000e+00 3.5970854e-03 
4.7563318e-02 0.0000000e+00 -3.3549577e-02 
4.0633667e-02 0.0000000e+00 -4.0484086e-02 
3.3704020e-02 0.0000000e+00 -3.0805910e-02 
2.6774369e-02 0.0000000e+00 -1.3977086e-02 
1.6997828e-01 0.0000000e+00 1.2839681e-01 
1.7609434e-01 0.0000000e+00 4.2248887e-01 
1.8221040e-01 0.0000000e+00 8.9159876e-01 
1.8832646e-01 0.0000000e+00 3.4766161e-01 
ADJOINT_ROTATION 3 86  float
0.0000000e+00 3.6438803e-05 0.0000000e+00 
0.0000000e+00 3.6308818e-05 0.0000000e+00 
0.0000000e+00 3.5918867e-05 0.0000000e+00 
0.0000000e+00 3.5268942e-05 0.0000000e+00 
0.0000000e+00 3.4359047e-05 0.0000000e+00 
0.0000000e+00 3.3189182e-05 0.0000000e+00 
0.0000000e+00 5.5178280e-05 0.0000000e+00 
0.0000000e+00 8.1225538e-05 0.0000000e+00 
0.0000000e+00 1.1133096e-04 0.0000000e+00 
0.0000000e+00 1.4549454e-04 0.0000000e+00 
0.0000000e+00 1.8371629e-04 0.0000000e+00 
0.0000000e+00 3.0861879e-04 0.0000000e+00 
0.0000000e+00 4.1089964e-04 0.0000000e+00 
0.0000000e+00 4.9055880e-04 0.0000000e+00 
0.0000000e+00 5.4759637e-04 0.0000000e+00 
0.0000000e+00 5.8201229e-04 0.0000000e+00 
0.0000000e+00 9.6655410e-04 0.0000000e+00 
0.0000000e+00 1.2737808e-03 0.0000000e+00 
0.0000000e+00 1.5036924e-03 0.0000000e+00 
0.0000000e+00 1.6562889e-03 0.0000000e+00 
0.0000000e+00 1.7315703e-03 0.0000000e+00 
0.0000000e+00 4.7038295e-03 0.0000000e+00 
0.0000000e+00 1.0116853e-02 0.0000000e+00 
0.0000000e+00 1.7970638e-02 0.0000000e+00 
0.0000000e+00 2.8265188e-02 0.0000000e+00 
0.0000000e+00 4.1000500e-02 0.0000000e+00 
0.0000000e+00 6.0589086e-02 0.0000000e+00 
0.0000000e+00 6.1829481e-02 0.0000000e+00 
0.0000000e+00 4.4721693e-02 0.0000000e+00 
0.0000000e+00 9.2657181e-03 0.0000000e+00 
0.0000000e+00 -4.4538442e-02 0.0000000e+00 
0.0000000e+00 3.6671350e-05 0.0000000e+00 
0.0000000e+00 3.6801335e-05 0.0000000e+00 
0.0000000e+00 3.7191290e-05 0.0000000e+00 
0.0000000e+00 3.7841215e-05 0.0000000e+00 
0.0000000e+00 3.8751110e-05 0.0000000e+00 
0.0000000e+00 3.9920975e-05 0.0000000e+00 
0.0000000e+00 6.1797968e-05 0.0000000e+00 
0.0000000e+00 7.9616802e-05 0.0000000e+00 
0.0000000e+00 9.3377472e-05 0.0000000e+00 
0.0000000e+00 1.0307998e-04 0.0000000e+00 
0.0000000e+00 1.0872434e-04 0.0000000e+00 
0.0000000e+00 2.0461452e-04 0.0000000e+00 
0.0000000e+00 3.2312635e-04 0.0000000e+00 
0.0000000e+00 4.6425982e-04 0.0000000e+00 
0.0000000e+00 6.2801491e-04 0.0000000e+00 
0.0000000e+00 8.1439171e-04 0.0000000e+00 
0.0000000e+00 1.4973070e-03 0.0000000e+00 
0.0000000e+00 2.2575373e-03 0.0000000e+00 
0.0000000e+00 3.0950827e-03 0.0000000e+00 
0.0000000e+00 4.0099430e-03 0.0000000e+00 
0.0000000e+00 5.0021186e-03 0.0000000e+00 
0.0000000e+00 7.1819336e-03 0.0000000e+00 
0.0000000e+00 6.9209854e-03 0.0000000e+00 
0.0000000e+00 4.2192736e-03 0.0000000e+00 
0.0000000e+00 -9.2320167e-04 0.0000000e+00 
0.0000000e+00 -8.5064406e-03 0.0000000e+00 
0.0000000e+00 -3.2303734e-03 0.0000000e+00 
0.0000000e+00 2.0393880e-02 0.0000000e+00 
0.0000000e+00 6.2366318e-02 0.0000000e+00 
0.0000000e+00 1.2268694e-01 0.0000000e+00 
0.0000000e+00 2.0135576e-01 0.0000000e+00 
0.0000000e+00 -5.5733489e-07 0.0000000e+00 
0.0000000e+00 -1.6757414e-05 0.0000000e+00 
0.0000000e+00 -1.5411055e-05 0.0000000e+00 
0.0000000e+00 3.4817410e-06 0.0000000e+00 
0.0000000e+00 2.7176638e-05 0.0000000e+00 
0.0000000e+00 -5.8592384e-05 0.0000000e+00 
0.0000000e+00 -7.3590774e-05 0.0000000e+00 
0.0000000e+00 -1.7818538e-05 0.0000000e+00 
0.0000000e+00 -4.8843307e-05 0.0000000e+00 
0.0000000e+00 -3.4103316e-04 0.0000000e+00 
0.0000000e+00 -2.9455728e-04 0.0000000e+00 
0.0000000e+00 9.0584334e-05 0.0000000e+00 
0.0000000e+00 -8.8201388e-04 0.0000000e+00 
0.0000000e+00 -1.8617511e-03 0.0000000e+00 
0.0000000e+00 -1.2076414e-03 0.0000000e+00 
0.0000000e+00 1.0803152e-03 0.0000000e+00 
0.0000000e+00 1.5329052e-02 0.0000000e+00 
0.0000000e+00 -2.4573668e-03 0.0000000e+00 
0.0000000e+00 -1.2358755e-02 0.0000000e+00 
0.0000000e+00 -1.4375113e-02 0.0000000e+00 
0.0000000e+00 -1.7546788e-01 0.0000000e+00 
0.0000000e+00 -3.1634319e-01 0.0000000e+00 
0.0000000e+00 -4.6716434e-01 0.0000000e+00 
0.0000000e+00 3.7206864e-01 0.0000000e+00 
SHAPE_SENSITIVITY 3 86  float
0.0000000e+00 0.0000000e+00 0.0000000e+00 
0.0000000e+00 0.0000000e+00 0.0000000e+00 
0.0000000e+00 0.0000000e+00 0.0000000e+00 
0.0000000e+00 0.0000000e+00 0.0000000e+00 
0.0000000e+00 0.0000000e+00 0.0000000e+00 
0.0000000e+00 0.0000000e+00 0.0000000e+00 
0.0000000e+00 0.0000000e+00 0.0000000e+00 
0.0000000e+00 0.0000000e+00 0.0000000e+00 
0.0000000e+00 0.0000000e+00 0.0000000e+00 
0.0000000e+00 0.0000000e+00 0.0000000e+00 
0.0000000e+00 0.0000000e+00 0.0000000e+00 
0.0000000e+00 0.0000000e+00 0.0000000e+00 
0.0000000e+00 0.0000000e+00 0.0000000e+00 
0.0000000e+00 0.0000000e+00 0.0000000e+00 
0.0000000e+00 0.0000000e+00 0.0000000e+00 
0.0000000e+00 0.0000000e+00 0.0000000e+00 
0.0000000e+00 0.0000000e+00 0.0000000e+00 
0.0000000e+00 0.0000000e+00 0.0000000e+00 
0.0000000e+00 0.0000000e+00 0.0000000e+00 
0.0000000e+00 0.0000000e+00 0.0000000e+00 
0.0000000e+00 0.0000000e+00 0.0000000e+00 
0.0000000e+00 0.0000000e+00 0.0000000e+00 
0.0000000e+00 0.0000000e+00 0.0000000e+00 
0.0000000e+00 0.0000000e+00 0.0000000e+00 
0.0000000e+00 0.0000000e+00 0.0000000e+00 
0.0000000e+00 0.0000000e+00 0.0000000e+00 
0.0000000e+00 0.0000000e+00 0.0000000e+00 
0.0000000e+00 0.0000000e+00 0.0000000e+00 
0.0000000e+00 0.0000000e+00 0.0000000e+00 
0.0000000e+00 0.0000000e+00 0.0000000e+00 
0.0000000e+00 0.0000000e+00 0.0000000e+00 
0.0000000e+00 0.0000000e+00 0.0000000e+00 
0.0000000e+00 0.0000000e+00 0.0000000e+00 
0.0000000e+00 0.0000000e+00 0.0000000e+00 
0.0000000e+00 0.0000000e+00 0.0000000e+00 
0.0000000e+00 0.0000000e+00 0.0000000e+00 
0.0000000e+00 0.0000000e+00 0.0000000e+00 
0.0000000e+00 0.0000000e+00 0.0000000e+00 
0.0000000e+00 0.0000000e+00 0.0000000e+00 
0.0000000e+00 0.0000000e+00 0.0000000e+00 
0.0000000e+00 0.0000000e+00 0.0000000e+00 
0.0000000e+00 0.0000000e+00 0.0000000e+00 
0.0000000e+00 0.0000000e+00 0.0000000e+00 
0.0000000e+00 0.0000000e+00 0.0000000e+00 
0.0000000e+00 0.0000000e+00 0.0000000e+00 
0.0000000e+00 0.0000000e+00 0.0000000e+00 
0.0000000e+00 0.0000000e+00 0.0000000e+00 
0.0000000e+00 0.0000000e+00 0.0000000e+00 
0.0000000e+00 0.0000000e+00 0.0000000e+00 
0.0000000e+00 0.0000000e+00 0.0000000e+00 
0.0000000e+00 0.0000000e+00 0.0000000e+00 
0.0000000e+00 0.0000000e+00 0.0000000e+00 
0.0000000e+00 0.0000000e+00 0.0000000e+00 
0.0000000e+00 0.0000000e+00 0.0000000e+00 
0.0000000e+00 0.0000000e+00 0.0000000e+00 
0.0000000e+00 0.0000000e+00 0.0000000e+00 
0.0000000e+00 0.0000000e+00 0.0000000e+00 
0.0000000e+00 0.0000000e+00 0.0000000e+00 
0.0000000e+00 0.0000000e+00 0.0000000e+00 
0.0000000e+00 0.0000000e+00 0.0000000e+00 
0.0000000e+00 0.0000000e+00 0.0000000e+00 
0.0000000e+00 0.0000000e+00 0.0000000e+00 
0.0000000e+00 0.0000000e+00 0.0000000e+00 
0.0000000e+00 0.0000000e+00 0.0000000e+00 
0.0000000e+00 0.0000000e+00 0.0000000e+00 
0.0000000e+00 0.0000000e+00 0.0000000e+00 
0.0000000e+00 0.0000000e+00 0.0000000e+00 
0.0000000e+00 0.0000000e+00 0.0000000e+00 
0.0000000e+00 0.0000000e+00 0.0000000e+00 
0.0000000e+00 0.0000000e+00 0.0000000e+00 
0.0000000e+00 0.0000000e+00 0.0000000e+00 
0.0000000e+00 0.0000000e+00 0.0000000e+00 
0.0000000e+00 0.0000000e+00 0.0000000e+00 
0.0000000e+00 0.0000000e+00 0.0000000e+00 
0.0000000e+00 0.0000000e+00 0.0000000e+00 
0.0000000e+00 0.0000000e+00 0.0000000e+00 
0.0000000e+00 0.0000000e+00 0.0000000e+00 
0.0000000e+00 0.0000000e+00 0.0000000e+00 
0.0000000e+00 0.0000000e+00 0.0000000e+00 
0.0000000e+00 0.0000000e+00 0.0000000e+00 
0.0000000e+00 0.0000000e+00 0.0000000e+00 
0.0000000e+00 0.0000000e+00 0.0000000e+00 
0.0000000e+00 0.0000000e+00 0.0000000e+00 
0.0000000e+00 0.0000000e+00 0.0000000e+00 
0.0000000e+00 0.0000000e+00 0.0000000e+00 
0.0000000e+00 0.0000000e+00 0.0000000e+00 
CELL_DATA 90
FIELD FieldData 1
I22_SENSITIVITY 1 90  float
-1.4615505e-07
-1.0230814e-06
-2.7769349e-06
-5.4077141e-06
-8.9154191e-06
-2.2957214e-04
-1.4636955e-04
-2.3945129e-05
1.3770115e-04
3.3856928e-04
-1.1041587e-03
-4.5392578e-04
-3.5269138e-06
2.4703797e-04
2.9776883e-04
-3.4267048e-03
-1.3831997e-03
-2.4334329e-05
6.4989133e-04
6.3947734e-04
-2.5675448e-02
-2.4523744e-02
-2.6810034e-03
3.9852776e-02
1.0307759e-01
-1.9138356e-01
-1.3332759e-02
-6.7532599e-02
-3.5398307e-01
-8.7268418e-01
-1.4615365e-07
-1.0230798e-06
-2.7769329e-06
-5.4077104e-06
-8.9154155e-06
2.3166189e-04
1.0288309e-04
1.3326136e-05
-3.7008966e-05
-4.8122216e-05
8.3296635e-04
5.0798530e-04
-1.6829779e-05
-7.4147887e-04
-1.6659619e-03
6.0063642e-03
3.3236027e-03
-4.3798809e-05
-4.0958398e-03
-8.8325208e-03
2.0324426e-02
-3.6166332e-04
-3.5671450e-04
2.0339273e-02
6.1726298e-02
3.9264426e-02
5.9947323e-02
-1.5162042e-01
-5.9543878e-01
-1.2715079e+00
-3.5108795e-04
1.2236094e-04
-1.9705594e-05
-1.4561584e-04
3.7630199e-04
-1.7403502e-03
5.9707469e-04
2.0677618e-04
-3.6350303e-04
1.4339797e-03
-7.0825303e-03
1.9540917e-03
-6.4354250e-04
-2.6834663e-03
8.0262879e-03
-2.9756263e-02
6.0718264e-03
-9.0692574e-03
-1.6361026e-02
4.3015011e-02
-2.8753045e-01
1.2398179e-01
1.3281628e-01
2.2834117e-02
7.7896386e-02
-9.2335969e-01
1.5307971e+00
2.5331511e+00
1.7256504e+00
-1.2497543e+00
