# vtk DataFile Version 4.0
vtk output
ASCII
DATASET UNSTRUCTURED_GRID
POINTS 212 float
0.0000000e+00 0.0000000e+00 0.0000000e+00 
0.0000000e+00 0.0000000e+00 2.5000000e-01 
0.0000000e+00 0.0000000e+00 5.0000000e-01 
0.0000000e+00 0.0000000e+00 7.5000000e-01 
0.0000000e+00 0.0000000e+00 1.0000000e+00 
0.0000000e+00 0.0000000e+00 1.2500000e+00 
0.0000000e+00 0.0000000e+00 1.5000000e+00 
0.0000000e+00 0.0000000e+00 1.7500000e+00 
0.0000000e+00 0.0000000e+00 2.0000000e+00 
0.0000000e+00 0.0000000e+00 2.2500000e+00 
0.0000000e+00 0.0000000e+00 2.5000000e+00 
0.0000000e+00 0.0000000e+00 2.7500000e+00 
0.0000000e+00 0.0000000e+00 3.0000000e+00 
0.0000000e+00 0.0000000e+00 3.2500000e+00 
0.0000000e+00 0.0000000e+00 3.5000000e+00 
0.0000000e+00 0.0000000e+00 3.7500000e+00 
0.0000000e+00 0.0000000e+00 4.0000000e+00 
0.0000000e+00 0.0000000e+00 4.2500000e+00 
0.0000000e+00 0.0000000e+00 4.5000000e+00 
0.0000000e+00 0.0000000e+00 4.7500000e+00 
0.0000000e+00 0.0000000e+00 5.0000000e+00 
0.0000000e+00 0.0000000e+00 5.2500000e+00 
0.0000000e+00 0.0000000e+00 5.5000000e+00 
0.0000000e+00 0.0000000e+00 5.7500000e+00 
0.0000000e+00 0.0000000e+00 6.0000000e+00 
0.0000000e+00 0.0000000e+00 6.2500000e+00 
0.0000000e+00 0.0000000e+00 6.5000000e+00 
0.0000000e+00 0.0000000e+00 6.7500000e+00 
0.0000000e+00 0.0000000e+00 7.0000000e+00 
0.0000000e+00 0.0000000e+00 7.2500000e+00 
0.0000000e+00 0.0000000e+00 7.5000000e+00 
0.0000000e+00 0.0000000e+00 7.7500000e+00 
0.0000000e+00 0.0000000e+00 8.0000000e+00 
0.0000000e+00 0.0000000e+00 8.2500000e+00 
0.0000000e+00 0.0000000e+00 8.5000000e+00 
0.0000000e+00 0.0000000e+00 8.7500000e+00 
0.0000000e+00 0.0000000e+00 9.0000000e+00 
0.0000000e+00 0.0000000e+00 9.2500000e+00 
0.0000000e+00 0.0000000e+00 9.5000000e+00 
0.0000000e+00 0.0000000e+00 9.7500000e+00 
0.0000000e+00 0.0000000e+00 1.0000000e+01 
0.0000000e+00 0.0000000e+00 1.0250000e+01 
0.0000000e+00 0.0000000e+00 1.0500000e+01 
0.0000000e+00 0.0000000e+00 1.0750000e+01 
0.0000000e+00 0.0000000e+00 1.1000000e+01 
0.0000000e+00 0.0000000e+00 1.1250000e+01 
0.0000000e+00 0.0000000e+00 1.1500000e+01 
0.0000000e+00 0.0000000e+00 1.1750000e+01 
0.0000000e+00 0.0000000e+00 1.2000000e+01 
0.0000000e+00 0.0000000e+00 1.2250000e+01 
0.0000000e+00 0.0000000e+00 1.2500000e+01 
0.0000000e+00 0.0000000e+00 1.2750000e+01 
0.0000000e+00 0.0000000e+00 1.3000000e+01 
0.0000000e+00 0.0000000e+00 1.3250000e+01 
0.0000000e+00 0.0000000e+00 1.3500000e+01 
0.0000000e+00 0.0000000e+00 1.3750000e+01 
0.0000000e+00 0.0000000e+00 1.4000000e+01 
0.0000000e+00 0.0000000e+00 1.4250000e+01 
0.0000000e+00 0.0000000e+00 1.4500000e+01 
0.0000000e+00 0.0000000e+00 1.4750000e+01 
0.0000000e+00 0.0000000e+00 1.5000000e+01 
0.0000000e+00 0.0000000e+00 1.5250000e+01 
0.0000000e+00 0.0000000e+00 1.5500000e+01 
0.0000000e+00 0.0000000e+00 1.5750000e+01 
0.0000000e+00 0.0000000e+00 1.6000000e+01 
0.0000000e+00 0.0000000e+00 1.6250000e+01 
0.0000000e+00 0.0000000e+00 1.6500000e+01 
0.0000000e+00 0.0000000e+00 1.6750000e+01 
0.0000000e+00 0.0000000e+00 1.7000000e+01 
0.0000000e+00 0.0000000e+00 1.7250000e+01 
0.0000000e+00 0.0000000e+00 1.7500000e+01 
0.0000000e+00 0.0000000e+00 1.7750000e+01 
0.0000000e+00 0.0000000e+00 1.8000000e+01 
5.0000000e-01 0.0000000e+00 3.0000000e+00 
5.0000000e-01 0.0000000e+00 6.0000000e+00 
5.0000000e-01 0.0000000e+00 9.0000000e+00 
5.0000000e-01 0.0000000e+00 1.2000000e+01 
5.0000000e-01 0.0000000e+00 1.5000000e+01 
5.0000000e-01 0.0000000e+00 1.8000000e+01 
1.0000000e+00 0.0000000e+00 3.0000000e+00 
1.0000000e+00 0.0000000e+00 6.0000000e+00 
1.0000000e+00 0.0000000e+00 9.0000000e+00 
1.0000000e+00 0.0000000e+00 1.2000000e+01 
1.0000000e+00 0.0000000e+00 1.5000000e+01 
1.0000000e+00 0.0000000e+00 1.8000000e+01 
1.5000000e+00 0.0000000e+00 3.0000000e+00 
1.5000000e+00 0.0000000e+00 6.0000000e+00 
1.5000000e+00 0.0000000e+00 9.0000000e+00 
1.5000000e+00 0.0000000e+00 1.2000000e+01 
1.5000000e+00 0.0000000e+00 1.5000000e+01 
1.5000000e+00 0.0000000e+00 1.8000000e+01 
2.0000000e+00 0.0000000e+00 3.0000000e+00 
2.0000000e+00 0.0000000e+00 6.0000000e+00 
2.0000000e+00 0.0000000e+00 9.0000000e+00 
2.0000000e+00 0.0000000e+00 1.2000000e+01 
2.0000000e+00 0.0000000e+00 1.5000000e+01 
2.0000000e+00 0.0000000e+00 1.8000000e+01 
2.5000000e+00 0.0000000e+00 3.0000000e+00 
2.5000000e+00 0.0000000e+00 6.0000000e+00 
2.5000000e+00 0.0000000e+00 9.0000000e+00 
2.5000000e+00 0.0000000e+00 1.2000000e+01 
2.5000000e+00 0.0000000e+00 1.5000000e+01 
2.5000000e+00 0.0000000e+00 1.8000000e+01 
3.0000000e+00 0.0000000e+00 3.0000000e+00 
3.0000000e+00 0.0000000e+00 6.0000000e+00 
3.0000000e+00 0.0000000e+00 9.0000000e+00 
3.0000000e+00 0.0000000e+00 1.2000000e+01 
3.0000000e+00 0.0000000e+00 1.5000000e+01 
3.0000000e+00 0.0000000e+00 1.8000000e+01 
3.5000000e+00 0.0000000e+00 3.0000000e+00 
3.5000000e+00 0.0000000e+00 6.0000000e+00 
3.5000000e+00 0.0000000e+00 9.0000000e+00 
3.5000000e+00 0.0000000e+00 1.2000000e+01 
3.5000000e+00 0.0000000e+00 1.5000000e+01 
3.5000000e+00 0.0000000e+00 1.8000000e+01 
4.0000000e+00 0.0000000e+00 3.0000000e+00 
4.0000000e+00 0.0000000e+00 6.0000000e+00 
4.0000000e+00 0.0000000e+00 9.0000000e+00 
4.0000000e+00 0.0000000e+00 1.2000000e+01 
4.0000000e+00 0.0000000e+00 1.5000000e+01 
4.0000000e+00 0.0000000e+00 1.8000000e+01 
4.5000000e+00 0.0000000e+00 3.0000000e+00 
4.5000000e+00 0.0000000e+00 6.0000000e+00 
4.5000000e+00 0.0000000e+00 9.0000000e+00 
4.5000000e+00 0.0000000e+00 1.2000000e+01 
4.5000000e+00 0.0000000e+00 1.5000000e+01 
4.5000000e+00 0.0000000e+00 1.8000000e+01 
5.0000000e+00 0.0000000e+00 3.0000000e+00 
5.0000000e+00 0.0000000e+00 6.0000000e+00 
5.0000000e+00 0.0000000e+00 9.0000000e+00 
5.0000000e+00 0.0000000e+00 1.2000000e+01 
5.0000000e+00 0.0000000e+00 1.5000000e+01 
5.0000000e+00 0.0000000e+00 1.8000000e+01 
5.5000000e+00 0.0000000e+00 3.0000000e+00 
5.5000000e+00 0.0000000e+00 6.0000000e+00 
5.5000000e+00 0.0000000e+00 9.0000000e+00 
5.5000000e+00 0.0000000e+00 1.2000000e+01 
5.5000000e+00 0.0000000e+00 1.5000000e+01 
5.5000000e+00 0.0000000e+00 1.8000000e+01 
6.0000000e+00 0.0000000e+00 0.0000000e+00 
6.0000000e+00 0.0000000e+00 2.5000000e-01 
6.0000000e+00 0.0000000e+00 5.0000000e-01 
6.0000000e+00 0.0000000e+00 7.5000000e-01 
6.0000000e+00 0.0000000e+00 1.0000000e+00 
6.0000000e+00 0.0000000e+00 1.2500000e+00 
6.0000000e+00 0.0000000e+00 1.5000000e+00 
6.0000000e+00 0.0000000e+00 1.7500000e+00 
6.0000000e+00 0.0000000e+00 2.0000000e+00 
6.0000000e+00 0.0000000e+00 2.2500000e+00 
6.0000000e+00 0.0000000e+00 2.5000000e+00 
6.0000000e+00 0.0000000e+00 2.7500000e+00 
6.0000000e+00 0.0000000e+00 3.0000000e+00 
6.0000000e+00 0.0000000e+00 3.2500000e+00 
6.0000000e+00 0.0000000e+00 3.5000000e+00 
6.0000000e+00 0.0000000e+00 3.7500000e+00 
6.0000000e+00 0.0000000e+00 4.0000000e+00 
6.0000000e+00 0.0000000e+00 4.2500000e+00 
6.0000000e+00 0.0000000e+00 4.5000000e+00 
6.0000000e+00 0.0000000e+00 4.7500000e+00 
6.0000000e+00 0.0000000e+00 5.0000000e+00 
6.0000000e+00 0.0000000e+00 5.2500000e+00 
6.0000000e+00 0.0000000e+00 5.5000000e+00 
6.0000000e+00 0.0000000e+00 5.7500000e+00 
6.0000000e+00 0.0000000e+00 6.0000000e+00 
6.0000000e+00 0.0000000e+00 6.2500000e+00 
6.0000000e+00 0.0000000e+00 6.5000000e+00 
6.0000000e+00 0.0000000e+00 6.7500000e+00 
6.0000000e+00 0.0000000e+00 7.0000000e+00 
6.0000000e+00 0.0000000e+00 7.2500000e+00 
6.0000000e+00 0.0000000e+00 7.5000000e+00 
6.0000000e+00 0.0000000e+00 7.7500000e+00 
6.0000000e+00 0.0000000e+00 8.0000000e+00 
6.0000000e+00 0.0000000e+00 8.2500000e+00 
6.0000000e+00 0.0000000e+00 8.5000000e+00 
6.0000000e+00 0.0000000e+00 8.7500000e+00 
6.0000000e+00 0.0000000e+00 9.0000000e+00 
6.0000000e+00 0.0000000e+00 9.2500000e+00 
6.0000000e+00 0.0000000e+00 9.5000000e+00 
6.0000000e+00 0.0000000e+00 9.7500000e+00 
6.0000000e+00 0.0000000e+00 1.0000000e+01 
6.0000000e+00 0.0000000e+00 1.0250000e+01 
6.0000000e+00 0.0000000e+00 1.0500000e+01 
6.0000000e+00 0.0000000e+00 1.0750000e+01 
6.0000000e+00 0.0000000e+00 1.1000000e+01 
6.0000000e+00 0.0000000e+00 1.1250000e+01 
6.0000000e+00 0.0000000e+00 1.1500000e+01 
6.0000000e+00 0.0000000e+00 1.1750000e+01 
6.0000000e+00 0.0000000e+00 1.2000000e+01 
6.0000000e+00 0.0000000e+00 1.2250000e+01 
6.0000000e+00 0.0000000e+00 1.2500000e+01 
6.0000000e+00 0.0000000e+00 1.2750000e+01 
6.0000000e+00 0.0000000e+00 1.3000000e+01 
6.0000000e+00 0.0000000e+00 1.3250000e+01 
6.0000000e+00 0.0000000e+00 1.3500000e+01 
6.0000000e+00 0.0000000e+00 1.3750000e+01 
6.0000000e+00 0.0000000e+00 1.4000000e+01 
6.0000000e+00 0.0000000e+00 1.4250000e+01 
6.0000000e+00 0.0000000e+00 1.4500000e+01 
6.0000000e+00 0.0000000e+00 1.4750000e+01 
6.0000000e+00 0.0000000e+00 1.5000000e+01 
6.0000000e+00 0.0000000e+00 1.5250000e+01 
6.0000000e+00 0.0000000e+00 1.5500000e+01 
6.0000000e+00 0.0000000e+00 1.5750000e+01 
6.0000000e+00 0.0000000e+00 1.6000000e+01 
6.0000000e+00 0.0000000e+00 1.6250000e+01 
6.0000000e+00 0.0000000e+00 1.6500000e+01 
6.0000000e+00 0.0000000e+00 1.6750000e+01 
6.0000000e+00 0.0000000e+00 1.7000000e+01 
6.0000000e+00 0.0000000e+00 1.7250000e+01 
6.0000000e+00 0.0000000e+00 1.7500000e+01 
6.0000000e+00 0.0000000e+00 1.7750000e+01 
6.0000000e+00 0.0000000e+00 1.8000000e+01 

CELLS 216 648
2 0 1
2 1 2
2 2 3
2 3 4
2 4 5
2 5 6
2 6 7
2 7 8
2 8 9
2 9 10
2 10 11
2 11 12
2 12 13
2 13 14
2 14 15
2 15 16
2 16 17
2 17 18
2 18 19
2 19 20
2 20 21
2 21 22
2 22 23
2 23 24
2 24 25
2 25 26
2 26 27
2 27 28
2 28 29
2 29 30
2 30 31
2 31 32
2 32 33
2 33 34
2 34 35
2 35 36
2 36 37
2 37 38
2 38 39
2 39 40
2 40 41
2 41 42
2 42 43
2 43 44
2 44 45
2 45 46
2 46 47
2 47 48
2 48 49
2 49 50
2 50 51
2 51 52
2 52 53
2 53 54
2 54 55
2 55 56
2 56 57
2 57 58
2 58 59
2 59 60
2 60 61
2 61 62
2 62 63
2 63 64
2 64 65
2 65 66
2 66 67
2 67 68
2 68 69
2 69 70
2 70 71
2 71 72
2 139 140
2 140 141
2 141 142
2 142 143
2 143 144
2 144 145
2 145 146
2 146 147
2 147 148
2 148 149
2 149 150
2 150 151
2 151 152
2 152 153
2 153 154
2 154 155
2 155 156
2 156 157
2 157 158
2 158 159
2 159 160
2 160 161
2 161 162
2 162 163
2 163 164
2 164 165
2 165 166
2 166 167
2 167 168
2 168 169
2 169 170
2 170 171
2 171 172
2 172 173
2 173 174
2 174 175
2 175 176
2 176 177
2 177 178
2 178 179
2 179 180
2 180 181
2 181 182
2 182 183
2 183 184
2 184 185
2 185 186
2 186 187
2 187 188
2 188 189
2 189 190
2 190 191
2 191 192
2 192 193
2 193 194
2 194 195
2 195 196
2 196 197
2 197 198
2 198 199
2 199 200
2 200 201
2 201 202
2 202 203
2 203 204
2 204 205
2 205 206
2 206 207
2 207 208
2 208 209
2 209 210
2 210 211
2 12 73
2 73 79
2 79 85
2 85 91
2 91 97
2 97 103
2 103 109
2 109 115
2 115 121
2 121 127
2 127 133
2 133 151
2 24 74
2 74 80
2 80 86
2 86 92
2 92 98
2 98 104
2 104 110
2 110 116
2 116 122
2 122 128
2 128 134
2 134 163
2 36 75
2 75 81
2 81 87
2 87 93
2 93 99
2 99 105
2 105 111
2 111 117
2 117 123
2 123 129
2 129 135
2 135 175
2 48 76
2 76 82
2 82 88
2 88 94
2 94 100
2 100 106
2 106 112
2 112 118
2 118 124
2 124 130
2 130 136
2 136 187
2 60 77
2 77 83
2 83 89
2 89 95
2 95 101
2 101 107
2 107 113
2 113 119
2 119 125
2 125 131
2 131 137
2 137 199
2 72 78
2 78 84
2 84 90
2 90 96
2 96 102
2 102 108
2 108 114
2 114 120
2 120 126
2 126 132
2 132 138
2 138 211

CELL_TYPES 216
3
3
3
3
3
3
3
3
3
3
3
3
3
3
3
3
3
3
3
3
3
3
3
3
3
3
3
3
3
3
3
3
3
3
3
3
3
3
3
3
3
3
3
3
3
3
3
3
3
3
3
3
3
3
3
3
3
3
3
3
3
3
3
3
3
3
3
3
3
3
3
3
3
3
3
3
3
3
3
3
3
3
3
3
3
3
3
3
3
3
3
3
3
3
3
3
3
3
3
3
3
3
3
3
3
3
3
3
3
3
3
3
3
3
3
3
3
3
3
3
3
3
3
3
3
3
3
3
3
3
3
3
3
3
3
3
3
3
3
3
3
3
3
3
3
3
3
3
3
3
3
3
3
3
3
3
3
3
3
3
3
3
3
3
3
3
3
3
3
3
3
3
3
3
3
3
3
3
3
3
3
3
3
3
3
3
3
3
3
3
3
3
3
3
3
3
3
3
3
3
3
3
3
3
3
3
3
3
3
3
3
3
3
3
3
3
POINT_DATA 212
FIELD FieldData 3
ADJOINT_DISPLACEMENT 3 212  float
0.0000000e+00 0.0000000e+00 0.0000000e+00 
-2.4225996e-03 0.0000000e+00 1.1059297e-15 
-4.8641106e-03 0.0000000e+00 2.2118595e-15 
-7.3434445e-03 0.0000000e+00 3.3177893e-15 
-9.8795136e-03 0.0000000e+00 4.4237189e-15 
-1.2491229e-02 0.0000000e+00 5.5296488e-15 
-1.5197502e-02 0.0000000e+00 6.6355786e-15 
-1.8017245e-02 0.0000000e+00 7.7415084e-15 
-2.0969369e-02 0.0000000e+00 8.8474379e-15 
-2.4072785e-02 0.0000000e+00 9.9533681e-15 
-2.7346404e-02 0.0000000e+00 1.1059298e-14 
-3.0809142e-02 0.0000000e+00 1.2165228e-14 
-3.4479905e-02 0.0000000e+00 1.3271157e-14 
-3.8752396e-02 0.0000000e+00 4.6270503e-07 
-4.3931860e-02 0.0000000e+00 9.2541001e-07 
-4.9904529e-02 0.0000000e+00 1.3881150e-06 
-5.6556623e-02 0.0000000e+00 1.8508200e-06 
-6.3774377e-02 0.0000000e+00 2.3135251e-06 
-7.1444012e-02 0.0000000e+00 2.7762301e-06 
-7.9451762e-02 0.0000000e+00 3.2389351e-06 
-8.7683856e-02 0.0000000e+00 3.7016400e-06 
-9.6026517e-02 0.0000000e+00 4.1643452e-06 
-1.0436597e-01 0.0000000e+00 4.6270502e-06 
-1.1258845e-01 0.0000000e+00 5.0897552e-06 
-1.2058018e-01 0.0000000e+00 5.5524602e-06 
-1.2961277e-01 0.0000000e+00 7.8660596e-06 
-1.4136307e-01 0.0000000e+00 1.0179660e-05 
-1.5632504e-01 0.0000000e+00 1.2493259e-05 
-1.7499274e-01 0.0000000e+00 1.4806858e-05 
-1.9786018e-01 0.0000000e+00 1.7120457e-05 
-2.2542137e-01 0.0000000e+00 1.9434057e-05 
-2.5817031e-01 0.0000000e+00 2.1747657e-05 
-2.9660106e-01 0.0000000e+00 2.4061257e-05 
-3.4120759e-01 0.0000000e+00 2.6374857e-05 
-3.9248395e-01 0.0000000e+00 2.8688455e-05 
-4.5092416e-01 0.0000000e+00 3.1002055e-05 
-5.1702219e-01 0.0000000e+00 3.3315657e-05 
-5.8311594e-01 0.0000000e+00 3.0996973e-05 
-6.4154327e-01 0.0000000e+00 2.8678287e-05 
-6.9279844e-01 0.0000000e+00 2.6359605e-05 
-7.3737568e-01 0.0000000e+00 2.4040921e-05 
-7.7576923e-01 0.0000000e+00 2.1722237e-05 
-8.0847335e-01 0.0000000e+00 1.9403553e-05 
-8.3598220e-01 0.0000000e+00 1.7084869e-05 
-8.5879010e-01 0.0000000e+00 1.4766186e-05 
-8.7739122e-01 0.0000000e+00 1.2447502e-05 
-8.9227980e-01 0.0000000e+00 1.0128818e-05 
-9.0395010e-01 0.0000000e+00 7.8101348e-06 
-9.1289628e-01 0.0000000e+00 5.4914508e-06 
-9.2078364e-01 0.0000000e+00 5.0084086e-06 
-9.2887157e-01 0.0000000e+00 4.5253664e-06 
-9.3704557e-01 0.0000000e+00 4.0423242e-06 
-9.4519114e-01 0.0000000e+00 3.5592818e-06 
-9.5319366e-01 0.0000000e+00 3.0762396e-06 
-9.6093869e-01 0.0000000e+00 2.5931975e-06 
-9.6831167e-01 0.0000000e+00 2.1101553e-06 
-9.7519809e-01 0.0000000e+00 1.6271130e-06 
-9.8148340e-01 0.0000000e+00 1.1440707e-06 
-9.8705310e-01 0.0000000e+00 6.6102848e-07 
-9.9179262e-01 0.0000000e+00 1.7798624e-07 
-9.9558753e-01 0.0000000e+00 -3.0505601e-07 
-9.9868274e-01 0.0000000e+00 -4.0166134e-07 
-1.0014143e+00 0.0000000e+00 -4.9826667e-07 
-1.0038044e+00 0.0000000e+00 -5.9487201e-07 
-1.0058752e+00 0.0000000e+00 -6.9147734e-07 
-1.0076486e+00 0.0000000e+00 -7.8808267e-07 
-1.0091469e+00 0.0000000e+00 -8.8468801e-07 
-1.0103920e+00 0.0000000e+00 -9.8129340e-07 
-1.0114061e+00 0.0000000e+00 -1.0778987e-06 
-1.0122113e+00 0.0000000e+00 -1.1745041e-06 
-1.0128297e+00 0.0000000e+00 -1.2711093e-06 
-1.0132834e+00 0.0000000e+00 -1.3677147e-06 
-1.0135944e+00 0.0000000e+00 -1.4643200e-06 
-3.4477852e-02 0.0000000e+00 6.0543348e-03 
-1.2058958e-01 0.0000000e+00 1.0865207e-02 
-5.1702219e-01 0.0000000e+00 1.7204283e-01 
-9.1288686e-01 0.0000000e+00 1.0729951e-02 
-9.9558961e-01 0.0000000e+00 5.2880701e-03 
-1.0135940e+00 0.0000000e+00 2.6831002e-04 
-3.4475800e-02 0.0000000e+00 9.4121601e-03 
-1.2059898e-01 0.0000000e+00 1.3367065e-02 
-5.1702219e-01 0.0000000e+00 4.0450972e-01 
-9.1287744e-01 0.0000000e+00 1.3173801e-02 
-9.9559170e-01 0.0000000e+00 8.2822340e-03 
-1.0135937e+00 0.0000000e+00 1.5591786e-04 
-3.4473747e-02 0.0000000e+00 1.0552191e-02 
-1.2060837e-01 0.0000000e+00 9.4260713e-03 
-5.1702219e-01 0.0000000e+00 1.9264142e-01 
-9.1286802e-01 0.0000000e+00 9.2362044e-03 
-9.9559385e-01 0.0000000e+00 9.3819965e-03 
-1.0135933e+00 0.0000000e+00 -2.3869246e-04 
-3.4471698e-02 0.0000000e+00 9.9531459e-03 
-1.2061778e-01 0.0000000e+00 9.5716922e-04 
-5.1702219e-01 0.0000000e+00 3.1645324e-02 
-9.1285861e-01 0.0000000e+00 8.1632222e-04 
-9.9559593e-01 0.0000000e+00 8.9871660e-03 
-1.0135931e+00 0.0000000e+00 -8.1557268e-04 
-3.4469645e-02 0.0000000e+00 8.0937399e-03 
-1.2062718e-01 0.0000000e+00 -1.0124698e-02 
-5.1702219e-01 0.0000000e+00 -8.3271138e-02 
-9.1284919e-01 0.0000000e+00 -1.0186682e-02 
-9.9559808e-01 0.0000000e+00 7.4975523e-03 
-1.0135927e+00 0.0000000e+00 -1.4747746e-03 
-3.4467593e-02 0.0000000e+00 5.4526897e-03 
-1.2063657e-01 0.0000000e+00 -2.1904588e-02 
-5.1702225e-01 0.0000000e+00 -1.5690054e-01 
-9.1283977e-01 0.0000000e+00 -2.1873645e-02 
-9.9560016e-01 0.0000000e+00 5.3129648e-03 
-1.0135924e+00 0.0000000e+00 -2.1163498e-03 
-3.4465540e-02 0.0000000e+00 2.5087129e-03 
-1.2064598e-01 0.0000000e+00 -3.2467555e-02 
-5.1702225e-01 0.0000000e+00 -1.9403547e-01 
-9.1283035e-01 0.0000000e+00 -3.2345407e-02 
-9.9560231e-01 0.0000000e+00 2.8332127e-03 
-1.0135920e+00 0.0000000e+00 -2.6403498e-03 
-3.4463488e-02 0.0000000e+00 -2.5947462e-04 
-1.2065537e-01 0.0000000e+00 -3.9898660e-02 
-5.1702225e-01 0.0000000e+00 -1.9946851e-01 
-9.1282094e-01 0.0000000e+00 -3.9702803e-02 
-9.9560440e-01 0.0000000e+00 4.5810506e-04 
-1.0135916e+00 0.0000000e+00 -2.9468266e-03 
-3.4461439e-02 0.0000000e+00 -2.3731564e-03 
-1.2066478e-01 0.0000000e+00 -4.2282954e-02 
-5.1702225e-01 0.0000000e+00 -1.7799224e-01 
-9.1281152e-01 0.0000000e+00 -4.2046674e-02 
-9.9560654e-01 0.0000000e+00 -1.4125488e-03 
-1.0135913e+00 0.0000000e+00 -2.9358319e-03 
-3.4459386e-02 0.0000000e+00 -3.3536155e-03 
-1.2067417e-01 0.0000000e+00 -3.7705496e-02 
-5.1702225e-01 0.0000000e+00 -1.3439922e-01 
-9.1280216e-01 0.0000000e+00 -3.7477851e-02 
-9.9560863e-01 0.0000000e+00 -2.3789397e-03 
-1.0135909e+00 0.0000000e+00 -2.5074175e-03 
-3.4457333e-02 0.0000000e+00 -2.7221355e-03 
-1.2068357e-01 0.0000000e+00 -2.4251344e-02 
-5.1702225e-01 0.0000000e+00 -7.3482059e-02 
-9.1279274e-01 0.0000000e+00 -2.4097180e-02 
-9.9561071e-01 0.0000000e+00 -2.0412582e-03 
-1.0135906e+00 0.0000000e+00 -1.5616348e-03 
0.0000000e+00 0.0000000e+00 0.0000000e+00 
-3.3219995e-03 0.0000000e+00 -1.0995060e-15 
-6.6250870e-03 0.0000000e+00 -2.1990204e-15 
-9.8903514e-03 0.0000000e+00 -3.2985343e-15 
-1.3098882e-02 0.0000000e+00 -4.3980454e-15 
-1.6231766e-02 0.0000000e+00 -5.4975543e-15 
-1.9270090e-02 0.0000000e+00 -6.5970670e-15 
-2.2194948e-02 0.0000000e+00 -7.6965725e-15 
-2.4987422e-02 0.0000000e+00 -8.7960907e-15 
-2.7628604e-02 0.0000000e+00 -9.8956072e-15 
-3.0099584e-02 0.0000000e+00 -1.0995125e-14 
-3.2381445e-02 0.0000000e+00 -1.2094645e-14 
-3.4455281e-02 0.0000000e+00 -1.3194169e-14 
-3.6645465e-02 0.0000000e+00 -4.6270503e-07 
-3.9364822e-02 0.0000000e+00 -9.2541001e-07 
-4.2727128e-02 0.0000000e+00 -1.3881150e-06 
-4.6846155e-02 0.0000000e+00 -1.8508200e-06 
-5.1835675e-02 0.0000000e+00 -2.3135251e-06 
-5.7809461e-02 0.0000000e+00 -2.7762301e-06 
-6.4881280e-02 0.0000000e+00 -3.2389351e-06 
-7.3164910e-02 0.0000000e+00 -3.7016400e-06 
-8.2774125e-02 0.0000000e+00 -4.1643452e-06 
-9.3822688e-02 0.0000000e+00 -4.6270502e-06 
-1.0642438e-01 0.0000000e+00 -5.0897552e-06 
-1.2069297e-01 0.0000000e+00 -5.5524602e-06 
-1.3822925e-01 0.0000000e+00 -7.8660596e-06 
-1.6022883e-01 0.0000000e+00 -1.0179660e-05 
-1.8619770e-01 0.0000000e+00 -1.2493259e-05 
-2.1564183e-01 0.0000000e+00 -1.4806858e-05 
-2.4806720e-01 0.0000000e+00 -1.7120457e-05 
-2.8297979e-01 0.0000000e+00 -1.9434057e-05 
-3.1988561e-01 0.0000000e+00 -2.1747657e-05 
-3.5829061e-01 0.0000000e+00 -2.4061257e-05 
-3.9770082e-01 0.0000000e+00 -2.6374857e-05 
-4.3762216e-01 0.0000000e+00 -2.8688455e-05 
-4.7756064e-01 0.0000000e+00 -3.1002055e-05 
-5.1702225e-01 0.0000000e+00 -3.3315657e-05 
-5.5648029e-01 0.0000000e+00 -3.0996973e-05 
-5.9640801e-01 0.0000000e+00 -2.8678287e-05 
-6.3631105e-01 0.0000000e+00 -2.6359605e-05 
-6.7569530e-01 0.0000000e+00 -2.4040921e-05 
-7.1406645e-01 0.0000000e+00 -2.1722237e-05 
-7.5093031e-01 0.0000000e+00 -1.9403553e-05 
-7.8579265e-01 0.0000000e+00 -1.7084869e-05 
-8.1815928e-01 0.0000000e+00 -1.4766186e-05 
-8.4753585e-01 0.0000000e+00 -1.2447502e-05 
-8.7342817e-01 0.0000000e+00 -1.0128818e-05 
-8.9534211e-01 0.0000000e+00 -7.8101348e-06 
-9.1278332e-01 0.0000000e+00 -5.4914508e-06 
-9.2693532e-01 0.0000000e+00 -5.0084086e-06 
-9.3938750e-01 0.0000000e+00 -4.5253664e-06 
-9.5025438e-01 0.0000000e+00 -4.0423242e-06 
-9.5965040e-01 0.0000000e+00 -3.5592818e-06 
-9.6769017e-01 0.0000000e+00 -3.0762396e-06 
-9.7448820e-01 0.0000000e+00 -2.5931975e-06 
-9.8015898e-01 0.0000000e+00 -2.1101553e-06 
-9.8481709e-01 0.0000000e+00 -1.6271130e-06 
-9.8857695e-01 0.0000000e+00 -1.1440707e-06 
-9.9155325e-01 0.0000000e+00 -6.6102848e-07 
-9.9386036e-01 0.0000000e+00 -1.7798624e-07 
-9.9561286e-01 0.0000000e+00 3.0505601e-07 
-9.9716550e-01 0.0000000e+00 4.0166134e-07 
-9.9878186e-01 0.0000000e+00 4.9826667e-07 
-1.0004399e+00 0.0000000e+00 5.9487201e-07 
-1.0021174e+00 0.0000000e+00 6.9147734e-07 
-1.0037924e+00 0.0000000e+00 7.8808267e-07 
-1.0054429e+00 0.0000000e+00 8.8468801e-07 
-1.0070465e+00 0.0000000e+00 9.8129340e-07 
-1.0085813e+00 0.0000000e+00 1.0778987e-06 
-1.0100251e+00 0.0000000e+00 1.1745041e-06 
-1.0113560e+00 0.0000000e+00 1.2711093e-06 
-1.0125518e+00 0.0000000e+00 1.3677147e-06 
-1.0135903e+00 0.0000000e+00 1.4643200e-06 
ADJOINT_ROTATION 3 212  float
0.0000000e+00 -9.6777901e-03 0.0000000e+00 
0.0000000e+00 -9.7156130e-03 0.0000000e+00 
0.0000000e+00 -9.8290825e-03 0.0000000e+00 
0.0000000e+00 -1.0018199e-02 0.0000000e+00 
0.0000000e+00 -1.0282961e-02 0.0000000e+00 
0.0000000e+00 -1.0623369e-02 0.0000000e+00 
0.0000000e+00 -1.1039424e-02 0.0000000e+00 
0.0000000e+00 -1.1531125e-02 0.0000000e+00 
0.0000000e+00 -1.2098472e-02 0.0000000e+00 
0.0000000e+00 -1.2741466e-02 0.0000000e+00 
0.0000000e+00 -1.3460105e-02 0.0000000e+00 
0.0000000e+00 -1.4254392e-02 0.0000000e+00 
0.0000000e+00 -1.5124325e-02 0.0000000e+00 
0.0000000e+00 -1.8979762e-02 0.0000000e+00 
0.0000000e+00 -2.2380112e-02 0.0000000e+00 
0.0000000e+00 -2.5325373e-02 0.0000000e+00 
0.0000000e+00 -2.7815545e-02 0.0000000e+00 
0.0000000e+00 -2.9850628e-02 0.0000000e+00 
0.0000000e+00 -3.1430624e-02 0.0000000e+00 
0.0000000e+00 -3.2555528e-02 0.0000000e+00 
0.0000000e+00 -3.3225346e-02 0.0000000e+00 
0.0000000e+00 -3.3440076e-02 0.0000000e+00 
0.0000000e+00 -3.3199716e-02 0.0000000e+00 
0.0000000e+00 -3.2504268e-02 0.0000000e+00 
0.0000000e+00 -3.1353731e-02 0.0000000e+00 
0.0000000e+00 -4.1236427e-02 0.0000000e+00 
0.0000000e+00 -5.3095188e-02 0.0000000e+00 
0.0000000e+00 -6.6930018e-02 0.0000000e+00 
0.0000000e+00 -8.2740918e-02 0.0000000e+00 
0.0000000e+00 -1.0052789e-01 0.0000000e+00 
0.0000000e+00 -1.2029093e-01 0.0000000e+00 
0.0000000e+00 -1.4203003e-01 0.0000000e+00 
0.0000000e+00 -1.6574521e-01 0.0000000e+00 
0.0000000e+00 -1.9143645e-01 0.0000000e+00 
0.0000000e+00 -2.1910377e-01 0.0000000e+00 
0.0000000e+00 -2.4874716e-01 0.0000000e+00 
0.0000000e+00 -2.8036660e-01 0.0000000e+00 
0.0000000e+00 -2.4871261e-01 0.0000000e+00 
0.0000000e+00 -2.1903554e-01 0.0000000e+00 
0.0000000e+00 -1.9133538e-01 0.0000000e+00 
0.0000000e+00 -1.6561215e-01 0.0000000e+00 
0.0000000e+00 -1.4186585e-01 0.0000000e+00 
0.0000000e+00 -1.2009647e-01 0.0000000e+00 
0.0000000e+00 -1.0030402e-01 0.0000000e+00 
0.0000000e+00 -8.2488492e-02 0.0000000e+00 
0.0000000e+00 -6.6649891e-02 0.0000000e+00 
0.0000000e+00 -5.2788217e-02 0.0000000e+00 
0.0000000e+00 -4.0903464e-02 0.0000000e+00 
0.0000000e+00 -3.0995637e-02 0.0000000e+00 
0.0000000e+00 -3.2026999e-02 0.0000000e+00 
0.0000000e+00 -3.2600258e-02 0.0000000e+00 
0.0000000e+00 -3.2715421e-02 0.0000000e+00 
0.0000000e+00 -3.2372490e-02 0.0000000e+00 
0.0000000e+00 -3.1571459e-02 0.0000000e+00 
0.0000000e+00 -3.0312328e-02 0.0000000e+00 
0.0000000e+00 -2.8595101e-02 0.0000000e+00 
0.0000000e+00 -2.6419777e-02 0.0000000e+00 
0.0000000e+00 -2.3786355e-02 0.0000000e+00 
0.0000000e+00 -2.0694833e-02 0.0000000e+00 
0.0000000e+00 -1.7145216e-02 0.0000000e+00 
0.0000000e+00 -1.3137501e-02 0.0000000e+00 
0.0000000e+00 -1.1638950e-02 0.0000000e+00 
0.0000000e+00 -1.0228784e-02 0.0000000e+00 
0.0000000e+00 -8.9070043e-03 0.0000000e+00 
0.0000000e+00 -7.6736105e-03 0.0000000e+00 
0.0000000e+00 -6.5286024e-03 0.0000000e+00 
0.0000000e+00 -5.4719802e-03 0.0000000e+00 
0.0000000e+00 -4.5037433e-03 0.0000000e+00 
0.0000000e+00 -3.6238926e-03 0.0000000e+00 
0.0000000e+00 -2.8324276e-03 0.0000000e+00 
0.0000000e+00 -2.1293485e-03 0.0000000e+00 
0.0000000e+00 -1.5146550e-03 0.0000000e+00 
0.0000000e+00 -9.8834734e-04 0.0000000e+00 
0.0000000e+00 -9.2525873e-03 0.0000000e+00 
0.0000000e+00 -1.2723198e-02 0.0000000e+00 
0.0000000e+00 -4.0607393e-01 0.0000000e+00 
0.0000000e+00 -1.2535255e-02 0.0000000e+00 
0.0000000e+00 -8.1492690e-03 0.0000000e+00 
0.0000000e+00 -1.2406609e-04 0.0000000e+00 
0.0000000e+00 -4.3382840e-03 0.0000000e+00 
0.0000000e+00 2.0774496e-03 0.0000000e+00 
0.0000000e+00 -5.2219611e-01 0.0000000e+00 
0.0000000e+00 2.1268013e-03 0.0000000e+00 
0.0000000e+00 -3.9606565e-03 0.0000000e+00 
0.0000000e+00 5.4031855e-04 0.0000000e+00 
0.0000000e+00 -3.8141359e-04 0.0000000e+00 
0.0000000e+00 1.3048210e-02 0.0000000e+00 
0.0000000e+00 3.7126687e-01 0.0000000e+00 
0.0000000e+00 1.2990533e-02 0.0000000e+00 
0.0000000e+00 -5.7166221e-04 0.0000000e+00 
0.0000000e+00 1.0048066e-03 0.0000000e+00 
0.0000000e+00 2.6180237e-03 0.0000000e+00 
0.0000000e+00 2.0189084e-02 0.0000000e+00 
0.0000000e+00 2.7431503e-01 0.0000000e+00 
0.0000000e+00 2.0055940e-02 0.0000000e+00 
0.0000000e+00 2.0177136e-03 0.0000000e+00 
0.0000000e+00 1.2693981e-03 0.0000000e+00 
0.0000000e+00 4.6600280e-03 0.0000000e+00 
0.0000000e+00 2.3500072e-02 0.0000000e+00 
0.0000000e+00 1.8694834e-01 0.0000000e+00 
0.0000000e+00 2.3323022e-02 0.0000000e+00 
0.0000000e+00 3.8074709e-03 0.0000000e+00 
0.0000000e+00 1.3340930e-03 0.0000000e+00 
0.0000000e+00 5.7445988e-03 0.0000000e+00 
0.0000000e+00 2.2981172e-02 0.0000000e+00 
0.0000000e+00 1.0916682e-01 0.0000000e+00 
0.0000000e+00 2.2791781e-02 0.0000000e+00 
0.0000000e+00 4.7976095e-03 0.0000000e+00 
0.0000000e+00 1.1988914e-03 0.0000000e+00 
0.0000000e+00 5.8717369e-03 0.0000000e+00 
0.0000000e+00 1.8632386e-02 0.0000000e+00 
0.0000000e+00 4.0970445e-02 0.0000000e+00 
0.0000000e+00 1.8462213e-02 0.0000000e+00 
0.0000000e+00 4.9881297e-03 0.0000000e+00 
0.0000000e+00 8.6379313e-04 0.0000000e+00 
0.0000000e+00 5.0414414e-03 0.0000000e+00 
0.0000000e+00 1.0453712e-02 0.0000000e+00 
0.0000000e+00 -1.7640766e-02 0.0000000e+00 
0.0000000e+00 1.0334319e-02 0.0000000e+00 
0.0000000e+00 4.3790312e-03 0.0000000e+00 
0.0000000e+00 3.2879831e-04 0.0000000e+00 
0.0000000e+00 3.2537130e-03 0.0000000e+00 
0.0000000e+00 -1.5548482e-03 0.0000000e+00 
0.0000000e+00 -6.6666819e-02 0.0000000e+00 
0.0000000e+00 -1.5918976e-03 0.0000000e+00 
0.0000000e+00 2.9703144e-03 0.0000000e+00 
0.0000000e+00 -4.0609311e-04 0.0000000e+00 
0.0000000e+00 5.0855143e-04 0.0000000e+00 
0.0000000e+00 -1.7393295e-02 0.0000000e+00 
0.0000000e+00 -1.0610770e-01 0.0000000e+00 
0.0000000e+00 -1.7316440e-02 0.0000000e+00 
0.0000000e+00 7.6197903e-04 0.0000000e+00 
0.0000000e+00 -1.3408811e-03 0.0000000e+00 
0.0000000e+00 -3.1940432e-03 0.0000000e+00 
0.0000000e+00 -3.7061628e-02 0.0000000e+00 
0.0000000e+00 -1.3596344e-01 0.0000000e+00 
0.0000000e+00 -3.6839306e-02 0.0000000e+00 
0.0000000e+00 -2.2459750e-03 0.0000000e+00 
0.0000000e+00 -2.4755658e-03 0.0000000e+00 
0.0000000e+00 -1.3300605e-02 0.0000000e+00 
0.0000000e+00 -1.3262782e-02 0.0000000e+00 
0.0000000e+00 -1.3149313e-02 0.0000000e+00 
0.0000000e+00 -1.2960196e-02 0.0000000e+00 
0.0000000e+00 -1.2695435e-02 0.0000000e+00 
0.0000000e+00 -1.2355027e-02 0.0000000e+00 
0.0000000e+00 -1.1938971e-02 0.0000000e+00 
0.0000000e+00 -1.1447270e-02 0.0000000e+00 
0.0000000e+00 -1.0879924e-02 0.0000000e+00 
0.0000000e+00 -1.0236930e-02 0.0000000e+00 
0.0000000e+00 -9.5182899e-03 0.0000000e+00 
0.0000000e+00 -8.7240040e-03 0.0000000e+00 
0.0000000e+00 -7.8540714e-03 0.0000000e+00 
0.0000000e+00 -9.7432323e-03 0.0000000e+00 
0.0000000e+00 -1.2087481e-02 0.0000000e+00 
0.0000000e+00 -1.4886820e-02 0.0000000e+00 
0.0000000e+00 -1.8141245e-02 0.0000000e+00 
0.0000000e+00 -2.1850761e-02 0.0000000e+00 
0.0000000e+00 -2.6015365e-02 0.0000000e+00 
0.0000000e+00 -3.0635057e-02 0.0000000e+00 
0.0000000e+00 -3.5709839e-02 0.0000000e+00 
0.0000000e+00 -4.1239709e-02 0.0000000e+00 
0.0000000e+00 -4.7224667e-02 0.0000000e+00 
0.0000000e+00 -5.3664714e-02 0.0000000e+00 
0.0000000e+00 -6.0559850e-02 0.0000000e+00 
0.0000000e+00 -7.9401076e-02 0.0000000e+00 
0.0000000e+00 -9.6266232e-02 0.0000000e+00 
0.0000000e+00 -1.1115532e-01 0.0000000e+00 
0.0000000e+00 -1.2406834e-01 0.0000000e+00 
0.0000000e+00 -1.3500530e-01 0.0000000e+00 
0.0000000e+00 -1.4396617e-01 0.0000000e+00 
0.0000000e+00 -1.5095098e-01 0.0000000e+00 
0.0000000e+00 -1.5595973e-01 0.0000000e+00 
0.0000000e+00 -1.5899239e-01 0.0000000e+00 
0.0000000e+00 -1.6004901e-01 0.0000000e+00 
0.0000000e+00 -1.5912955e-01 0.0000000e+00 
0.0000000e+00 -1.5623401e-01 0.0000000e+00 
0.0000000e+00 -1.5910096e-01 0.0000000e+00 
0.0000000e+00 -1.5999101e-01 0.0000000e+00 
0.0000000e+00 -1.5890412e-01 0.0000000e+00 
0.0000000e+00 -1.5584031e-01 0.0000000e+00 
0.0000000e+00 -1.5079957e-01 0.0000000e+00 
0.0000000e+00 -1.4378190e-01 0.0000000e+00 
0.0000000e+00 -1.3478732e-01 0.0000000e+00 
0.0000000e+00 -1.2381580e-01 0.0000000e+00 
0.0000000e+00 -1.1086737e-01 0.0000000e+00 
0.0000000e+00 -9.5941998e-02 0.0000000e+00 
0.0000000e+00 -7.9039715e-02 0.0000000e+00 
0.0000000e+00 -6.0160499e-02 0.0000000e+00 
0.0000000e+00 -5.3132050e-02 0.0000000e+00 
0.0000000e+00 -4.6561696e-02 0.0000000e+00 
0.0000000e+00 -4.0449440e-02 0.0000000e+00 
0.0000000e+00 -3.4795284e-02 0.0000000e+00 
0.0000000e+00 -2.9599225e-02 0.0000000e+00 
0.0000000e+00 -2.4861265e-02 0.0000000e+00 
0.0000000e+00 -2.0581400e-02 0.0000000e+00 
0.0000000e+00 -1.6759634e-02 0.0000000e+00 
0.0000000e+00 -1.3395966e-02 0.0000000e+00 
0.0000000e+00 -1.0490395e-02 0.0000000e+00 
0.0000000e+00 -8.0429222e-03 0.0000000e+00 
0.0000000e+00 -6.0535474e-03 0.0000000e+00 
0.0000000e+00 -6.3527194e-03 0.0000000e+00 
0.0000000e+00 -6.5635052e-03 0.0000000e+00 