# vtk DataFile Version 4.0
vtk output
ASCII
DATASET UNSTRUCTURED_GRID
POINTS 30 float
0.0000000e+00 0.0000000e+00 0.0000000e+00 
0.0000000e+00 0.0000000e+00 8.0000001e-01 
0.0000000e+00 0.0000000e+00 1.6000000e+00 
0.0000000e+00 0.0000000e+00 2.4000001e+00 
0.0000000e+00 0.0000000e+00 3.2000000e+00 
0.0000000e+00 0.0000000e+00 4.0000000e+00 
0.0000000e+00 0.0000000e+00 4.8000002e+00 
0.0000000e+00 0.0000000e+00 5.5999999e+00 
0.0000000e+00 0.0000000e+00 6.4000001e+00 
0.0000000e+00 0.0000000e+00 7.1999998e+00 
0.0000000e+00 0.0000000e+00 8.0000000e+00 
1.0000000e+01 0.0000000e+00 0.0000000e+00 
1.0000000e+01 0.0000000e+00 8.0000001e-01 
1.0000000e+01 0.0000000e+00 1.6000000e+00 
1.0000000e+01 0.0000000e+00 2.4000001e+00 
1.0000000e+01 0.0000000e+00 3.2000000e+00 
1.0000000e+01 0.0000000e+00 4.0000000e+00 
1.0000000e+01 0.0000000e+00 4.8000002e+00 
1.0000000e+01 0.0000000e+00 5.5999999e+00 
1.0000000e+01 0.0000000e+00 6.4000001e+00 
1.0000000e+01 0.0000000e+00 7.1999998e+00 
1.0000000e+01 0.0000000e+00 8.0000000e+00 
2.0000000e+00 0.0000000e+00 4.0000000e+00 
4.0000000e+00 0.0000000e+00 4.0000000e+00 
6.0000000e+00 0.0000000e+00 4.0000000e+00 
8.0000000e+00 0.0000000e+00 4.0000000e+00 
2.0000000e+00 0.0000000e+00 8.0000000e+00 
4.0000000e+00 0.0000000e+00 8.0000000e+00 
6.0000000e+00 0.0000000e+00 8.0000000e+00 
8.0000000e+00 0.0000000e+00 8.0000000e+00 

CELLS 30 90
2 0 1
2 1 2
2 2 3
2 3 4
2 4 5
2 5 6
2 6 7
2 7 8
2 8 9
2 9 10
2 11 12
2 12 13
2 13 14
2 14 15
2 15 16
2 16 17
2 17 18
2 18 19
2 19 20
2 20 21
2 5 22
2 22 23
2 23 24
2 24 25
2 25 16
2 10 26
2 26 27
2 27 28
2 28 29
2 29 21

CELL_TYPES 30
3
3
3
3
3
3
3
3
3
3
3
3
3
3
3
3
3
3
3
3
3
3
3
3
3
3
3
3
3
3
POINT_DATA 30
FIELD FieldData 3
ADJOINT_DISPLACEMENT 3 30  float
0.0000000e+00 0.0000000e+00 0.0000000e+00 
-2.4750903e-02 0.0000000e+00 -1.8089921e-17 
-6.6314623e-02 0.0000000e+00 -3.6179841e-17 
-1.4150396e-01 0.0000000e+00 -5.4269758e-17 
-2.6713175e-01 0.0000000e+00 -7.2359682e-17 
-4.6001077e-01 0.0000000e+00 -9.0449599e-17 
-7.6367575e-01 0.0000000e+00 1.6358282e-04 
-3.9611131e-01 0.0000000e+00 3.2716565e-04 
-1.3580514e-01 0.0000000e+00 4.9074850e-04 
3.8755067e-02 0.0000000e+00 6.5433129e-04 
1.4908165e-01 0.0000000e+00 8.1791414e-04 
0.0000000e+00 0.0000000e+00 0.0000000e+00 
-1.5700780e-01 0.0000000e+00 4.9847932e-17 
-2.9720277e-01 0.0000000e+00 1.0021500e-16 
-4.0377212e-01 0.0000000e+00 1.5057275e-16 
-4.5990303e-01 0.0000000e+00 2.0020827e-16 
-4.4878271e-01 0.0000000e+00 2.4556134e-16 
-3.7049851e-01 0.0000000e+00 -1.6358282e-04 
-2.5068790e-01 0.0000000e+00 -3.2716565e-04 
-1.1086322e-01 0.0000000e+00 -4.9074850e-04 
2.7463261e-02 0.0000000e+00 -6.5433129e-04 
1.4277920e-01 0.0000000e+00 -8.1791414e-04 
-4.5776516e-01 0.0000000e+00 3.9151439e-01 
-4.5551956e-01 0.0000000e+00 4.7821635e-01 
-4.5327392e-01 0.0000000e+00 3.6916113e-01 
-4.5102832e-01 0.0000000e+00 1.7340395e-01 
1.4782116e-01 0.0000000e+00 -9.7305082e-02 
1.4656067e-01 0.0000000e+00 -3.7474938e-02 
1.4530018e-01 0.0000000e+00 7.1253113e-02 
1.4403969e-01 0.0000000e+00 1.1982386e-01 
ADJOINT_ROTATION 3 30  float
0.0000000e+00 -2.7435960e-02 0.0000000e+00 
0.0000000e+00 -3.7943967e-02 0.0000000e+00 
0.0000000e+00 -6.9467992e-02 0.0000000e+00 
0.0000000e+00 -1.2200803e-01 0.0000000e+00 
0.0000000e+00 -1.9556409e-01 0.0000000e+00 
0.0000000e+00 -2.9013616e-01 0.0000000e+00 
0.0000000e+00 -4.6454456e-01 0.0000000e+00 
0.0000000e+00 3.8793740e-01 0.0000000e+00 
0.0000000e+00 2.6730976e-01 0.0000000e+00 
0.0000000e+00 1.7357251e-01 0.0000000e+00 
0.0000000e+00 1.0672565e-01 0.0000000e+00 
0.0000000e+00 -1.9976242e-01 0.0000000e+00 
0.0000000e+00 -1.8925440e-01 0.0000000e+00 
0.0000000e+00 -1.5773039e-01 0.0000000e+00 
0.0000000e+00 -1.0519034e-01 0.0000000e+00 
0.0000000e+00 -3.1634282e-02 0.0000000e+00 
0.0000000e+00 6.2937789e-02 0.0000000e+00 
0.0000000e+00 1.2829098e-01 0.0000000e+00 
0.0000000e+00 1.6675378e-01 0.0000000e+00 
0.0000000e+00 1.7832620e-01 0.0000000e+00 
0.0000000e+00 1.6300824e-01 0.0000000e+00 
0.0000000e+00 1.2079989e-01 0.0000000e+00 
0.0000000e+00 -1.1046615e-01 0.0000000e+00 
0.0000000e+00 1.4676247e-02 0.0000000e+00 
0.0000000e+00 8.5291035e-02 0.0000000e+00 
0.0000000e+00 1.0137822e-01 0.0000000e+00 
0.0000000e+00 4.8527835e-04 0.0000000e+00 
0.0000000e+00 -5.1227484e-02 0.0000000e+00 
0.0000000e+00 -4.8412636e-02 0.0000000e+00 
0.0000000e+00 8.9298226e-03 0.0000000e+00 
SHAPE_SENSITIVITY 3 30  float
0.0000000e+00 0.0000000e+00 0.0000000e+00 
0.0000000e+00 0.0000000e+00 0.0000000e+00 
0.0000000e+00 0.0000000e+00 0.0000000e+00 
0.0000000e+00 0.0000000e+00 0.0000000e+00 
0.0000000e+00 0.0000000e+00 0.0000000e+00 
0.0000000e+00 0.0000000e+00 0.0000000e+00 
0.0000000e+00 0.0000000e+00 0.0000000e+00 
0.0000000e+00 0.0000000e+00 0.0000000e+00 
0.0000000e+00 0.0000000e+00 0.0000000e+00 
0.0000000e+00 0.0000000e+00 0.0000000e+00 
0.0000000e+00 0.0000000e+00 0.0000000e+00 
0.0000000e+00 0.0000000e+00 0.0000000e+00 
0.0000000e+00 0.0000000e+00 0.0000000e+00 
0.0000000e+00 0.0000000e+00 0.0000000e+00 
0.0000000e+00 0.0000000e+00 0.0000000e+00 
0.0000000e+00 0.0000000e+00 0.0000000e+00 
0.0000000e+00 0.0000000e+00 0.0000000e+00 
0.0000000e+00 0.0000000e+00 0.0000000e+00 
0.0000000e+00 0.0000000e+00 0.0000000e+00 
0.0000000e+00 0.0000000e+00 0.0000000e+00 
0.0000000e+00 0.0000000e+00 0.0000000e+00 
0.0000000e+00 0.0000000e+00 0.0000000e+00 
0.0000000e+00 0.0000000e+00 0.0000000e+00 
0.0000000e+00 0.0000000e+00 0.0000000e+00 
0.0000000e+00 0.0000000e+00 0.0000000e+00 
0.0000000e+00 0.0000000e+00 0.0000000e+00 
0.0000000e+00 0.0000000e+00 0.0000000e+00 
0.0000000e+00 0.0000000e+00 0.0000000e+00 
0.0000000e+00 0.0000000e+00 0.0000000e+00 
0.0000000e+00 0.0000000e+00 0.0000000e+00 
CELL_DATA 30
FIELD FieldData 1
I22_SENSITIVITY 1 30  float
7.0300094e+05
4.9210065e+06
1.3138539e+07
2.4474380e+07
3.8758420e+07
-1.0874830e+07
2.3869815e+06
1.3251196e+07
2.0799954e+07
2.4011974e+07
-5.1583412e+05
-3.6108435e+06
-1.0461991e+07
-2.2108628e+07
-3.8495260e+07
-5.4068769e+05
-3.1159832e+06
-1.2758762e+06
1.8142088e+06
4.1101125e+06
-7.8870400e+07
-2.7001956e+07
1.3969398e+06
3.1605372e+06
-1.6138867e+07
3.1779736e+07
2.6389745e+06
8.8188000e+05
1.0675466e+07
1.4580123e+07
