# vtk DataFile Version 4.0
vtk output
ASCII
DATASET UNSTRUCTURED_GRID
POINTS 212 float
0.0000000e+00 0.0000000e+00 0.0000000e+00 
0.0000000e+00 0.0000000e+00 2.5000000e-01 
0.0000000e+00 0.0000000e+00 5.0000000e-01 
0.0000000e+00 0.0000000e+00 7.5000000e-01 
0.0000000e+00 0.0000000e+00 1.0000000e+00 
0.0000000e+00 0.0000000e+00 1.2500000e+00 
0.0000000e+00 0.0000000e+00 1.5000000e+00 
0.0000000e+00 0.0000000e+00 1.7500000e+00 
0.0000000e+00 0.0000000e+00 2.0000000e+00 
0.0000000e+00 0.0000000e+00 2.2500000e+00 
0.0000000e+00 0.0000000e+00 2.5000000e+00 
0.0000000e+00 0.0000000e+00 2.7500000e+00 
0.0000000e+00 0.0000000e+00 3.0000000e+00 
0.0000000e+00 0.0000000e+00 3.2500000e+00 
0.0000000e+00 0.0000000e+00 3.5000000e+00 
0.0000000e+00 0.0000000e+00 3.7500000e+00 
0.0000000e+00 0.0000000e+00 4.0000000e+00 
0.0000000e+00 0.0000000e+00 4.2500000e+00 
0.0000000e+00 0.0000000e+00 4.5000000e+00 
0.0000000e+00 0.0000000e+00 4.7500000e+00 
0.0000000e+00 0.0000000e+00 5.0000000e+00 
0.0000000e+00 0.0000000e+00 5.2500000e+00 
0.0000000e+00 0.0000000e+00 5.5000000e+00 
0.0000000e+00 0.0000000e+00 5.7500000e+00 
0.0000000e+00 0.0000000e+00 6.0000000e+00 
0.0000000e+00 0.0000000e+00 6.2500000e+00 
0.0000000e+00 0.0000000e+00 6.5000000e+00 
0.0000000e+00 0.0000000e+00 6.7500000e+00 
0.0000000e+00 0.0000000e+00 7.0000000e+00 
0.0000000e+00 0.0000000e+00 7.2500000e+00 
0.0000000e+00 0.0000000e+00 7.5000000e+00 
0.0000000e+00 0.0000000e+00 7.7500000e+00 
0.0000000e+00 0.0000000e+00 8.0000000e+00 
0.0000000e+00 0.0000000e+00 8.2500000e+00 
0.0000000e+00 0.0000000e+00 8.5000000e+00 
0.0000000e+00 0.0000000e+00 8.7500000e+00 
0.0000000e+00 0.0000000e+00 9.0000000e+00 
0.0000000e+00 0.0000000e+00 9.2500000e+00 
0.0000000e+00 0.0000000e+00 9.5000000e+00 
0.0000000e+00 0.0000000e+00 9.7500000e+00 
0.0000000e+00 0.0000000e+00 1.0000000e+01 
0.0000000e+00 0.0000000e+00 1.0250000e+01 
0.0000000e+00 0.0000000e+00 1.0500000e+01 
0.0000000e+00 0.0000000e+00 1.0750000e+01 
0.0000000e+00 0.0000000e+00 1.1000000e+01 
0.0000000e+00 0.0000000e+00 1.1250000e+01 
0.0000000e+00 0.0000000e+00 1.1500000e+01 
0.0000000e+00 0.0000000e+00 1.1750000e+01 
0.0000000e+00 0.0000000e+00 1.2000000e+01 
0.0000000e+00 0.0000000e+00 1.2250000e+01 
0.0000000e+00 0.0000000e+00 1.2500000e+01 
0.0000000e+00 0.0000000e+00 1.2750000e+01 
0.0000000e+00 0.0000000e+00 1.3000000e+01 
0.0000000e+00 0.0000000e+00 1.3250000e+01 
0.0000000e+00 0.0000000e+00 1.3500000e+01 
0.0000000e+00 0.0000000e+00 1.3750000e+01 
0.0000000e+00 0.0000000e+00 1.4000000e+01 
0.0000000e+00 0.0000000e+00 1.4250000e+01 
0.0000000e+00 0.0000000e+00 1.4500000e+01 
0.0000000e+00 0.0000000e+00 1.4750000e+01 
0.0000000e+00 0.0000000e+00 1.5000000e+01 
0.0000000e+00 0.0000000e+00 1.5250000e+01 
0.0000000e+00 0.0000000e+00 1.5500000e+01 
0.0000000e+00 0.0000000e+00 1.5750000e+01 
0.0000000e+00 0.0000000e+00 1.6000000e+01 
0.0000000e+00 0.0000000e+00 1.6250000e+01 
0.0000000e+00 0.0000000e+00 1.6500000e+01 
0.0000000e+00 0.0000000e+00 1.6750000e+01 
0.0000000e+00 0.0000000e+00 1.7000000e+01 
0.0000000e+00 0.0000000e+00 1.7250000e+01 
0.0000000e+00 0.0000000e+00 1.7500000e+01 
0.0000000e+00 0.0000000e+00 1.7750000e+01 
0.0000000e+00 0.0000000e+00 1.8000000e+01 
5.0000000e-01 0.0000000e+00 3.0000000e+00 
5.0000000e-01 0.0000000e+00 6.0000000e+00 
5.0000000e-01 0.0000000e+00 9.0000000e+00 
5.0000000e-01 0.0000000e+00 1.2000000e+01 
5.0000000e-01 0.0000000e+00 1.5000000e+01 
5.0000000e-01 0.0000000e+00 1.8000000e+01 
1.0000000e+00 0.0000000e+00 3.0000000e+00 
1.0000000e+00 0.0000000e+00 6.0000000e+00 
1.0000000e+00 0.0000000e+00 9.0000000e+00 
1.0000000e+00 0.0000000e+00 1.2000000e+01 
1.0000000e+00 0.0000000e+00 1.5000000e+01 
1.0000000e+00 0.0000000e+00 1.8000000e+01 
1.5000000e+00 0.0000000e+00 3.0000000e+00 
1.5000000e+00 0.0000000e+00 6.0000000e+00 
1.5000000e+00 0.0000000e+00 9.0000000e+00 
1.5000000e+00 0.0000000e+00 1.2000000e+01 
1.5000000e+00 0.0000000e+00 1.5000000e+01 
1.5000000e+00 0.0000000e+00 1.8000000e+01 
2.0000000e+00 0.0000000e+00 3.0000000e+00 
2.0000000e+00 0.0000000e+00 6.0000000e+00 
2.0000000e+00 0.0000000e+00 9.0000000e+00 
2.0000000e+00 0.0000000e+00 1.2000000e+01 
2.0000000e+00 0.0000000e+00 1.5000000e+01 
2.0000000e+00 0.0000000e+00 1.8000000e+01 
2.5000000e+00 0.0000000e+00 3.0000000e+00 
2.5000000e+00 0.0000000e+00 6.0000000e+00 
2.5000000e+00 0.0000000e+00 9.0000000e+00 
2.5000000e+00 0.0000000e+00 1.2000000e+01 
2.5000000e+00 0.0000000e+00 1.5000000e+01 
2.5000000e+00 0.0000000e+00 1.8000000e+01 
3.0000000e+00 0.0000000e+00 3.0000000e+00 
3.0000000e+00 0.0000000e+00 6.0000000e+00 
3.0000000e+00 0.0000000e+00 9.0000000e+00 
3.0000000e+00 0.0000000e+00 1.2000000e+01 
3.0000000e+00 0.0000000e+00 1.5000000e+01 
3.0000000e+00 0.0000000e+00 1.8000000e+01 
3.5000000e+00 0.0000000e+00 3.0000000e+00 
3.5000000e+00 0.0000000e+00 6.0000000e+00 
3.5000000e+00 0.0000000e+00 9.0000000e+00 
3.5000000e+00 0.0000000e+00 1.2000000e+01 
3.5000000e+00 0.0000000e+00 1.5000000e+01 
3.5000000e+00 0.0000000e+00 1.8000000e+01 
4.0000000e+00 0.0000000e+00 3.0000000e+00 
4.0000000e+00 0.0000000e+00 6.0000000e+00 
4.0000000e+00 0.0000000e+00 9.0000000e+00 
4.0000000e+00 0.0000000e+00 1.2000000e+01 
4.0000000e+00 0.0000000e+00 1.5000000e+01 
4.0000000e+00 0.0000000e+00 1.8000000e+01 
4.5000000e+00 0.0000000e+00 3.0000000e+00 
4.5000000e+00 0.0000000e+00 6.0000000e+00 
4.5000000e+00 0.0000000e+00 9.0000000e+00 
4.5000000e+00 0.0000000e+00 1.2000000e+01 
4.5000000e+00 0.0000000e+00 1.5000000e+01 
4.5000000e+00 0.0000000e+00 1.8000000e+01 
5.0000000e+00 0.0000000e+00 3.0000000e+00 
5.0000000e+00 0.0000000e+00 6.0000000e+00 
5.0000000e+00 0.0000000e+00 9.0000000e+00 
5.0000000e+00 0.0000000e+00 1.2000000e+01 
5.0000000e+00 0.0000000e+00 1.5000000e+01 
5.0000000e+00 0.0000000e+00 1.8000000e+01 
5.5000000e+00 0.0000000e+00 3.0000000e+00 
5.5000000e+00 0.0000000e+00 6.0000000e+00 
5.5000000e+00 0.0000000e+00 9.0000000e+00 
5.5000000e+00 0.0000000e+00 1.2000000e+01 
5.5000000e+00 0.0000000e+00 1.5000000e+01 
5.5000000e+00 0.0000000e+00 1.8000000e+01 
6.0000000e+00 0.0000000e+00 0.0000000e+00 
6.0000000e+00 0.0000000e+00 2.5000000e-01 
6.0000000e+00 0.0000000e+00 5.0000000e-01 
6.0000000e+00 0.0000000e+00 7.5000000e-01 
6.0000000e+00 0.0000000e+00 1.0000000e+00 
6.0000000e+00 0.0000000e+00 1.2500000e+00 
6.0000000e+00 0.0000000e+00 1.5000000e+00 
6.0000000e+00 0.0000000e+00 1.7500000e+00 
6.0000000e+00 0.0000000e+00 2.0000000e+00 
6.0000000e+00 0.0000000e+00 2.2500000e+00 
6.0000000e+00 0.0000000e+00 2.5000000e+00 
6.0000000e+00 0.0000000e+00 2.7500000e+00 
6.0000000e+00 0.0000000e+00 3.0000000e+00 
6.0000000e+00 0.0000000e+00 3.2500000e+00 
6.0000000e+00 0.0000000e+00 3.5000000e+00 
6.0000000e+00 0.0000000e+00 3.7500000e+00 
6.0000000e+00 0.0000000e+00 4.0000000e+00 
6.0000000e+00 0.0000000e+00 4.2500000e+00 
6.0000000e+00 0.0000000e+00 4.5000000e+00 
6.0000000e+00 0.0000000e+00 4.7500000e+00 
6.0000000e+00 0.0000000e+00 5.0000000e+00 
6.0000000e+00 0.0000000e+00 5.2500000e+00 
6.0000000e+00 0.0000000e+00 5.5000000e+00 
6.0000000e+00 0.0000000e+00 5.7500000e+00 
6.0000000e+00 0.0000000e+00 6.0000000e+00 
6.0000000e+00 0.0000000e+00 6.2500000e+00 
6.0000000e+00 0.0000000e+00 6.5000000e+00 
6.0000000e+00 0.0000000e+00 6.7500000e+00 
6.0000000e+00 0.0000000e+00 7.0000000e+00 
6.0000000e+00 0.0000000e+00 7.2500000e+00 
6.0000000e+00 0.0000000e+00 7.5000000e+00 
6.0000000e+00 0.0000000e+00 7.7500000e+00 
6.0000000e+00 0.0000000e+00 8.0000000e+00 
6.0000000e+00 0.0000000e+00 8.2500000e+00 
6.0000000e+00 0.0000000e+00 8.5000000e+00 
6.0000000e+00 0.0000000e+00 8.7500000e+00 
6.0000000e+00 0.0000000e+00 9.0000000e+00 
6.0000000e+00 0.0000000e+00 9.2500000e+00 
6.0000000e+00 0.0000000e+00 9.5000000e+00 
6.0000000e+00 0.0000000e+00 9.7500000e+00 
6.0000000e+00 0.0000000e+00 1.0000000e+01 
6.0000000e+00 0.0000000e+00 1.0250000e+01 
6.0000000e+00 0.0000000e+00 1.0500000e+01 
6.0000000e+00 0.0000000e+00 1.0750000e+01 
6.0000000e+00 0.0000000e+00 1.1000000e+01 
6.0000000e+00 0.0000000e+00 1.1250000e+01 
6.0000000e+00 0.0000000e+00 1.1500000e+01 
6.0000000e+00 0.0000000e+00 1.1750000e+01 
6.0000000e+00 0.0000000e+00 1.2000000e+01 
6.0000000e+00 0.0000000e+00 1.2250000e+01 
6.0000000e+00 0.0000000e+00 1.2500000e+01 
6.0000000e+00 0.0000000e+00 1.2750000e+01 
6.0000000e+00 0.0000000e+00 1.3000000e+01 
6.0000000e+00 0.0000000e+00 1.3250000e+01 
6.0000000e+00 0.0000000e+00 1.3500000e+01 
6.0000000e+00 0.0000000e+00 1.3750000e+01 
6.0000000e+00 0.0000000e+00 1.4000000e+01 
6.0000000e+00 0.0000000e+00 1.4250000e+01 
6.0000000e+00 0.0000000e+00 1.4500000e+01 
6.0000000e+00 0.0000000e+00 1.4750000e+01 
6.0000000e+00 0.0000000e+00 1.5000000e+01 
6.0000000e+00 0.0000000e+00 1.5250000e+01 
6.0000000e+00 0.0000000e+00 1.5500000e+01 
6.0000000e+00 0.0000000e+00 1.5750000e+01 
6.0000000e+00 0.0000000e+00 1.6000000e+01 
6.0000000e+00 0.0000000e+00 1.6250000e+01 
6.0000000e+00 0.0000000e+00 1.6500000e+01 
6.0000000e+00 0.0000000e+00 1.6750000e+01 
6.0000000e+00 0.0000000e+00 1.7000000e+01 
6.0000000e+00 0.0000000e+00 1.7250000e+01 
6.0000000e+00 0.0000000e+00 1.7500000e+01 
6.0000000e+00 0.0000000e+00 1.7750000e+01 
6.0000000e+00 0.0000000e+00 1.8000000e+01 

CELLS 216 648
2 0 1
2 1 2
2 2 3
2 3 4
2 4 5
2 5 6
2 6 7
2 7 8
2 8 9
2 9 10
2 10 11
2 11 12
2 12 13
2 13 14
2 14 15
2 15 16
2 16 17
2 17 18
2 18 19
2 19 20
2 20 21
2 21 22
2 22 23
2 23 24
2 24 25
2 25 26
2 26 27
2 27 28
2 28 29
2 29 30
2 30 31
2 31 32
2 32 33
2 33 34
2 34 35
2 35 36
2 36 37
2 37 38
2 38 39
2 39 40
2 40 41
2 41 42
2 42 43
2 43 44
2 44 45
2 45 46
2 46 47
2 47 48
2 48 49
2 49 50
2 50 51
2 51 52
2 52 53
2 53 54
2 54 55
2 55 56
2 56 57
2 57 58
2 58 59
2 59 60
2 60 61
2 61 62
2 62 63
2 63 64
2 64 65
2 65 66
2 66 67
2 67 68
2 68 69
2 69 70
2 70 71
2 71 72
2 139 140
2 140 141
2 141 142
2 142 143
2 143 144
2 144 145
2 145 146
2 146 147
2 147 148
2 148 149
2 149 150
2 150 151
2 151 152
2 152 153
2 153 154
2 154 155
2 155 156
2 156 157
2 157 158
2 158 159
2 159 160
2 160 161
2 161 162
2 162 163
2 163 164
2 164 165
2 165 166
2 166 167
2 167 168
2 168 169
2 169 170
2 170 171
2 171 172
2 172 173
2 173 174
2 174 175
2 175 176
2 176 177
2 177 178
2 178 179
2 179 180
2 180 181
2 181 182
2 182 183
2 183 184
2 184 185
2 185 186
2 186 187
2 187 188
2 188 189
2 189 190
2 190 191
2 191 192
2 192 193
2 193 194
2 194 195
2 195 196
2 196 197
2 197 198
2 198 199
2 199 200
2 200 201
2 201 202
2 202 203
2 203 204
2 204 205
2 205 206
2 206 207
2 207 208
2 208 209
2 209 210
2 210 211
2 12 73
2 73 79
2 79 85
2 85 91
2 91 97
2 97 103
2 103 109
2 109 115
2 115 121
2 121 127
2 127 133
2 133 151
2 24 74
2 74 80
2 80 86
2 86 92
2 92 98
2 98 104
2 104 110
2 110 116
2 116 122
2 122 128
2 128 134
2 134 163
2 36 75
2 75 81
2 81 87
2 87 93
2 93 99
2 99 105
2 105 111
2 111 117
2 117 123
2 123 129
2 129 135
2 135 175
2 48 76
2 76 82
2 82 88
2 88 94
2 94 100
2 100 106
2 106 112
2 112 118
2 118 124
2 124 130
2 130 136
2 136 187
2 60 77
2 77 83
2 83 89
2 89 95
2 95 101
2 101 107
2 107 113
2 113 119
2 119 125
2 125 131
2 131 137
2 137 199
2 72 78
2 78 84
2 84 90
2 90 96
2 96 102
2 102 108
2 108 114
2 114 120
2 120 126
2 126 132
2 132 138
2 138 211

CELL_TYPES 216
3
3
3
3
3
3
3
3
3
3
3
3
3
3
3
3
3
3
3
3
3
3
3
3
3
3
3
3
3
3
3
3
3
3
3
3
3
3
3
3
3
3
3
3
3
3
3
3
3
3
3
3
3
3
3
3
3
3
3
3
3
3
3
3
3
3
3
3
3
3
3
3
3
3
3
3
3
3
3
3
3
3
3
3
3
3
3
3
3
3
3
3
3
3
3
3
3
3
3
3
3
3
3
3
3
3
3
3
3
3
3
3
3
3
3
3
3
3
3
3
3
3
3
3
3
3
3
3
3
3
3
3
3
3
3
3
3
3
3
3
3
3
3
3
3
3
3
3
3
3
3
3
3
3
3
3
3
3
3
3
3
3
3
3
3
3
3
3
3
3
3
3
3
3
3
3
3
3
3
3
3
3
3
3
3
3
3
3
3
3
3
3
3
3
3
3
3
3
3
3
3
3
3
3
3
3
3
3
3
3
3
3
3
3
3
3
POINT_DATA 212
FIELD FieldData 3
ADJOINT_DISPLACEMENT 3 212  float
0.0000000e+00 0.0000000e+00 0.0000000e+00 
-3.2942218e-04 0.0000000e+00 7.4958842e-16 
-6.5463985e-04 0.0000000e+00 1.4991768e-15 
-9.7144849e-04 0.0000000e+00 2.2487653e-15 
-1.2756436e-03 0.0000000e+00 2.9983537e-15 
-1.5630206e-03 0.0000000e+00 3.7479421e-15 
-1.8293753e-03 0.0000000e+00 4.4975307e-15 
-2.0705026e-03 0.0000000e+00 5.2471188e-15 
-2.2821985e-03 0.0000000e+00 5.9967074e-15 
-2.4602585e-03 0.0000000e+00 6.7462956e-15 
-2.6004778e-03 0.0000000e+00 7.4958841e-15 
-2.6986520e-03 0.0000000e+00 8.2454727e-15 
-2.7505765e-03 0.0000000e+00 8.9950613e-15 
-2.7780947e-03 0.0000000e+00 1.0330692e-06 
-2.8240602e-03 0.0000000e+00 2.0661384e-06 
-2.9157843e-03 0.0000000e+00 3.0992076e-06 
-3.0805783e-03 0.0000000e+00 4.1322769e-06 
-3.3457538e-03 0.0000000e+00 5.1653460e-06 
-3.7386222e-03 0.0000000e+00 6.1984151e-06 
-4.2864946e-03 0.0000000e+00 7.2314842e-06 
-5.0166822e-03 0.0000000e+00 8.2645538e-06 
-5.9564970e-03 0.0000000e+00 9.2976225e-06 
-7.1332501e-03 0.0000000e+00 1.0330692e-05 
-8.5742520e-03 0.0000000e+00 1.1363761e-05 
-1.0306816e-02 0.0000000e+00 1.2396830e-05 
-1.2489117e-02 0.0000000e+00 1.7566701e-05 
-1.5173250e-02 0.0000000e+00 2.2736573e-05 
-1.8227398e-02 0.0000000e+00 2.7906444e-05 
-2.1519752e-02 0.0000000e+00 3.3076314e-05 
-2.4918493e-02 0.0000000e+00 3.8246184e-05 
-2.8291808e-02 0.0000000e+00 4.3416057e-05 
-3.1507887e-02 0.0000000e+00 4.8585927e-05 
-3.4434907e-02 0.0000000e+00 5.3755801e-05 
-3.6941066e-02 0.0000000e+00 5.8925671e-05 
-3.8894538e-02 0.0000000e+00 6.4095540e-05 
-4.0163517e-02 0.0000000e+00 6.9265414e-05 
-4.0616184e-02 0.0000000e+00 7.4435280e-05 
-4.0617660e-02 0.0000000e+00 9.9274213e-05 
-4.1022882e-02 0.0000000e+00 1.2411315e-04 
-4.2434782e-02 0.0000000e+00 1.4895208e-04 
-4.5456283e-02 0.0000000e+00 1.7379101e-04 
-5.0690319e-02 0.0000000e+00 1.9862995e-04 
-5.8739811e-02 0.0000000e+00 2.2346887e-04 
-7.0207693e-02 0.0000000e+00 2.4830780e-04 
-8.5696883e-02 0.0000000e+00 2.7314675e-04 
-1.0581032e-01 0.0000000e+00 2.9798568e-04 
-1.3115092e-01 0.0000000e+00 3.2282461e-04 
-1.6232161e-01 0.0000000e+00 3.4766353e-04 
-1.9992535e-01 0.0000000e+00 3.7250246e-04 
-2.4796525e-01 0.0000000e+00 4.9163605e-04 
-3.1002784e-01 0.0000000e+00 6.1076967e-04 
-3.8609099e-01 0.0000000e+00 7.2990323e-04 
-4.7613266e-01 0.0000000e+00 8.4903685e-04 
-5.8013076e-01 0.0000000e+00 9.6817041e-04 
-6.9806319e-01 0.0000000e+00 1.0873041e-03 
-5.7990783e-01 0.0000000e+00 1.2064376e-03 
-4.7564271e-01 0.0000000e+00 1.3255712e-03 
-3.8524565e-01 0.0000000e+00 1.4447048e-03 
-3.0869463e-01 0.0000000e+00 1.5638385e-03 
-2.4596749e-01 0.0000000e+00 1.6829720e-03 
-1.9704221e-01 0.0000000e+00 1.8021056e-03 
-1.5825906e-01 0.0000000e+00 1.8259115e-03 
-1.2564227e-01 0.0000000e+00 1.8497173e-03 
-9.8695680e-02 0.0000000e+00 1.8735232e-03 
-7.6923095e-02 0.0000000e+00 1.8973290e-03 
-5.9828352e-02 0.0000000e+00 1.9211349e-03 
-4.6915274e-02 0.0000000e+00 1.9449408e-03 
-3.7687682e-02 0.0000000e+00 1.9687465e-03 
-3.1649403e-02 0.0000000e+00 1.9925525e-03 
-2.8304262e-02 0.0000000e+00 2.0163583e-03 
-2.7156083e-02 0.0000000e+00 2.0401643e-03 
-2.7708692e-02 0.0000000e+00 2.0639701e-03 
-2.9465916e-02 0.0000000e+00 2.0877759e-03 
-2.7638294e-03 0.0000000e+00 -2.1832404e-05 
-1.0239901e-02 0.0000000e+00 3.1839793e-03 
-4.0925156e-02 0.0000000e+00 -1.2975751e-03 
-1.9966252e-01 0.0000000e+00 6.8995282e-02 
-1.9684285e-01 0.0000000e+00 -6.8631418e-02 
-2.9674564e-02 0.0000000e+00 7.7419598e-03 
-2.7770821e-03 0.0000000e+00 -1.7071814e-04 
-1.0172986e-02 0.0000000e+00 5.2538696e-03 
-4.1234124e-02 0.0000000e+00 -4.9169869e-03 
-1.9939969e-01 0.0000000e+00 1.1317062e-01 
-1.9664349e-01 0.0000000e+00 -1.1422317e-01 
-2.9883213e-02 0.0000000e+00 1.5324112e-02 
-2.7903351e-03 0.0000000e+00 -4.0735037e-04 
-1.0106072e-02 0.0000000e+00 6.3794670e-03 
-4.1543093e-02 0.0000000e+00 -1.0035419e-02 
-1.9913687e-01 0.0000000e+00 1.3648632e-01 
-1.9644412e-01 0.0000000e+00 -1.3860022e-01 
-3.0091861e-02 0.0000000e+00 2.3928452e-02 
-2.8035881e-03 0.0000000e+00 -6.9242215e-04 
-1.0039157e-02 0.0000000e+00 6.7181708e-03 
-4.1852064e-02 0.0000000e+00 -1.5904492e-02 
-1.9887404e-01 0.0000000e+00 1.4253016e-01 
-1.9624476e-01 0.0000000e+00 -1.4538966e-01 
-3.0300511e-02 0.0000000e+00 3.2649200e-02 
-2.8168410e-03 0.0000000e+00 -9.8662672e-04 
-9.9722426e-03 0.0000000e+00 6.4273817e-03 
-4.2161033e-02 0.0000000e+00 -2.1775823e-02 
-1.9861121e-01 0.0000000e+00 1.3488992e-01 
-1.9604540e-01 0.0000000e+00 -1.3821860e-01 
-3.0509159e-02 0.0000000e+00 4.0580574e-02 
-2.8300937e-03 0.0000000e+00 -1.2506573e-03 
-9.9053280e-03 0.0000000e+00 5.6644981e-03 
-4.2470001e-02 0.0000000e+00 -2.6901035e-02 
-1.9834839e-01 0.0000000e+00 1.1715336e-01 
-1.9584604e-01 0.0000000e+00 -1.2071410e-01 
-3.0717809e-02 0.0000000e+00 4.6816796e-02 
-2.8433467e-03 0.0000000e+00 -1.4452068e-03 
-9.8384134e-03 0.0000000e+00 4.5869206e-03 
-4.2778973e-02 0.0000000e+00 -3.0531744e-02 
-1.9808556e-01 0.0000000e+00 9.2908286e-02 
-1.9564667e-01 0.0000000e+00 -9.6503258e-02 
-3.0926459e-02 0.0000000e+00 5.0452087e-02 
-2.8565996e-03 0.0000000e+00 -1.5309685e-03 
-9.7714989e-03 0.0000000e+00 3.3520481e-03 
-4.3087941e-02 0.0000000e+00 -3.1919569e-02 
-1.9782273e-01 0.0000000e+00 6.5742478e-02 
-1.9544731e-01 0.0000000e+00 -6.9213174e-02 
-3.1135106e-02 0.0000000e+00 5.0580662e-02 
-2.8698524e-03 0.0000000e+00 -1.4686355e-03 
-9.7045843e-03 0.0000000e+00 2.1172804e-03 
-4.3396913e-02 0.0000000e+00 -3.0316133e-02 
-1.9755991e-01 0.0000000e+00 3.9243713e-02 
-1.9524795e-01 0.0000000e+00 -4.2470928e-02 
-3.1343754e-02 0.0000000e+00 4.6296742e-02 
-2.8831053e-03 0.0000000e+00 -1.2189010e-03 
-9.6376697e-03 0.0000000e+00 1.0400175e-03 
-4.3705881e-02 0.0000000e+00 -2.4973052e-02 
-1.9729708e-01 0.0000000e+00 1.6999774e-02 
-1.9504859e-01 0.0000000e+00 -1.9903608e-02 
-3.1552404e-02 0.0000000e+00 3.6694553e-02 
-2.8963583e-03 0.0000000e+00 -7.4245816e-04 
-9.5707551e-03 0.0000000e+00 2.7765843e-04 
-4.4014849e-02 0.0000000e+00 -1.5141946e-02 
-1.9703425e-01 0.0000000e+00 2.5984405e-03 
-1.9484922e-01 0.0000000e+00 -5.1383036e-03 
-3.1761054e-02 0.0000000e+00 2.0868305e-02 
0.0000000e+00 0.0000000e+00 0.0000000e+00 
-1.4226012e-04 0.0000000e+00 -6.9266177e-16 
-2.8872475e-04 0.0000000e+00 -1.3853234e-15 
-4.4359840e-04 0.0000000e+00 -2.0779838e-15 
-6.1108562e-04 0.0000000e+00 -2.7706473e-15 
-7.9539081e-04 0.0000000e+00 -3.4633083e-15 
-1.0007186e-03 0.0000000e+00 -4.1559722e-15 
-1.2312734e-03 0.0000000e+00 -4.8486347e-15 
-1.4912598e-03 0.0000000e+00 -5.5412959e-15 
-1.7848823e-03 0.0000000e+00 -6.2339529e-15 
-2.1163453e-03 0.0000000e+00 -6.9266128e-15 
-2.4898534e-03 0.0000000e+00 -7.6192740e-15 
-2.9096112e-03 0.0000000e+00 -8.3119335e-15 
-3.4127356e-03 0.0000000e+00 -1.0330692e-06 
-4.0153335e-03 0.0000000e+00 -2.0661384e-06 
-4.6900930e-03 0.0000000e+00 -3.0992076e-06 
-5.4097031e-03 0.0000000e+00 -4.1322769e-06 
-6.1468524e-03 0.0000000e+00 -5.1653460e-06 
-6.8742298e-03 0.0000000e+00 -6.1984151e-06 
-7.5645233e-03 0.0000000e+00 -7.2314842e-06 
-8.1904223e-03 0.0000000e+00 -8.2645538e-06 
-8.7246150e-03 0.0000000e+00 -9.2976225e-06 
-9.1397893e-03 0.0000000e+00 -1.0330692e-05 
-9.4086351e-03 0.0000000e+00 -1.1363761e-05 
-9.5038405e-03 0.0000000e+00 -1.2396830e-05 
-9.5033282e-03 0.0000000e+00 -1.7566701e-05 
-9.5911045e-03 0.0000000e+00 -2.2736573e-05 
-9.8989829e-03 0.0000000e+00 -2.7906444e-05 
-1.0558777e-02 0.0000000e+00 -3.3076314e-05 
-1.1702303e-02 0.0000000e+00 -3.8246184e-05 
-1.3461372e-02 0.0000000e+00 -4.3416057e-05 
-1.5967801e-02 0.0000000e+00 -4.8585927e-05 
-1.9353403e-02 0.0000000e+00 -5.3755801e-05 
-2.3749990e-02 0.0000000e+00 -5.8925671e-05 
-2.9289380e-02 0.0000000e+00 -6.4095540e-05 
-3.6103386e-02 0.0000000e+00 -6.9265414e-05 
-4.4323821e-02 0.0000000e+00 -7.4435280e-05 
-5.4708138e-02 0.0000000e+00 -9.9274213e-05 
-6.7523971e-02 0.0000000e+00 -1.2411315e-04 
-8.2168385e-02 0.0000000e+00 -1.4895208e-04 
-9.8038457e-02 0.0000000e+00 -1.7379101e-04 
-1.1453126e-01 0.0000000e+00 -1.9862995e-04 
-1.3104387e-01 0.0000000e+00 -2.2346887e-04 
-1.4697336e-01 0.0000000e+00 -2.4830780e-04 
-1.6171679e-01 0.0000000e+00 -2.7314675e-04 
-1.7467123e-01 0.0000000e+00 -2.9798568e-04 
-1.8523377e-01 0.0000000e+00 -3.2282461e-04 
-1.9280149e-01 0.0000000e+00 -3.4766353e-04 
-1.9677143e-01 0.0000000e+00 -3.7250246e-04 
-1.9852212e-01 0.0000000e+00 -4.9163605e-04 
-1.9984876e-01 0.0000000e+00 -6.1076967e-04 
-2.0077342e-01 0.0000000e+00 -7.2990323e-04 
-2.0131816e-01 0.0000000e+00 -8.4903685e-04 
-2.0150511e-01 0.0000000e+00 -9.6817041e-04 
-2.0135632e-01 0.0000000e+00 -1.0873041e-03 
-2.0089388e-01 0.0000000e+00 -1.2064376e-03 
-2.0013987e-01 0.0000000e+00 -1.3255712e-03 
-1.9911638e-01 0.0000000e+00 -1.4447048e-03 
-1.9784550e-01 0.0000000e+00 -1.5638385e-03 
-1.9634929e-01 0.0000000e+00 -1.6829720e-03 
-1.9464986e-01 0.0000000e+00 -1.8021056e-03 
-1.9096626e-01 0.0000000e+00 -1.8259115e-03 
-1.8383364e-01 0.0000000e+00 -1.8497173e-03 
-1.7374818e-01 0.0000000e+00 -1.8735232e-03 
-1.6120604e-01 0.0000000e+00 -1.8973290e-03 
-1.4670339e-01 0.0000000e+00 -1.9211349e-03 
-1.3073644e-01 0.0000000e+00 -1.9449408e-03 
-1.1380133e-01 0.0000000e+00 -1.9687465e-03 
-9.6394248e-02 0.0000000e+00 -1.9925525e-03 
-7.9011366e-02 0.0000000e+00 -2.0163583e-03 
-6.2148869e-02 0.0000000e+00 -2.0401643e-03 
-4.6302922e-02 0.0000000e+00 -2.0639701e-03 
-3.1969704e-02 0.0000000e+00 -2.0877759e-03 
ADJOINT_ROTATION 3 212  float
0.0000000e+00 -1.3204917e-03 0.0000000e+00 
0.0000000e+00 -1.3120826e-03 0.0000000e+00 
0.0000000e+00 -1.2868557e-03 0.0000000e+00 
0.0000000e+00 -1.2448105e-03 0.0000000e+00 
0.0000000e+00 -1.1859474e-03 0.0000000e+00 
0.0000000e+00 -1.1102662e-03 0.0000000e+00 
0.0000000e+00 -1.0177670e-03 0.0000000e+00 
0.0000000e+00 -9.0844982e-04 0.0000000e+00 
0.0000000e+00 -7.8231457e-04 0.0000000e+00 
0.0000000e+00 -6.3936121e-04 0.0000000e+00 
0.0000000e+00 -4.7958989e-04 0.0000000e+00 
0.0000000e+00 -3.0300050e-04 0.0000000e+00 
0.0000000e+00 -1.0959310e-04 0.0000000e+00 
0.0000000e+00 -1.2875958e-04 0.0000000e+00 
0.0000000e+00 -2.5717152e-04 0.0000000e+00 
0.0000000e+00 -4.9482891e-04 0.0000000e+00 
0.0000000e+00 -8.4173173e-04 0.0000000e+00 
0.0000000e+00 -1.2978800e-03 0.0000000e+00 
0.0000000e+00 -1.8632737e-03 0.0000000e+00 
0.0000000e+00 -2.5379129e-03 0.0000000e+00 
0.0000000e+00 -3.3217976e-03 0.0000000e+00 
0.0000000e+00 -4.2149276e-03 0.0000000e+00 
0.0000000e+00 -5.2173031e-03 0.0000000e+00 
0.0000000e+00 -6.3289241e-03 0.0000000e+00 
0.0000000e+00 -7.5497907e-03 0.0000000e+00 
0.0000000e+00 -9.8207435e-03 0.0000000e+00 
0.0000000e+00 -1.1564440e-02 0.0000000e+00 
0.0000000e+00 -1.2780880e-02 0.0000000e+00 
0.0000000e+00 -1.3470064e-02 0.0000000e+00 
0.0000000e+00 -1.3631991e-02 0.0000000e+00 
0.0000000e+00 -1.3266662e-02 0.0000000e+00 
0.0000000e+00 -1.2374076e-02 0.0000000e+00 
0.0000000e+00 -1.0954234e-02 0.0000000e+00 
0.0000000e+00 -9.0071354e-03 0.0000000e+00 
0.0000000e+00 -6.5327804e-03 0.0000000e+00 
0.0000000e+00 -3.5311691e-03 0.0000000e+00 
0.0000000e+00 -2.3012035e-06 0.0000000e+00 
0.0000000e+00 -4.1144213e-04 0.0000000e+00 
0.0000000e+00 -3.2322928e-03 0.0000000e+00 
0.0000000e+00 -8.4648533e-03 0.0000000e+00 
0.0000000e+00 -1.6109124e-02 0.0000000e+00 
0.0000000e+00 -2.6165104e-02 0.0000000e+00 
0.0000000e+00 -3.8632795e-02 0.0000000e+00 
0.0000000e+00 -5.3512193e-02 0.0000000e+00 
0.0000000e+00 -7.0803300e-02 0.0000000e+00 
0.0000000e+00 -9.0506122e-02 0.0000000e+00 
0.0000000e+00 -1.1262065e-01 0.0000000e+00 
0.0000000e+00 -1.3714689e-01 0.0000000e+00 
0.0000000e+00 -1.6408484e-01 0.0000000e+00 
0.0000000e+00 -2.2021969e-01 0.0000000e+00 
0.0000000e+00 -2.7626622e-01 0.0000000e+00 
0.0000000e+00 -3.3222440e-01 0.0000000e+00 
0.0000000e+00 -3.8809425e-01 0.0000000e+00 
0.0000000e+00 -4.4387576e-01 0.0000000e+00 
0.0000000e+00 -4.9956894e-01 0.0000000e+00 
0.0000000e+00 4.4482619e-01 0.0000000e+00 
0.0000000e+00 3.8930967e-01 0.0000000e+00 
0.0000000e+00 3.3388147e-01 0.0000000e+00 
0.0000000e+00 2.7854162e-01 0.0000000e+00 
0.0000000e+00 2.2329009e-01 0.0000000e+00 
0.0000000e+00 1.6812690e-01 0.0000000e+00 
0.0000000e+00 1.4246909e-01 0.0000000e+00 
0.0000000e+00 1.1879598e-01 0.0000000e+00 
0.0000000e+00 9.7107574e-02 0.0000000e+00 
0.0000000e+00 7.7403866e-02 0.0000000e+00 
0.0000000e+00 5.9684865e-02 0.0000000e+00 
0.0000000e+00 4.3950561e-02 0.0000000e+00 
0.0000000e+00 3.0200956e-02 0.0000000e+00 
0.0000000e+00 1.8436056e-02 0.0000000e+00 
0.0000000e+00 8.6558536e-03 0.0000000e+00 
0.0000000e+00 8.6035288e-04 0.0000000e+00 
0.0000000e+00 -4.9504470e-03 0.0000000e+00 
0.0000000e+00 -8.7765455e-03 0.0000000e+00 
0.0000000e+00 1.8382043e-04 0.0000000e+00 
0.0000000e+00 -5.1890062e-03 0.0000000e+00 
0.0000000e+00 5.2408823e-03 0.0000000e+00 
0.0000000e+00 -1.1160219e-01 0.0000000e+00 
0.0000000e+00 1.1481624e-01 0.0000000e+00 
0.0000000e+00 -1.3538263e-02 0.0000000e+00 
0.0000000e+00 3.9862024e-04 0.0000000e+00 
0.0000000e+00 -3.1430209e-03 0.0000000e+00 
0.0000000e+00 8.9873048e-03 0.0000000e+00 
0.0000000e+00 -6.6295117e-02 0.0000000e+00 
0.0000000e+00 6.8759769e-02 0.0000000e+00 
0.0000000e+00 -1.6488418e-02 0.0000000e+00 
0.0000000e+00 5.3480634e-04 0.0000000e+00 
0.0000000e+00 -1.4118350e-03 0.0000000e+00 
0.0000000e+00 1.1236966e-02 0.0000000e+00 
0.0000000e+00 -2.8163606e-02 0.0000000e+00 
0.0000000e+00 2.9957468e-02 0.0000000e+00 
0.0000000e+00 -1.7627014e-02 0.0000000e+00 
0.0000000e+00 5.9237872e-04 0.0000000e+00 
0.0000000e+00 4.5517891e-06 0.0000000e+00 
0.0000000e+00 1.1989865e-02 0.0000000e+00 
0.0000000e+00 2.7923426e-03 0.0000000e+00 
0.0000000e+00 -1.5906536e-03 0.0000000e+00 
0.0000000e+00 -1.6954049e-02 0.0000000e+00 
0.0000000e+00 5.7133735e-04 0.0000000e+00 
0.0000000e+00 1.1061393e-03 0.0000000e+00 
0.0000000e+00 1.1246003e-02 0.0000000e+00 
0.0000000e+00 2.6572729e-02 0.0000000e+00 
0.0000000e+00 -2.5884597e-02 0.0000000e+00 
0.0000000e+00 -1.4469524e-02 0.0000000e+00 
0.0000000e+00 4.7168229e-04 0.0000000e+00 
0.0000000e+00 1.8929276e-03 0.0000000e+00 
0.0000000e+00 9.0053799e-03 0.0000000e+00 
0.0000000e+00 4.3177549e-02 0.0000000e+00 
0.0000000e+00 -4.2924363e-02 0.0000000e+00 
0.0000000e+00 -1.0173438e-02 0.0000000e+00 
0.0000000e+00 2.9341353e-04 0.0000000e+00 
0.0000000e+00 2.3649167e-03 0.0000000e+00 
0.0000000e+00 5.2679954e-03 0.0000000e+00 
0.0000000e+00 5.2606810e-02 0.0000000e+00 
0.0000000e+00 -5.2709952e-02 0.0000000e+00 
0.0000000e+00 -4.0657916e-03 0.0000000e+00 
0.0000000e+00 3.6531033e-05 0.0000000e+00 
0.0000000e+00 2.5221065e-03 0.0000000e+00 
0.0000000e+00 3.3849417e-05 0.0000000e+00 
0.0000000e+00 5.4860502e-02 0.0000000e+00 
0.0000000e+00 -5.5241361e-02 0.0000000e+00 
0.0000000e+00 3.8534156e-03 0.0000000e+00 
0.0000000e+00 -2.9896517e-04 0.0000000e+00 
0.0000000e+00 2.3644972e-03 0.0000000e+00 
0.0000000e+00 -6.6970577e-03 0.0000000e+00 
0.0000000e+00 4.9938634e-02 0.0000000e+00 
0.0000000e+00 -5.0518595e-02 0.0000000e+00 
0.0000000e+00 1.3584184e-02 0.0000000e+00 
0.0000000e+00 -7.1307510e-04 0.0000000e+00 
0.0000000e+00 1.8920886e-03 0.0000000e+00 
0.0000000e+00 -1.4924726e-02 0.0000000e+00 
0.0000000e+00 3.7841201e-02 0.0000000e+00 
0.0000000e+00 -3.8541652e-02 0.0000000e+00 
0.0000000e+00 2.5126511e-02 0.0000000e+00 
0.0000000e+00 -1.2057987e-03 0.0000000e+00 
0.0000000e+00 1.1048808e-03 0.0000000e+00 
0.0000000e+00 -2.4649156e-02 0.0000000e+00 
0.0000000e+00 1.8568203e-02 0.0000000e+00 
0.0000000e+00 -1.9310530e-02 0.0000000e+00 
0.0000000e+00 3.8480401e-02 0.0000000e+00 
0.0000000e+00 -5.6623749e-04 0.0000000e+00 
0.0000000e+00 -5.7464652e-04 0.0000000e+00 
0.0000000e+00 -5.9987354e-04 0.0000000e+00 
0.0000000e+00 -6.4191868e-04 0.0000000e+00 
0.0000000e+00 -7.0078176e-04 0.0000000e+00 
0.0000000e+00 -7.7646296e-04 0.0000000e+00 
0.0000000e+00 -8.6896215e-04 0.0000000e+00 
0.0000000e+00 -9.7827939e-04 0.0000000e+00 
0.0000000e+00 -1.1044147e-03 0.0000000e+00 
0.0000000e+00 -1.2473679e-03 0.0000000e+00 
0.0000000e+00 -1.4071394e-03 0.0000000e+00 
0.0000000e+00 -1.5837287e-03 0.0000000e+00 
0.0000000e+00 -1.7771361e-03 0.0000000e+00 
0.0000000e+00 -2.2296519e-03 0.0000000e+00 
0.0000000e+00 -2.5729223e-03 0.0000000e+00 
0.0000000e+00 -2.8069471e-03 0.0000000e+00 
0.0000000e+00 -2.9317266e-03 0.0000000e+00 
0.0000000e+00 -2.9472606e-03 0.0000000e+00 
0.0000000e+00 -2.8535493e-03 0.0000000e+00 
0.0000000e+00 -2.6505925e-03 0.0000000e+00 
0.0000000e+00 -2.3383901e-03 0.0000000e+00 
0.0000000e+00 -1.9169423e-03 0.0000000e+00 
0.0000000e+00 -1.3862491e-03 0.0000000e+00 
0.0000000e+00 -7.4631040e-04 0.0000000e+00 
0.0000000e+00 2.8737395e-06 0.0000000e+00 
0.0000000e+00 -8.6650951e-05 0.0000000e+00 
0.0000000e+00 -7.0343207e-04 0.0000000e+00 
0.0000000e+00 -1.8474696e-03 0.0000000e+00 
0.0000000e+00 -3.5187637e-03 0.0000000e+00 
0.0000000e+00 -5.7173138e-03 0.0000000e+00 
0.0000000e+00 -8.4431209e-03 0.0000000e+00 
0.0000000e+00 -1.1696184e-02 0.0000000e+00 
0.0000000e+00 -1.5476504e-02 0.0000000e+00 
0.0000000e+00 -1.9784080e-02 0.0000000e+00 
0.0000000e+00 -2.4618912e-02 0.0000000e+00 
0.0000000e+00 -2.9981002e-02 0.0000000e+00 
0.0000000e+00 -3.5870347e-02 0.0000000e+00 
0.0000000e+00 -4.6802253e-02 0.0000000e+00 
0.0000000e+00 -5.5322446e-02 0.0000000e+00 
0.0000000e+00 -6.1430931e-02 0.0000000e+00 
0.0000000e+00 -6.5127708e-02 0.0000000e+00 
0.0000000e+00 -6.6412769e-02 0.0000000e+00 
0.0000000e+00 -6.5286130e-02 0.0000000e+00 
0.0000000e+00 -6.1747774e-02 0.0000000e+00 
0.0000000e+00 -5.5797711e-02 0.0000000e+00 
0.0000000e+00 -4.7435936e-02 0.0000000e+00 
0.0000000e+00 -3.6662456e-02 0.0000000e+00 
0.0000000e+00 -2.3477260e-02 0.0000000e+00 
0.0000000e+00 -7.8803580e-03 0.0000000e+00 
0.0000000e+00 -6.1399373e-03 0.0000000e+00 
0.0000000e+00 -4.4878493e-03 0.0000000e+00 
0.0000000e+00 -2.9240930e-03 0.0000000e+00 
0.0000000e+00 -1.4486690e-03 0.0000000e+00 
0.0000000e+00 -6.1576975e-05 0.0000000e+00 
0.0000000e+00 1.2371829e-03 0.0000000e+00 
0.0000000e+00 2.4476107e-03 0.0000000e+00 
0.0000000e+00 3.5697063e-03 0.0000000e+00 
0.0000000e+00 4.6034697e-03 0.0000000e+00 
0.0000000e+00 5.5489014e-03 0.0000000e+00 
0.0000000e+00 6.4060008e-03 0.0000000e+00 
0.0000000e+00 7.1747680e-03 0.0000000e+00 
0.0000000e+00 2.1963213e-02 0.0000000e+00 
0.0000000e+00 3.4766957e-02 0.0000000e+00 
0.0000000e+00 4.5586001e-02 0.0000000e+00 