# vtk DataFile Version 4.0
vtk output
ASCII
DATASET UNSTRUCTURED_GRID
POINTS 212 float
0.0000000e+00 0.0000000e+00 0.0000000e+00 
0.0000000e+00 0.0000000e+00 2.5000000e-01 
0.0000000e+00 0.0000000e+00 5.0000000e-01 
0.0000000e+00 0.0000000e+00 7.5000000e-01 
0.0000000e+00 0.0000000e+00 1.0000000e+00 
0.0000000e+00 0.0000000e+00 1.2500000e+00 
0.0000000e+00 0.0000000e+00 1.5000000e+00 
0.0000000e+00 0.0000000e+00 1.7500000e+00 
0.0000000e+00 0.0000000e+00 2.0000000e+00 
0.0000000e+00 0.0000000e+00 2.2500000e+00 
0.0000000e+00 0.0000000e+00 2.5000000e+00 
0.0000000e+00 0.0000000e+00 2.7500000e+00 
0.0000000e+00 0.0000000e+00 3.0000000e+00 
0.0000000e+00 0.0000000e+00 3.2500000e+00 
0.0000000e+00 0.0000000e+00 3.5000000e+00 
0.0000000e+00 0.0000000e+00 3.7500000e+00 
0.0000000e+00 0.0000000e+00 4.0000000e+00 
0.0000000e+00 0.0000000e+00 4.2500000e+00 
0.0000000e+00 0.0000000e+00 4.5000000e+00 
0.0000000e+00 0.0000000e+00 4.7500000e+00 
0.0000000e+00 0.0000000e+00 5.0000000e+00 
0.0000000e+00 0.0000000e+00 5.2500000e+00 
0.0000000e+00 0.0000000e+00 5.5000000e+00 
0.0000000e+00 0.0000000e+00 5.7500000e+00 
0.0000000e+00 0.0000000e+00 6.0000000e+00 
0.0000000e+00 0.0000000e+00 6.2500000e+00 
0.0000000e+00 0.0000000e+00 6.5000000e+00 
0.0000000e+00 0.0000000e+00 6.7500000e+00 
0.0000000e+00 0.0000000e+00 7.0000000e+00 
0.0000000e+00 0.0000000e+00 7.2500000e+00 
0.0000000e+00 0.0000000e+00 7.5000000e+00 
0.0000000e+00 0.0000000e+00 7.7500000e+00 
0.0000000e+00 0.0000000e+00 8.0000000e+00 
0.0000000e+00 0.0000000e+00 8.2500000e+00 
0.0000000e+00 0.0000000e+00 8.5000000e+00 
0.0000000e+00 0.0000000e+00 8.7500000e+00 
0.0000000e+00 0.0000000e+00 9.0000000e+00 
0.0000000e+00 0.0000000e+00 9.2500000e+00 
0.0000000e+00 0.0000000e+00 9.5000000e+00 
0.0000000e+00 0.0000000e+00 9.7500000e+00 
0.0000000e+00 0.0000000e+00 1.0000000e+01 
0.0000000e+00 0.0000000e+00 1.0250000e+01 
0.0000000e+00 0.0000000e+00 1.0500000e+01 
0.0000000e+00 0.0000000e+00 1.0750000e+01 
0.0000000e+00 0.0000000e+00 1.1000000e+01 
0.0000000e+00 0.0000000e+00 1.1250000e+01 
0.0000000e+00 0.0000000e+00 1.1500000e+01 
0.0000000e+00 0.0000000e+00 1.1750000e+01 
0.0000000e+00 0.0000000e+00 1.2000000e+01 
0.0000000e+00 0.0000000e+00 1.2250000e+01 
0.0000000e+00 0.0000000e+00 1.2500000e+01 
0.0000000e+00 0.0000000e+00 1.2750000e+01 
0.0000000e+00 0.0000000e+00 1.3000000e+01 
0.0000000e+00 0.0000000e+00 1.3250000e+01 
0.0000000e+00 0.0000000e+00 1.3500000e+01 
0.0000000e+00 0.0000000e+00 1.3750000e+01 
0.0000000e+00 0.0000000e+00 1.4000000e+01 
0.0000000e+00 0.0000000e+00 1.4250000e+01 
0.0000000e+00 0.0000000e+00 1.4500000e+01 
0.0000000e+00 0.0000000e+00 1.4750000e+01 
0.0000000e+00 0.0000000e+00 1.5000000e+01 
0.0000000e+00 0.0000000e+00 1.5250000e+01 
0.0000000e+00 0.0000000e+00 1.5500000e+01 
0.0000000e+00 0.0000000e+00 1.5750000e+01 
0.0000000e+00 0.0000000e+00 1.6000000e+01 
0.0000000e+00 0.0000000e+00 1.6250000e+01 
0.0000000e+00 0.0000000e+00 1.6500000e+01 
0.0000000e+00 0.0000000e+00 1.6750000e+01 
0.0000000e+00 0.0000000e+00 1.7000000e+01 
0.0000000e+00 0.0000000e+00 1.7250000e+01 
0.0000000e+00 0.0000000e+00 1.7500000e+01 
0.0000000e+00 0.0000000e+00 1.7750000e+01 
0.0000000e+00 0.0000000e+00 1.8000000e+01 
5.0000000e-01 0.0000000e+00 3.0000000e+00 
5.0000000e-01 0.0000000e+00 6.0000000e+00 
5.0000000e-01 0.0000000e+00 9.0000000e+00 
5.0000000e-01 0.0000000e+00 1.2000000e+01 
5.0000000e-01 0.0000000e+00 1.5000000e+01 
5.0000000e-01 0.0000000e+00 1.8000000e+01 
1.0000000e+00 0.0000000e+00 3.0000000e+00 
1.0000000e+00 0.0000000e+00 6.0000000e+00 
1.0000000e+00 0.0000000e+00 9.0000000e+00 
1.0000000e+00 0.0000000e+00 1.2000000e+01 
1.0000000e+00 0.0000000e+00 1.5000000e+01 
1.0000000e+00 0.0000000e+00 1.8000000e+01 
1.5000000e+00 0.0000000e+00 3.0000000e+00 
1.5000000e+00 0.0000000e+00 6.0000000e+00 
1.5000000e+00 0.0000000e+00 9.0000000e+00 
1.5000000e+00 0.0000000e+00 1.2000000e+01 
1.5000000e+00 0.0000000e+00 1.5000000e+01 
1.5000000e+00 0.0000000e+00 1.8000000e+01 
2.0000000e+00 0.0000000e+00 3.0000000e+00 
2.0000000e+00 0.0000000e+00 6.0000000e+00 
2.0000000e+00 0.0000000e+00 9.0000000e+00 
2.0000000e+00 0.0000000e+00 1.2000000e+01 
2.0000000e+00 0.0000000e+00 1.5000000e+01 
2.0000000e+00 0.0000000e+00 1.8000000e+01 
2.5000000e+00 0.0000000e+00 3.0000000e+00 
2.5000000e+00 0.0000000e+00 6.0000000e+00 
2.5000000e+00 0.0000000e+00 9.0000000e+00 
2.5000000e+00 0.0000000e+00 1.2000000e+01 
2.5000000e+00 0.0000000e+00 1.5000000e+01 
2.5000000e+00 0.0000000e+00 1.8000000e+01 
3.0000000e+00 0.0000000e+00 3.0000000e+00 
3.0000000e+00 0.0000000e+00 6.0000000e+00 
3.0000000e+00 0.0000000e+00 9.0000000e+00 
3.0000000e+00 0.0000000e+00 1.2000000e+01 
3.0000000e+00 0.0000000e+00 1.5000000e+01 
3.0000000e+00 0.0000000e+00 1.8000000e+01 
3.5000000e+00 0.0000000e+00 3.0000000e+00 
3.5000000e+00 0.0000000e+00 6.0000000e+00 
3.5000000e+00 0.0000000e+00 9.0000000e+00 
3.5000000e+00 0.0000000e+00 1.2000000e+01 
3.5000000e+00 0.0000000e+00 1.5000000e+01 
3.5000000e+00 0.0000000e+00 1.8000000e+01 
4.0000000e+00 0.0000000e+00 3.0000000e+00 
4.0000000e+00 0.0000000e+00 6.0000000e+00 
4.0000000e+00 0.0000000e+00 9.0000000e+00 
4.0000000e+00 0.0000000e+00 1.2000000e+01 
4.0000000e+00 0.0000000e+00 1.5000000e+01 
4.0000000e+00 0.0000000e+00 1.8000000e+01 
4.5000000e+00 0.0000000e+00 3.0000000e+00 
4.5000000e+00 0.0000000e+00 6.0000000e+00 
4.5000000e+00 0.0000000e+00 9.0000000e+00 
4.5000000e+00 0.0000000e+00 1.2000000e+01 
4.5000000e+00 0.0000000e+00 1.5000000e+01 
4.5000000e+00 0.0000000e+00 1.8000000e+01 
5.0000000e+00 0.0000000e+00 3.0000000e+00 
5.0000000e+00 0.0000000e+00 6.0000000e+00 
5.0000000e+00 0.0000000e+00 9.0000000e+00 
5.0000000e+00 0.0000000e+00 1.2000000e+01 
5.0000000e+00 0.0000000e+00 1.5000000e+01 
5.0000000e+00 0.0000000e+00 1.8000000e+01 
5.5000000e+00 0.0000000e+00 3.0000000e+00 
5.5000000e+00 0.0000000e+00 6.0000000e+00 
5.5000000e+00 0.0000000e+00 9.0000000e+00 
5.5000000e+00 0.0000000e+00 1.2000000e+01 
5.5000000e+00 0.0000000e+00 1.5000000e+01 
5.5000000e+00 0.0000000e+00 1.8000000e+01 
6.0000000e+00 0.0000000e+00 0.0000000e+00 
6.0000000e+00 0.0000000e+00 2.5000000e-01 
6.0000000e+00 0.0000000e+00 5.0000000e-01 
6.0000000e+00 0.0000000e+00 7.5000000e-01 
6.0000000e+00 0.0000000e+00 1.0000000e+00 
6.0000000e+00 0.0000000e+00 1.2500000e+00 
6.0000000e+00 0.0000000e+00 1.5000000e+00 
6.0000000e+00 0.0000000e+00 1.7500000e+00 
6.0000000e+00 0.0000000e+00 2.0000000e+00 
6.0000000e+00 0.0000000e+00 2.2500000e+00 
6.0000000e+00 0.0000000e+00 2.5000000e+00 
6.0000000e+00 0.0000000e+00 2.7500000e+00 
6.0000000e+00 0.0000000e+00 3.0000000e+00 
6.0000000e+00 0.0000000e+00 3.2500000e+00 
6.0000000e+00 0.0000000e+00 3.5000000e+00 
6.0000000e+00 0.0000000e+00 3.7500000e+00 
6.0000000e+00 0.0000000e+00 4.0000000e+00 
6.0000000e+00 0.0000000e+00 4.2500000e+00 
6.0000000e+00 0.0000000e+00 4.5000000e+00 
6.0000000e+00 0.0000000e+00 4.7500000e+00 
6.0000000e+00 0.0000000e+00 5.0000000e+00 
6.0000000e+00 0.0000000e+00 5.2500000e+00 
6.0000000e+00 0.0000000e+00 5.5000000e+00 
6.0000000e+00 0.0000000e+00 5.7500000e+00 
6.0000000e+00 0.0000000e+00 6.0000000e+00 
6.0000000e+00 0.0000000e+00 6.2500000e+00 
6.0000000e+00 0.0000000e+00 6.5000000e+00 
6.0000000e+00 0.0000000e+00 6.7500000e+00 
6.0000000e+00 0.0000000e+00 7.0000000e+00 
6.0000000e+00 0.0000000e+00 7.2500000e+00 
6.0000000e+00 0.0000000e+00 7.5000000e+00 
6.0000000e+00 0.0000000e+00 7.7500000e+00 
6.0000000e+00 0.0000000e+00 8.0000000e+00 
6.0000000e+00 0.0000000e+00 8.2500000e+00 
6.0000000e+00 0.0000000e+00 8.5000000e+00 
6.0000000e+00 0.0000000e+00 8.7500000e+00 
6.0000000e+00 0.0000000e+00 9.0000000e+00 
6.0000000e+00 0.0000000e+00 9.2500000e+00 
6.0000000e+00 0.0000000e+00 9.5000000e+00 
6.0000000e+00 0.0000000e+00 9.7500000e+00 
6.0000000e+00 0.0000000e+00 1.0000000e+01 
6.0000000e+00 0.0000000e+00 1.0250000e+01 
6.0000000e+00 0.0000000e+00 1.0500000e+01 
6.0000000e+00 0.0000000e+00 1.0750000e+01 
6.0000000e+00 0.0000000e+00 1.1000000e+01 
6.0000000e+00 0.0000000e+00 1.1250000e+01 
6.0000000e+00 0.0000000e+00 1.1500000e+01 
6.0000000e+00 0.0000000e+00 1.1750000e+01 
6.0000000e+00 0.0000000e+00 1.2000000e+01 
6.0000000e+00 0.0000000e+00 1.2250000e+01 
6.0000000e+00 0.0000000e+00 1.2500000e+01 
6.0000000e+00 0.0000000e+00 1.2750000e+01 
6.0000000e+00 0.0000000e+00 1.3000000e+01 
6.0000000e+00 0.0000000e+00 1.3250000e+01 
6.0000000e+00 0.0000000e+00 1.3500000e+01 
6.0000000e+00 0.0000000e+00 1.3750000e+01 
6.0000000e+00 0.0000000e+00 1.4000000e+01 
6.0000000e+00 0.0000000e+00 1.4250000e+01 
6.0000000e+00 0.0000000e+00 1.4500000e+01 
6.0000000e+00 0.0000000e+00 1.4750000e+01 
6.0000000e+00 0.0000000e+00 1.5000000e+01 
6.0000000e+00 0.0000000e+00 1.5250000e+01 
6.0000000e+00 0.0000000e+00 1.5500000e+01 
6.0000000e+00 0.0000000e+00 1.5750000e+01 
6.0000000e+00 0.0000000e+00 1.6000000e+01 
6.0000000e+00 0.0000000e+00 1.6250000e+01 
6.0000000e+00 0.0000000e+00 1.6500000e+01 
6.0000000e+00 0.0000000e+00 1.6750000e+01 
6.0000000e+00 0.0000000e+00 1.7000000e+01 
6.0000000e+00 0.0000000e+00 1.7250000e+01 
6.0000000e+00 0.0000000e+00 1.7500000e+01 
6.0000000e+00 0.0000000e+00 1.7750000e+01 
6.0000000e+00 0.0000000e+00 1.8000000e+01 

CELLS 216 648
2 0 1
2 1 2
2 2 3
2 3 4
2 4 5
2 5 6
2 6 7
2 7 8
2 8 9
2 9 10
2 10 11
2 11 12
2 12 13
2 13 14
2 14 15
2 15 16
2 16 17
2 17 18
2 18 19
2 19 20
2 20 21
2 21 22
2 22 23
2 23 24
2 24 25
2 25 26
2 26 27
2 27 28
2 28 29
2 29 30
2 30 31
2 31 32
2 32 33
2 33 34
2 34 35
2 35 36
2 36 37
2 37 38
2 38 39
2 39 40
2 40 41
2 41 42
2 42 43
2 43 44
2 44 45
2 45 46
2 46 47
2 47 48
2 48 49
2 49 50
2 50 51
2 51 52
2 52 53
2 53 54
2 54 55
2 55 56
2 56 57
2 57 58
2 58 59
2 59 60
2 60 61
2 61 62
2 62 63
2 63 64
2 64 65
2 65 66
2 66 67
2 67 68
2 68 69
2 69 70
2 70 71
2 71 72
2 139 140
2 140 141
2 141 142
2 142 143
2 143 144
2 144 145
2 145 146
2 146 147
2 147 148
2 148 149
2 149 150
2 150 151
2 151 152
2 152 153
2 153 154
2 154 155
2 155 156
2 156 157
2 157 158
2 158 159
2 159 160
2 160 161
2 161 162
2 162 163
2 163 164
2 164 165
2 165 166
2 166 167
2 167 168
2 168 169
2 169 170
2 170 171
2 171 172
2 172 173
2 173 174
2 174 175
2 175 176
2 176 177
2 177 178
2 178 179
2 179 180
2 180 181
2 181 182
2 182 183
2 183 184
2 184 185
2 185 186
2 186 187
2 187 188
2 188 189
2 189 190
2 190 191
2 191 192
2 192 193
2 193 194
2 194 195
2 195 196
2 196 197
2 197 198
2 198 199
2 199 200
2 200 201
2 201 202
2 202 203
2 203 204
2 204 205
2 205 206
2 206 207
2 207 208
2 208 209
2 209 210
2 210 211
2 12 73
2 73 79
2 79 85
2 85 91
2 91 97
2 97 103
2 103 109
2 109 115
2 115 121
2 121 127
2 127 133
2 133 151
2 24 74
2 74 80
2 80 86
2 86 92
2 92 98
2 98 104
2 104 110
2 110 116
2 116 122
2 122 128
2 128 134
2 134 163
2 36 75
2 75 81
2 81 87
2 87 93
2 93 99
2 99 105
2 105 111
2 111 117
2 117 123
2 123 129
2 129 135
2 135 175
2 48 76
2 76 82
2 82 88
2 88 94
2 94 100
2 100 106
2 106 112
2 112 118
2 118 124
2 124 130
2 130 136
2 136 187
2 60 77
2 77 83
2 83 89
2 89 95
2 95 101
2 101 107
2 107 113
2 113 119
2 119 125
2 125 131
2 131 137
2 137 199
2 72 78
2 78 84
2 84 90
2 90 96
2 96 102
2 102 108
2 108 114
2 114 120
2 120 126
2 126 132
2 132 138
2 138 211

CELL_TYPES 216
3
3
3
3
3
3
3
3
3
3
3
3
3
3
3
3
3
3
3
3
3
3
3
3
3
3
3
3
3
3
3
3
3
3
3
3
3
3
3
3
3
3
3
3
3
3
3
3
3
3
3
3
3
3
3
3
3
3
3
3
3
3
3
3
3
3
3
3
3
3
3
3
3
3
3
3
3
3
3
3
3
3
3
3
3
3
3
3
3
3
3
3
3
3
3
3
3
3
3
3
3
3
3
3
3
3
3
3
3
3
3
3
3
3
3
3
3
3
3
3
3
3
3
3
3
3
3
3
3
3
3
3
3
3
3
3
3
3
3
3
3
3
3
3
3
3
3
3
3
3
3
3
3
3
3
3
3
3
3
3
3
3
3
3
3
3
3
3
3
3
3
3
3
3
3
3
3
3
3
3
3
3
3
3
3
3
3
3
3
3
3
3
3
3
3
3
3
3
3
3
3
3
3
3
3
3
3
3
3
3
3
3
3
3
3
3
POINT_DATA 212
FIELD FieldData 8
DISPLACEMENT 3 212  float
0.0000000e+00 0.0000000e+00 0.0000000e+00 
-3.9413615e-04 0.0000000e+00 -2.3298258e-05 
-7.7175553e-04 0.0000000e+00 -4.6436086e-05 
-1.1163414e-03 0.0000000e+00 -6.9413480e-05 
-1.4113772e-03 0.0000000e+00 -9.2230446e-05 
-1.6403461e-03 0.0000000e+00 -1.1488698e-04 
-1.7867313e-03 0.0000000e+00 -1.3738309e-04 
-1.8340161e-03 0.0000000e+00 -1.5971875e-04 
-1.7656838e-03 0.0000000e+00 -1.8189399e-04 
-1.5652175e-03 0.0000000e+00 -2.0390880e-04 
-1.2161008e-03 0.0000000e+00 -2.2576319e-04 
-7.0181669e-04 0.0000000e+00 -2.4745712e-04 
-5.8485621e-06 0.0000000e+00 -2.6899064e-04 
6.2060845e-04 0.0000000e+00 -2.8839250e-04 
9.5166912e-04 0.0000000e+00 -3.0763392e-04 
1.0418150e-03 0.0000000e+00 -3.2671489e-04 
9.4552769e-04 0.0000000e+00 -3.4563543e-04 
7.1728870e-04 0.0000000e+00 -3.6439556e-04 
4.1157956e-04 0.0000000e+00 -3.8299526e-04 
8.2881888e-05 0.0000000e+00 -4.0143452e-04 
-2.1432279e-04 0.0000000e+00 -4.1971335e-04 
-4.2555289e-04 0.0000000e+00 -4.3783174e-04 
-4.9632689e-04 0.0000000e+00 -4.5578970e-04 
-3.7216322e-04 0.0000000e+00 -4.7358725e-04 
1.4197001e-06 0.0000000e+00 -4.9122435e-04 
3.9183383e-04 0.0000000e+00 -5.0672976e-04 
5.6034740e-04 0.0000000e+00 -5.2207481e-04 
5.5222615e-04 0.0000000e+00 -5.3725933e-04 
4.1273606e-04 0.0000000e+00 -5.5228348e-04 
1.8714290e-04 0.0000000e+00 -5.6714722e-04 
-7.9287493e-05 0.0000000e+00 -5.8185047e-04 
-3.4128924e-04 0.0000000e+00 -5.9639331e-04 
-5.5359653e-04 0.0000000e+00 -6.1077572e-04 
-6.7094347e-04 0.0000000e+00 -6.2499772e-04 
-6.4806425e-04 0.0000000e+00 -6.3905929e-04 
-4.3969302e-04 0.0000000e+00 -6.5296039e-04 
-5.6391951e-07 0.0000000e+00 -6.6670112e-04 
4.3187969e-04 0.0000000e+00 -6.7831011e-04 
6.2263478e-04 0.0000000e+00 -6.8975874e-04 
6.2062789e-04 0.0000000e+00 -7.0104690e-04 
4.7478531e-04 0.0000000e+00 -7.1217463e-04 
2.3403353e-04 0.0000000e+00 -7.2314189e-04 
-5.2701020e-05 0.0000000e+00 -7.3394878e-04 
-3.3649194e-04 0.0000000e+00 -7.4459519e-04 
-5.6841283e-04 0.0000000e+00 -7.5508119e-04 
-6.9953717e-04 0.0000000e+00 -7.6540676e-04 
-6.8093865e-04 0.0000000e+00 -7.7557191e-04 
-4.6369084e-04 0.0000000e+00 -7.8557665e-04 
1.1327444e-06 0.0000000e+00 -7.9542090e-04 
4.7938552e-04 0.0000000e+00 -8.0313353e-04 
7.3201890e-04 0.0000000e+00 -8.1068568e-04 
8.0060633e-04 0.0000000e+00 -8.1807747e-04 
7.2672131e-04 0.0000000e+00 -8.2530879e-04 
5.5193715e-04 0.0000000e+00 -8.3237962e-04 
3.1782730e-04 0.0000000e+00 -8.3929009e-04 
6.5965243e-05 0.0000000e+00 -8.4604014e-04 
-1.6207562e-04 0.0000000e+00 -8.5262972e-04 
-3.2472186e-04 0.0000000e+00 -8.5905887e-04 
-3.8040007e-04 0.0000000e+00 -8.6532760e-04 
-2.8753679e-04 0.0000000e+00 -8.7143591e-04 
-4.5586012e-06 0.0000000e+00 -8.7738375e-04 
2.2431619e-04 0.0000000e+00 -8.8119996e-04 
1.7459683e-04 0.0000000e+00 -8.8485575e-04 
-8.2551960e-05 0.0000000e+00 -8.8835106e-04 
-4.7596547e-04 0.0000000e+00 -8.9168595e-04 
-9.3447894e-04 0.0000000e+00 -8.9486042e-04 
-1.3869278e-03 0.0000000e+00 -8.9787447e-04 
-1.7621471e-03 0.0000000e+00 -9.0072810e-04 
-1.9889723e-03 0.0000000e+00 -9.0342126e-04 
-1.9962385e-03 0.0000000e+00 -9.0595405e-04 
-1.7127813e-03 0.0000000e+00 -9.0832636e-04 
-1.0674356e-03 0.0000000e+00 -9.1053825e-04 
1.0963076e-05 0.0000000e+00 -9.1258966e-04 
-4.8738016e-06 0.0000000e+00 -2.7537746e-03 
1.1830833e-06 0.0000000e+00 -2.4702600e-03 
-4.6993296e-07 0.0000000e+00 -2.7431666e-03 
9.4395364e-07 0.0000000e+00 -2.9366466e-03 
-3.7988343e-06 0.0000000e+00 -2.6280601e-03 
9.1358961e-06 0.0000000e+00 -4.3623140e-03 
-3.8990415e-06 0.0000000e+00 -6.3222912e-03 
9.4646668e-07 0.0000000e+00 -5.6249825e-03 
-3.7594637e-07 0.0000000e+00 -5.9776045e-03 
7.5516289e-07 0.0000000e+00 -6.2240697e-03 
-3.0390675e-06 0.0000000e+00 -5.5959434e-03 
7.3087172e-06 0.0000000e+00 -8.7203272e-03 
-2.9242810e-06 0.0000000e+00 -1.0053233e-02 
7.0985004e-07 0.0000000e+00 -9.0340851e-03 
-2.8195979e-07 0.0000000e+00 -9.4487080e-03 
5.6637219e-07 0.0000000e+00 -9.7363843e-03 
-2.2793006e-06 0.0000000e+00 -8.8597266e-03 
5.4815378e-06 0.0000000e+00 -1.3065322e-02 
-1.9495208e-06 0.0000000e+00 -1.3230029e-02 
4.7323334e-07 0.0000000e+00 -1.1980996e-02 
-1.8797319e-07 0.0000000e+00 -1.2439906e-02 
3.7758144e-07 0.0000000e+00 -1.2757017e-02 
-1.5195337e-06 0.0000000e+00 -1.1702837e-02 
3.6543586e-06 0.0000000e+00 -1.6680729e-02 
-9.7476038e-07 0.0000000e+00 -1.5340842e-02 
2.3661667e-07 0.0000000e+00 -1.3953878e-02 
-9.3986600e-08 0.0000000e+00 -1.4439358e-02 
1.8879072e-07 0.0000000e+00 -1.4774133e-02 
-7.5976686e-07 0.0000000e+00 -1.3613439e-02 
1.8271793e-06 0.0000000e+00 -1.9054705e-02 
-3.8883793e-15 0.0000000e+00 -1.6078569e-02 
-5.8063249e-15 0.0000000e+00 -1.4645627e-02 
-8.2220480e-15 0.0000000e+00 -1.5139965e-02 
-1.0642210e-14 0.0000000e+00 -1.5480626e-02 
-1.2247659e-14 0.0000000e+00 -1.4284428e-02 
-1.2505334e-14 0.0000000e+00 -1.9880155e-02 
9.7476038e-07 0.0000000e+00 -1.5340842e-02 
-2.3661669e-07 0.0000000e+00 -1.3953878e-02 
9.3986579e-08 0.0000000e+00 -1.4439358e-02 
-1.8879074e-07 0.0000000e+00 -1.4774133e-02 
7.5976686e-07 0.0000000e+00 -1.3613439e-02 
-1.8271793e-06 0.0000000e+00 -1.9054705e-02 
1.9495208e-06 0.0000000e+00 -1.3230029e-02 
-4.7323334e-07 0.0000000e+00 -1.1980996e-02 
1.8797317e-07 0.0000000e+00 -1.2439906e-02 
-3.7758147e-07 0.0000000e+00 -1.2757017e-02 
1.5195337e-06 0.0000000e+00 -1.1702837e-02 
-3.6543586e-06 0.0000000e+00 -1.6680729e-02 
2.9242810e-06 0.0000000e+00 -1.0053233e-02 
-7.0985004e-07 0.0000000e+00 -9.0340851e-03 
2.8195976e-07 0.0000000e+00 -9.4487080e-03 
-5.6637219e-07 0.0000000e+00 -9.7363843e-03 
2.2793006e-06 0.0000000e+00 -8.8597266e-03 
-5.4815378e-06 0.0000000e+00 -1.3065322e-02 
3.8990415e-06 0.0000000e+00 -6.3222912e-03 
-9.4646668e-07 0.0000000e+00 -5.6249825e-03 
3.7594634e-07 0.0000000e+00 -5.9776045e-03 
-7.5516294e-07 0.0000000e+00 -6.2240697e-03 
3.0390675e-06 0.0000000e+00 -5.5959434e-03 
-7.3087172e-06 0.0000000e+00 -8.7203272e-03 
4.8738016e-06 0.0000000e+00 -2.7537746e-03 
-1.1830833e-06 0.0000000e+00 -2.4702600e-03 
4.6993293e-07 0.0000000e+00 -2.7431666e-03 
-9.4395364e-07 0.0000000e+00 -2.9366466e-03 
3.7988343e-06 0.0000000e+00 -2.6280601e-03 
-9.1358970e-06 0.0000000e+00 -4.3623140e-03 
0.0000000e+00 0.0000000e+00 0.0000000e+00 
3.9413615e-04 0.0000000e+00 -2.3298258e-05 
7.7175553e-04 0.0000000e+00 -4.6436086e-05 
1.1163414e-03 0.0000000e+00 -6.9413480e-05 
1.4113772e-03 0.0000000e+00 -9.2230446e-05 
1.6403461e-03 0.0000000e+00 -1.1488698e-04 
1.7867313e-03 0.0000000e+00 -1.3738309e-04 
1.8340161e-03 0.0000000e+00 -1.5971875e-04 
1.7656838e-03 0.0000000e+00 -1.8189399e-04 
1.5652175e-03 0.0000000e+00 -2.0390880e-04 
1.2161008e-03 0.0000000e+00 -2.2576319e-04 
7.0181669e-04 0.0000000e+00 -2.4745712e-04 
5.8485621e-06 0.0000000e+00 -2.6899064e-04 
-6.2060845e-04 0.0000000e+00 -2.8839250e-04 
-9.5166912e-04 0.0000000e+00 -3.0763392e-04 
-1.0418150e-03 0.0000000e+00 -3.2671489e-04 
-9.4552769e-04 0.0000000e+00 -3.4563543e-04 
-7.1728870e-04 0.0000000e+00 -3.6439556e-04 
-4.1157956e-04 0.0000000e+00 -3.8299526e-04 
-8.2881888e-05 0.0000000e+00 -4.0143452e-04 
2.1432279e-04 0.0000000e+00 -4.1971335e-04 
4.2555289e-04 0.0000000e+00 -4.3783174e-04 
4.9632689e-04 0.0000000e+00 -4.5578970e-04 
3.7216322e-04 0.0000000e+00 -4.7358725e-04 
-1.4197001e-06 0.0000000e+00 -4.9122435e-04 
-3.9183383e-04 0.0000000e+00 -5.0672976e-04 
-5.6034740e-04 0.0000000e+00 -5.2207481e-04 
-5.5222615e-04 0.0000000e+00 -5.3725933e-04 
-4.1273606e-04 0.0000000e+00 -5.5228348e-04 
-1.8714290e-04 0.0000000e+00 -5.6714722e-04 
7.9287493e-05 0.0000000e+00 -5.8185047e-04 
3.4128924e-04 0.0000000e+00 -5.9639331e-04 
5.5359653e-04 0.0000000e+00 -6.1077572e-04 
6.7094347e-04 0.0000000e+00 -6.2499772e-04 
6.4806425e-04 0.0000000e+00 -6.3905929e-04 
4.3969302e-04 0.0000000e+00 -6.5296039e-04 
5.6391951e-07 0.0000000e+00 -6.6670112e-04 
-4.3187969e-04 0.0000000e+00 -6.7831011e-04 
-6.2263478e-04 0.0000000e+00 -6.8975874e-04 
-6.2062789e-04 0.0000000e+00 -7.0104690e-04 
-4.7478531e-04 0.0000000e+00 -7.1217463e-04 
-2.3403353e-04 0.0000000e+00 -7.2314189e-04 
5.2701020e-05 0.0000000e+00 -7.3394878e-04 
3.3649194e-04 0.0000000e+00 -7.4459519e-04 
5.6841283e-04 0.0000000e+00 -7.5508119e-04 
6.9953717e-04 0.0000000e+00 -7.6540676e-04 
6.8093865e-04 0.0000000e+00 -7.7557191e-04 
4.6369084e-04 0.0000000e+00 -7.8557665e-04 
-1.1327444e-06 0.0000000e+00 -7.9542090e-04 
-4.7938552e-04 0.0000000e+00 -8.0313353e-04 
-7.3201890e-04 0.0000000e+00 -8.1068568e-04 
-8.0060633e-04 0.0000000e+00 -8.1807747e-04 
-7.2672131e-04 0.0000000e+00 -8.2530879e-04 
-5.5193715e-04 0.0000000e+00 -8.3237962e-04 
-3.1782730e-04 0.0000000e+00 -8.3929009e-04 
-6.5965243e-05 0.0000000e+00 -8.4604014e-04 
1.6207562e-04 0.0000000e+00 -8.5262972e-04 
3.2472186e-04 0.0000000e+00 -8.5905887e-04 
3.8040007e-04 0.0000000e+00 -8.6532760e-04 
2.8753679e-04 0.0000000e+00 -8.7143591e-04 
4.5586012e-06 0.0000000e+00 -8.7738375e-04 
-2.2431619e-04 0.0000000e+00 -8.8119996e-04 
-1.7459683e-04 0.0000000e+00 -8.8485575e-04 
8.2551960e-05 0.0000000e+00 -8.8835106e-04 
4.7596547e-04 0.0000000e+00 -8.9168595e-04 
9.3447894e-04 0.0000000e+00 -8.9486042e-04 
1.3869278e-03 0.0000000e+00 -8.9787447e-04 
1.7621471e-03 0.0000000e+00 -9.0072810e-04 
1.9889723e-03 0.0000000e+00 -9.0342126e-04 
1.9962385e-03 0.0000000e+00 -9.0595405e-04 
1.7127813e-03 0.0000000e+00 -9.0832636e-04 
1.0674356e-03 0.0000000e+00 -9.1053825e-04 
-1.0963076e-05 0.0000000e+00 -9.1258966e-04 
ROTATION 3 212  float
0.0000000e+00 -1.5875557e-03 0.0000000e+00 
0.0000000e+00 -1.5545223e-03 0.0000000e+00 
0.0000000e+00 -1.4554219e-03 0.0000000e+00 
0.0000000e+00 -1.2902545e-03 0.0000000e+00 
0.0000000e+00 -1.0590203e-03 0.0000000e+00 
0.0000000e+00 -7.6171919e-04 0.0000000e+00 
0.0000000e+00 -3.9835108e-04 0.0000000e+00 
0.0000000e+00 3.1083942e-05 0.0000000e+00 
0.0000000e+00 5.2658591e-04 0.0000000e+00 
0.0000000e+00 1.0881547e-03 0.0000000e+00 
0.0000000e+00 1.7157905e-03 0.0000000e+00 
0.0000000e+00 2.4094933e-03 0.0000000e+00 
0.0000000e+00 3.1692628e-03 0.0000000e+00 
0.0000000e+00 1.8787144e-03 0.0000000e+00 
0.0000000e+00 8.0609211e-04 0.0000000e+00 
0.0000000e+00 -4.8603928e-05 0.0000000e+00 
0.0000000e+00 -6.8537373e-04 0.0000000e+00 
0.0000000e+00 -1.1042173e-03 0.0000000e+00 
0.0000000e+00 -1.3051346e-03 0.0000000e+00 
0.0000000e+00 -1.2881258e-03 0.0000000e+00 
0.0000000e+00 -1.0531907e-03 0.0000000e+00 
0.0000000e+00 -6.0032925e-04 0.0000000e+00 
0.0000000e+00 7.0458329e-05 0.0000000e+00 
0.0000000e+00 9.5917215e-04 0.0000000e+00 
0.0000000e+00 2.0658122e-03 0.0000000e+00 
0.0000000e+00 1.0876781e-03 0.0000000e+00 
0.0000000e+00 2.9060745e-04 0.0000000e+00 
0.0000000e+00 -3.2539986e-04 0.0000000e+00 
0.0000000e+00 -7.6034380e-04 0.0000000e+00 
0.0000000e+00 -1.0142244e-03 0.0000000e+00 
0.0000000e+00 -1.0870415e-03 0.0000000e+00 
0.0000000e+00 -9.7879523e-04 0.0000000e+00 
0.0000000e+00 -6.8948569e-04 0.0000000e+00 
0.0000000e+00 -2.1911270e-04 0.0000000e+00 
0.0000000e+00 4.3232366e-04 0.0000000e+00 
0.0000000e+00 1.2648235e-03 0.0000000e+00 
0.0000000e+00 2.2783866e-03 0.0000000e+00 
0.0000000e+00 1.2137798e-03 0.0000000e+00 
0.0000000e+00 3.4487876e-04 0.0000000e+00 
0.0000000e+00 -3.2831659e-04 0.0000000e+00 
0.0000000e+00 -8.0580625e-04 0.0000000e+00 
0.0000000e+00 -1.0875902e-03 0.0000000e+00 
0.0000000e+00 -1.1736685e-03 0.0000000e+00 
0.0000000e+00 -1.0640412e-03 0.0000000e+00 
0.0000000e+00 -7.5870811e-04 0.0000000e+00 
0.0000000e+00 -2.5766937e-04 0.0000000e+00 
0.0000000e+00 4.3907508e-04 0.0000000e+00 
0.0000000e+00 1.3315253e-03 0.0000000e+00 
0.0000000e+00 2.4196811e-03 0.0000000e+00 
0.0000000e+00 1.4340567e-03 0.0000000e+00 
0.0000000e+00 6.1472604e-04 0.0000000e+00 
0.0000000e+00 -3.8310860e-05 0.0000000e+00 
0.0000000e+00 -5.2505406e-04 0.0000000e+00 
0.0000000e+00 -8.4550359e-04 0.0000000e+00 
0.0000000e+00 -9.9965942e-04 0.0000000e+00 
0.0000000e+00 -9.8752149e-04 0.0000000e+00 
0.0000000e+00 -8.0908986e-04 0.0000000e+00 
0.0000000e+00 -4.6436451e-04 0.0000000e+00 
0.0000000e+00 4.6654546e-05 0.0000000e+00 
0.0000000e+00 7.2396733e-04 0.0000000e+00 
0.0000000e+00 1.5675738e-03 0.0000000e+00 
0.0000000e+00 3.1086773e-04 0.0000000e+00 
0.0000000e+00 -6.6117948e-04 0.0000000e+00 
0.0000000e+00 -1.3485678e-03 0.0000000e+00 
0.0000000e+00 -1.7512972e-03 0.0000000e+00 
0.0000000e+00 -1.8693677e-03 0.0000000e+00 
0.0000000e+00 -1.7027793e-03 0.0000000e+00 
0.0000000e+00 -1.2515321e-03 0.0000000e+00 
0.0000000e+00 -5.1562604e-04 0.0000000e+00 
0.0000000e+00 5.0493889e-04 0.0000000e+00 
0.0000000e+00 1.8101628e-03 0.0000000e+00 
0.0000000e+00 3.4000454e-03 0.0000000e+00 
0.0000000e+00 5.2745868e-03 0.0000000e+00 
0.0000000e+00 6.3945255e-03 0.0000000e+00 
0.0000000e+00 5.4749832e-03 0.0000000e+00 
0.0000000e+00 5.6521283e-03 0.0000000e+00 
0.0000000e+00 5.7698740e-03 0.0000000e+00 
0.0000000e+00 5.0597843e-03 0.0000000e+00 
0.0000000e+00 8.1489626e-03 0.0000000e+00 
0.0000000e+00 7.5724390e-03 0.0000000e+00 
0.0000000e+00 6.8368050e-03 0.0000000e+00 
0.0000000e+00 6.9785216e-03 0.0000000e+00 
0.0000000e+00 7.0727179e-03 0.0000000e+00 
0.0000000e+00 6.5046465e-03 0.0000000e+00 
0.0000000e+00 8.9759883e-03 0.0000000e+00 
0.0000000e+00 7.1124737e-03 0.0000000e+00 
0.0000000e+00 6.5607480e-03 0.0000000e+00 
0.0000000e+00 6.6670352e-03 0.0000000e+00 
0.0000000e+00 6.7376825e-03 0.0000000e+00 
0.0000000e+00 6.3116290e-03 0.0000000e+00 
0.0000000e+00 8.1651360e-03 0.0000000e+00 
0.0000000e+00 5.4240986e-03 0.0000000e+00 
0.0000000e+00 5.0562816e-03 0.0000000e+00 
0.0000000e+00 5.1271399e-03 0.0000000e+00 
0.0000000e+00 5.1742382e-03 0.0000000e+00 
0.0000000e+00 4.8902021e-03 0.0000000e+00 
0.0000000e+00 6.1258734e-03 0.0000000e+00 
0.0000000e+00 2.9167843e-03 0.0000000e+00 
0.0000000e+00 2.7328758e-03 0.0000000e+00 
0.0000000e+00 2.7683049e-03 0.0000000e+00 
0.0000000e+00 2.7918539e-03 0.0000000e+00 
0.0000000e+00 2.6498360e-03 0.0000000e+00 
0.0000000e+00 3.2676717e-03 0.0000000e+00 
0.0000000e+00 1.2187064e-16 0.0000000e+00 
0.0000000e+00 2.1327362e-16 0.0000000e+00 
0.0000000e+00 4.1893032e-16 0.0000000e+00 
0.0000000e+00 7.6169153e-17 0.0000000e+00 
0.0000000e+00 7.6169153e-17 0.0000000e+00 
0.0000000e+00 -5.6532256e-17 0.0000000e+00 
0.0000000e+00 -2.9167843e-03 0.0000000e+00 
0.0000000e+00 -2.7328758e-03 0.0000000e+00 
0.0000000e+00 -2.7683049e-03 0.0000000e+00 
0.0000000e+00 -2.7918539e-03 0.0000000e+00 
0.0000000e+00 -2.6498360e-03 0.0000000e+00 
0.0000000e+00 -3.2676717e-03 0.0000000e+00 
0.0000000e+00 -5.4240986e-03 0.0000000e+00 
0.0000000e+00 -5.0562816e-03 0.0000000e+00 
0.0000000e+00 -5.1271399e-03 0.0000000e+00 
0.0000000e+00 -5.1742382e-03 0.0000000e+00 
0.0000000e+00 -4.8902021e-03 0.0000000e+00 
0.0000000e+00 -6.1258734e-03 0.0000000e+00 
0.0000000e+00 -7.1124737e-03 0.0000000e+00 
0.0000000e+00 -6.5607480e-03 0.0000000e+00 
0.0000000e+00 -6.6670352e-03 0.0000000e+00 
0.0000000e+00 -6.7376825e-03 0.0000000e+00 
0.0000000e+00 -6.3116290e-03 0.0000000e+00 
0.0000000e+00 -8.1651360e-03 0.0000000e+00 
0.0000000e+00 -7.5724390e-03 0.0000000e+00 
0.0000000e+00 -6.8368050e-03 0.0000000e+00 
0.0000000e+00 -6.9785216e-03 0.0000000e+00 
0.0000000e+00 -7.0727179e-03 0.0000000e+00 
0.0000000e+00 -6.5046465e-03 0.0000000e+00 
0.0000000e+00 -8.9759883e-03 0.0000000e+00 
0.0000000e+00 -6.3945255e-03 0.0000000e+00 
0.0000000e+00 -5.4749832e-03 0.0000000e+00 
0.0000000e+00 -5.6521283e-03 0.0000000e+00 
0.0000000e+00 -5.7698740e-03 0.0000000e+00 
0.0000000e+00 -5.0597843e-03 0.0000000e+00 
0.0000000e+00 -8.1489626e-03 0.0000000e+00 
0.0000000e+00 1.5875557e-03 0.0000000e+00 
0.0000000e+00 1.5545223e-03 0.0000000e+00 
0.0000000e+00 1.4554219e-03 0.0000000e+00 
0.0000000e+00 1.2902545e-03 0.0000000e+00 
0.0000000e+00 1.0590203e-03 0.0000000e+00 
0.0000000e+00 7.6171919e-04 0.0000000e+00 
0.0000000e+00 3.9835108e-04 0.0000000e+00 
0.0000000e+00 -3.1083942e-05 0.0000000e+00 
0.0000000e+00 -5.2658591e-04 0.0000000e+00 
0.0000000e+00 -1.0881547e-03 0.0000000e+00 
0.0000000e+00 -1.7157905e-03 0.0000000e+00 
0.0000000e+00 -2.4094933e-03 0.0000000e+00 
0.0000000e+00 -3.1692628e-03 0.0000000e+00 
0.0000000e+00 -1.8787144e-03 0.0000000e+00 
0.0000000e+00 -8.0609211e-04 0.0000000e+00 
0.0000000e+00 4.8603928e-05 0.0000000e+00 
0.0000000e+00 6.8537373e-04 0.0000000e+00 
0.0000000e+00 1.1042173e-03 0.0000000e+00 
0.0000000e+00 1.3051346e-03 0.0000000e+00 
0.0000000e+00 1.2881258e-03 0.0000000e+00 
0.0000000e+00 1.0531907e-03 0.0000000e+00 
0.0000000e+00 6.0032925e-04 0.0000000e+00 
0.0000000e+00 -7.0458329e-05 0.0000000e+00 
0.0000000e+00 -9.5917215e-04 0.0000000e+00 
0.0000000e+00 -2.0658122e-03 0.0000000e+00 
0.0000000e+00 -1.0876781e-03 0.0000000e+00 
0.0000000e+00 -2.9060745e-04 0.0000000e+00 
0.0000000e+00 3.2539986e-04 0.0000000e+00 
0.0000000e+00 7.6034380e-04 0.0000000e+00 
0.0000000e+00 1.0142244e-03 0.0000000e+00 
0.0000000e+00 1.0870415e-03 0.0000000e+00 
0.0000000e+00 9.7879523e-04 0.0000000e+00 
0.0000000e+00 6.8948569e-04 0.0000000e+00 
0.0000000e+00 2.1911270e-04 0.0000000e+00 
0.0000000e+00 -4.3232366e-04 0.0000000e+00 
0.0000000e+00 -1.2648235e-03 0.0000000e+00 
0.0000000e+00 -2.2783866e-03 0.0000000e+00 
0.0000000e+00 -1.2137798e-03 0.0000000e+00 
0.0000000e+00 -3.4487876e-04 0.0000000e+00 
0.0000000e+00 3.2831659e-04 0.0000000e+00 
0.0000000e+00 8.0580625e-04 0.0000000e+00 
0.0000000e+00 1.0875902e-03 0.0000000e+00 
0.0000000e+00 1.1736685e-03 0.0000000e+00 
0.0000000e+00 1.0640412e-03 0.0000000e+00 
0.0000000e+00 7.5870811e-04 0.0000000e+00 
0.0000000e+00 2.5766937e-04 0.0000000e+00 
0.0000000e+00 -4.3907508e-04 0.0000000e+00 
0.0000000e+00 -1.3315253e-03 0.0000000e+00 
0.0000000e+00 -2.4196811e-03 0.0000000e+00 
0.0000000e+00 -1.4340567e-03 0.0000000e+00 
0.0000000e+00 -6.1472604e-04 0.0000000e+00 
0.0000000e+00 3.8310860e-05 0.0000000e+00 
0.0000000e+00 5.2505406e-04 0.0000000e+00 
0.0000000e+00 8.4550359e-04 0.0000000e+00 
0.0000000e+00 9.9965942e-04 0.0000000e+00 
0.0000000e+00 9.8752149e-04 0.0000000e+00 
0.0000000e+00 8.0908986e-04 0.0000000e+00 
0.0000000e+00 4.6436451e-04 0.0000000e+00 
0.0000000e+00 -4.6654546e-05 0.0000000e+00 
0.0000000e+00 -7.2396733e-04 0.0000000e+00 
0.0000000e+00 -1.5675738e-03 0.0000000e+00 
0.0000000e+00 -3.1086773e-04 0.0000000e+00 
0.0000000e+00 6.6117948e-04 0.0000000e+00 
0.0000000e+00 1.3485678e-03 0.0000000e+00 
0.0000000e+00 1.7512972e-03 0.0000000e+00 