# vtk DataFile Version 4.0
vtk output
ASCII
DATASET UNSTRUCTURED_GRID
POINTS 212 float
0.0000000e+00 0.0000000e+00 0.0000000e+00 
0.0000000e+00 0.0000000e+00 2.5000000e-01 
0.0000000e+00 0.0000000e+00 5.0000000e-01 
0.0000000e+00 0.0000000e+00 7.5000000e-01 
0.0000000e+00 0.0000000e+00 1.0000000e+00 
0.0000000e+00 0.0000000e+00 1.2500000e+00 
0.0000000e+00 0.0000000e+00 1.5000000e+00 
0.0000000e+00 0.0000000e+00 1.7500000e+00 
0.0000000e+00 0.0000000e+00 2.0000000e+00 
0.0000000e+00 0.0000000e+00 2.2500000e+00 
0.0000000e+00 0.0000000e+00 2.5000000e+00 
0.0000000e+00 0.0000000e+00 2.7500000e+00 
0.0000000e+00 0.0000000e+00 3.0000000e+00 
0.0000000e+00 0.0000000e+00 3.2500000e+00 
0.0000000e+00 0.0000000e+00 3.5000000e+00 
0.0000000e+00 0.0000000e+00 3.7500000e+00 
0.0000000e+00 0.0000000e+00 4.0000000e+00 
0.0000000e+00 0.0000000e+00 4.2500000e+00 
0.0000000e+00 0.0000000e+00 4.5000000e+00 
0.0000000e+00 0.0000000e+00 4.7500000e+00 
0.0000000e+00 0.0000000e+00 5.0000000e+00 
0.0000000e+00 0.0000000e+00 5.2500000e+00 
0.0000000e+00 0.0000000e+00 5.5000000e+00 
0.0000000e+00 0.0000000e+00 5.7500000e+00 
0.0000000e+00 0.0000000e+00 6.0000000e+00 
0.0000000e+00 0.0000000e+00 6.2500000e+00 
0.0000000e+00 0.0000000e+00 6.5000000e+00 
0.0000000e+00 0.0000000e+00 6.7500000e+00 
0.0000000e+00 0.0000000e+00 7.0000000e+00 
0.0000000e+00 0.0000000e+00 7.2500000e+00 
0.0000000e+00 0.0000000e+00 7.5000000e+00 
0.0000000e+00 0.0000000e+00 7.7500000e+00 
0.0000000e+00 0.0000000e+00 8.0000000e+00 
0.0000000e+00 0.0000000e+00 8.2500000e+00 
0.0000000e+00 0.0000000e+00 8.5000000e+00 
0.0000000e+00 0.0000000e+00 8.7500000e+00 
0.0000000e+00 0.0000000e+00 9.0000000e+00 
0.0000000e+00 0.0000000e+00 9.2500000e+00 
0.0000000e+00 0.0000000e+00 9.5000000e+00 
0.0000000e+00 0.0000000e+00 9.7500000e+00 
0.0000000e+00 0.0000000e+00 1.0000000e+01 
0.0000000e+00 0.0000000e+00 1.0250000e+01 
0.0000000e+00 0.0000000e+00 1.0500000e+01 
0.0000000e+00 0.0000000e+00 1.0750000e+01 
0.0000000e+00 0.0000000e+00 1.1000000e+01 
0.0000000e+00 0.0000000e+00 1.1250000e+01 
0.0000000e+00 0.0000000e+00 1.1500000e+01 
0.0000000e+00 0.0000000e+00 1.1750000e+01 
0.0000000e+00 0.0000000e+00 1.2000000e+01 
0.0000000e+00 0.0000000e+00 1.2250000e+01 
0.0000000e+00 0.0000000e+00 1.2500000e+01 
0.0000000e+00 0.0000000e+00 1.2750000e+01 
0.0000000e+00 0.0000000e+00 1.3000000e+01 
0.0000000e+00 0.0000000e+00 1.3250000e+01 
0.0000000e+00 0.0000000e+00 1.3500000e+01 
0.0000000e+00 0.0000000e+00 1.3750000e+01 
0.0000000e+00 0.0000000e+00 1.4000000e+01 
0.0000000e+00 0.0000000e+00 1.4250000e+01 
0.0000000e+00 0.0000000e+00 1.4500000e+01 
0.0000000e+00 0.0000000e+00 1.4750000e+01 
0.0000000e+00 0.0000000e+00 1.5000000e+01 
0.0000000e+00 0.0000000e+00 1.5250000e+01 
0.0000000e+00 0.0000000e+00 1.5500000e+01 
0.0000000e+00 0.0000000e+00 1.5750000e+01 
0.0000000e+00 0.0000000e+00 1.6000000e+01 
0.0000000e+00 0.0000000e+00 1.6250000e+01 
0.0000000e+00 0.0000000e+00 1.6500000e+01 
0.0000000e+00 0.0000000e+00 1.6750000e+01 
0.0000000e+00 0.0000000e+00 1.7000000e+01 
0.0000000e+00 0.0000000e+00 1.7250000e+01 
0.0000000e+00 0.0000000e+00 1.7500000e+01 
0.0000000e+00 0.0000000e+00 1.7750000e+01 
0.0000000e+00 0.0000000e+00 1.8000000e+01 
5.0000000e-01 0.0000000e+00 3.0000000e+00 
5.0000000e-01 0.0000000e+00 6.0000000e+00 
5.0000000e-01 0.0000000e+00 9.0000000e+00 
5.0000000e-01 0.0000000e+00 1.2000000e+01 
5.0000000e-01 0.0000000e+00 1.5000000e+01 
5.0000000e-01 0.0000000e+00 1.8000000e+01 
1.0000000e+00 0.0000000e+00 3.0000000e+00 
1.0000000e+00 0.0000000e+00 6.0000000e+00 
1.0000000e+00 0.0000000e+00 9.0000000e+00 
1.0000000e+00 0.0000000e+00 1.2000000e+01 
1.0000000e+00 0.0000000e+00 1.5000000e+01 
1.0000000e+00 0.0000000e+00 1.8000000e+01 
1.5000000e+00 0.0000000e+00 3.0000000e+00 
1.5000000e+00 0.0000000e+00 6.0000000e+00 
1.5000000e+00 0.0000000e+00 9.0000000e+00 
1.5000000e+00 0.0000000e+00 1.2000000e+01 
1.5000000e+00 0.0000000e+00 1.5000000e+01 
1.5000000e+00 0.0000000e+00 1.8000000e+01 
2.0000000e+00 0.0000000e+00 3.0000000e+00 
2.0000000e+00 0.0000000e+00 6.0000000e+00 
2.0000000e+00 0.0000000e+00 9.0000000e+00 
2.0000000e+00 0.0000000e+00 1.2000000e+01 
2.0000000e+00 0.0000000e+00 1.5000000e+01 
2.0000000e+00 0.0000000e+00 1.8000000e+01 
2.5000000e+00 0.0000000e+00 3.0000000e+00 
2.5000000e+00 0.0000000e+00 6.0000000e+00 
2.5000000e+00 0.0000000e+00 9.0000000e+00 
2.5000000e+00 0.0000000e+00 1.2000000e+01 
2.5000000e+00 0.0000000e+00 1.5000000e+01 
2.5000000e+00 0.0000000e+00 1.8000000e+01 
3.0000000e+00 0.0000000e+00 3.0000000e+00 
3.0000000e+00 0.0000000e+00 6.0000000e+00 
3.0000000e+00 0.0000000e+00 9.0000000e+00 
3.0000000e+00 0.0000000e+00 1.2000000e+01 
3.0000000e+00 0.0000000e+00 1.5000000e+01 
3.0000000e+00 0.0000000e+00 1.8000000e+01 
3.5000000e+00 0.0000000e+00 3.0000000e+00 
3.5000000e+00 0.0000000e+00 6.0000000e+00 
3.5000000e+00 0.0000000e+00 9.0000000e+00 
3.5000000e+00 0.0000000e+00 1.2000000e+01 
3.5000000e+00 0.0000000e+00 1.5000000e+01 
3.5000000e+00 0.0000000e+00 1.8000000e+01 
4.0000000e+00 0.0000000e+00 3.0000000e+00 
4.0000000e+00 0.0000000e+00 6.0000000e+00 
4.0000000e+00 0.0000000e+00 9.0000000e+00 
4.0000000e+00 0.0000000e+00 1.2000000e+01 
4.0000000e+00 0.0000000e+00 1.5000000e+01 
4.0000000e+00 0.0000000e+00 1.8000000e+01 
4.5000000e+00 0.0000000e+00 3.0000000e+00 
4.5000000e+00 0.0000000e+00 6.0000000e+00 
4.5000000e+00 0.0000000e+00 9.0000000e+00 
4.5000000e+00 0.0000000e+00 1.2000000e+01 
4.5000000e+00 0.0000000e+00 1.5000000e+01 
4.5000000e+00 0.0000000e+00 1.8000000e+01 
5.0000000e+00 0.0000000e+00 3.0000000e+00 
5.0000000e+00 0.0000000e+00 6.0000000e+00 
5.0000000e+00 0.0000000e+00 9.0000000e+00 
5.0000000e+00 0.0000000e+00 1.2000000e+01 
5.0000000e+00 0.0000000e+00 1.5000000e+01 
5.0000000e+00 0.0000000e+00 1.8000000e+01 
5.5000000e+00 0.0000000e+00 3.0000000e+00 
5.5000000e+00 0.0000000e+00 6.0000000e+00 
5.5000000e+00 0.0000000e+00 9.0000000e+00 
5.5000000e+00 0.0000000e+00 1.2000000e+01 
5.5000000e+00 0.0000000e+00 1.5000000e+01 
5.5000000e+00 0.0000000e+00 1.8000000e+01 
6.0000000e+00 0.0000000e+00 0.0000000e+00 
6.0000000e+00 0.0000000e+00 2.5000000e-01 
6.0000000e+00 0.0000000e+00 5.0000000e-01 
6.0000000e+00 0.0000000e+00 7.5000000e-01 
6.0000000e+00 0.0000000e+00 1.0000000e+00 
6.0000000e+00 0.0000000e+00 1.2500000e+00 
6.0000000e+00 0.0000000e+00 1.5000000e+00 
6.0000000e+00 0.0000000e+00 1.7500000e+00 
6.0000000e+00 0.0000000e+00 2.0000000e+00 
6.0000000e+00 0.0000000e+00 2.2500000e+00 
6.0000000e+00 0.0000000e+00 2.5000000e+00 
6.0000000e+00 0.0000000e+00 2.7500000e+00 
6.0000000e+00 0.0000000e+00 3.0000000e+00 
6.0000000e+00 0.0000000e+00 3.2500000e+00 
6.0000000e+00 0.0000000e+00 3.5000000e+00 
6.0000000e+00 0.0000000e+00 3.7500000e+00 
6.0000000e+00 0.0000000e+00 4.0000000e+00 
6.0000000e+00 0.0000000e+00 4.2500000e+00 
6.0000000e+00 0.0000000e+00 4.5000000e+00 
6.0000000e+00 0.0000000e+00 4.7500000e+00 
6.0000000e+00 0.0000000e+00 5.0000000e+00 
6.0000000e+00 0.0000000e+00 5.2500000e+00 
6.0000000e+00 0.0000000e+00 5.5000000e+00 
6.0000000e+00 0.0000000e+00 5.7500000e+00 
6.0000000e+00 0.0000000e+00 6.0000000e+00 
6.0000000e+00 0.0000000e+00 6.2500000e+00 
6.0000000e+00 0.0000000e+00 6.5000000e+00 
6.0000000e+00 0.0000000e+00 6.7500000e+00 
6.0000000e+00 0.0000000e+00 7.0000000e+00 
6.0000000e+00 0.0000000e+00 7.2500000e+00 
6.0000000e+00 0.0000000e+00 7.5000000e+00 
6.0000000e+00 0.0000000e+00 7.7500000e+00 
6.0000000e+00 0.0000000e+00 8.0000000e+00 
6.0000000e+00 0.0000000e+00 8.2500000e+00 
6.0000000e+00 0.0000000e+00 8.5000000e+00 
6.0000000e+00 0.0000000e+00 8.7500000e+00 
6.0000000e+00 0.0000000e+00 9.0000000e+00 
6.0000000e+00 0.0000000e+00 9.2500000e+00 
6.0000000e+00 0.0000000e+00 9.5000000e+00 
6.0000000e+00 0.0000000e+00 9.7500000e+00 
6.0000000e+00 0.0000000e+00 1.0000000e+01 
6.0000000e+00 0.0000000e+00 1.0250000e+01 
6.0000000e+00 0.0000000e+00 1.0500000e+01 
6.0000000e+00 0.0000000e+00 1.0750000e+01 
6.0000000e+00 0.0000000e+00 1.1000000e+01 
6.0000000e+00 0.0000000e+00 1.1250000e+01 
6.0000000e+00 0.0000000e+00 1.1500000e+01 
6.0000000e+00 0.0000000e+00 1.1750000e+01 
6.0000000e+00 0.0000000e+00 1.2000000e+01 
6.0000000e+00 0.0000000e+00 1.2250000e+01 
6.0000000e+00 0.0000000e+00 1.2500000e+01 
6.0000000e+00 0.0000000e+00 1.2750000e+01 
6.0000000e+00 0.0000000e+00 1.3000000e+01 
6.0000000e+00 0.0000000e+00 1.3250000e+01 
6.0000000e+00 0.0000000e+00 1.3500000e+01 
6.0000000e+00 0.0000000e+00 1.3750000e+01 
6.0000000e+00 0.0000000e+00 1.4000000e+01 
6.0000000e+00 0.0000000e+00 1.4250000e+01 
6.0000000e+00 0.0000000e+00 1.4500000e+01 
6.0000000e+00 0.0000000e+00 1.4750000e+01 
6.0000000e+00 0.0000000e+00 1.5000000e+01 
6.0000000e+00 0.0000000e+00 1.5250000e+01 
6.0000000e+00 0.0000000e+00 1.5500000e+01 
6.0000000e+00 0.0000000e+00 1.5750000e+01 
6.0000000e+00 0.0000000e+00 1.6000000e+01 
6.0000000e+00 0.0000000e+00 1.6250000e+01 
6.0000000e+00 0.0000000e+00 1.6500000e+01 
6.0000000e+00 0.0000000e+00 1.6750000e+01 
6.0000000e+00 0.0000000e+00 1.7000000e+01 
6.0000000e+00 0.0000000e+00 1.7250000e+01 
6.0000000e+00 0.0000000e+00 1.7500000e+01 
6.0000000e+00 0.0000000e+00 1.7750000e+01 
6.0000000e+00 0.0000000e+00 1.8000000e+01 

CELLS 216 648
2 0 1
2 1 2
2 2 3
2 3 4
2 4 5
2 5 6
2 6 7
2 7 8
2 8 9
2 9 10
2 10 11
2 11 12
2 12 13
2 13 14
2 14 15
2 15 16
2 16 17
2 17 18
2 18 19
2 19 20
2 20 21
2 21 22
2 22 23
2 23 24
2 24 25
2 25 26
2 26 27
2 27 28
2 28 29
2 29 30
2 30 31
2 31 32
2 32 33
2 33 34
2 34 35
2 35 36
2 36 37
2 37 38
2 38 39
2 39 40
2 40 41
2 41 42
2 42 43
2 43 44
2 44 45
2 45 46
2 46 47
2 47 48
2 48 49
2 49 50
2 50 51
2 51 52
2 52 53
2 53 54
2 54 55
2 55 56
2 56 57
2 57 58
2 58 59
2 59 60
2 60 61
2 61 62
2 62 63
2 63 64
2 64 65
2 65 66
2 66 67
2 67 68
2 68 69
2 69 70
2 70 71
2 71 72
2 139 140
2 140 141
2 141 142
2 142 143
2 143 144
2 144 145
2 145 146
2 146 147
2 147 148
2 148 149
2 149 150
2 150 151
2 151 152
2 152 153
2 153 154
2 154 155
2 155 156
2 156 157
2 157 158
2 158 159
2 159 160
2 160 161
2 161 162
2 162 163
2 163 164
2 164 165
2 165 166
2 166 167
2 167 168
2 168 169
2 169 170
2 170 171
2 171 172
2 172 173
2 173 174
2 174 175
2 175 176
2 176 177
2 177 178
2 178 179
2 179 180
2 180 181
2 181 182
2 182 183
2 183 184
2 184 185
2 185 186
2 186 187
2 187 188
2 188 189
2 189 190
2 190 191
2 191 192
2 192 193
2 193 194
2 194 195
2 195 196
2 196 197
2 197 198
2 198 199
2 199 200
2 200 201
2 201 202
2 202 203
2 203 204
2 204 205
2 205 206
2 206 207
2 207 208
2 208 209
2 209 210
2 210 211
2 12 73
2 73 79
2 79 85
2 85 91
2 91 97
2 97 103
2 103 109
2 109 115
2 115 121
2 121 127
2 127 133
2 133 151
2 24 74
2 74 80
2 80 86
2 86 92
2 92 98
2 98 104
2 104 110
2 110 116
2 116 122
2 122 128
2 128 134
2 134 163
2 36 75
2 75 81
2 81 87
2 87 93
2 93 99
2 99 105
2 105 111
2 111 117
2 117 123
2 123 129
2 129 135
2 135 175
2 48 76
2 76 82
2 82 88
2 88 94
2 94 100
2 100 106
2 106 112
2 112 118
2 118 124
2 124 130
2 130 136
2 136 187
2 60 77
2 77 83
2 83 89
2 89 95
2 95 101
2 101 107
2 107 113
2 113 119
2 119 125
2 125 131
2 131 137
2 137 199
2 72 78
2 78 84
2 84 90
2 90 96
2 96 102
2 102 108
2 108 114
2 114 120
2 120 126
2 126 132
2 132 138
2 138 211

CELL_TYPES 216
3
3
3
3
3
3
3
3
3
3
3
3
3
3
3
3
3
3
3
3
3
3
3
3
3
3
3
3
3
3
3
3
3
3
3
3
3
3
3
3
3
3
3
3
3
3
3
3
3
3
3
3
3
3
3
3
3
3
3
3
3
3
3
3
3
3
3
3
3
3
3
3
3
3
3
3
3
3
3
3
3
3
3
3
3
3
3
3
3
3
3
3
3
3
3
3
3
3
3
3
3
3
3
3
3
3
3
3
3
3
3
3
3
3
3
3
3
3
3
3
3
3
3
3
3
3
3
3
3
3
3
3
3
3
3
3
3
3
3
3
3
3
3
3
3
3
3
3
3
3
3
3
3
3
3
3
3
3
3
3
3
3
3
3
3
3
3
3
3
3
3
3
3
3
3
3
3
3
3
3
3
3
3
3
3
3
3
3
3
3
3
3
3
3
3
3
3
3
3
3
3
3
3
3
3
3
3
3
3
3
3
3
3
3
3
3
POINT_DATA 212
FIELD FieldData 8
DISPLACEMENT 3 212  float
0.0000000e+00 0.0000000e+00 0.0000000e+00 
-1.5826160e-04 0.0000000e+00 -1.1182377e-05 
-3.0989255e-04 0.0000000e+00 -2.2286971e-05 
-4.4826226e-04 0.0000000e+00 -3.3313787e-05 
-5.6674011e-04 0.0000000e+00 -4.4262819e-05 
-6.5869541e-04 0.0000000e+00 -5.5134067e-05 
-7.1749755e-04 0.0000000e+00 -6.5927539e-05 
-7.3651597e-04 0.0000000e+00 -7.6643228e-05 
-7.0911995e-04 0.0000000e+00 -8.7281129e-05 
-6.2867888e-04 0.0000000e+00 -9.7841257e-05 
-4.8856222e-04 0.0000000e+00 -1.0832360e-04 
-2.8213920e-04 0.0000000e+00 -1.1872816e-04 
-2.7792969e-06 0.0000000e+00 -1.2905494e-04 
2.4869287e-04 0.0000000e+00 -1.3836710e-04 
3.8160937e-04 0.0000000e+00 -1.4760149e-04 
4.1783592e-04 0.0000000e+00 -1.5675809e-04 
3.7923828e-04 0.0000000e+00 -1.6583691e-04 
2.8768217e-04 0.0000000e+00 -1.7483796e-04 
1.6503331e-04 0.0000000e+00 -1.8376121e-04 
3.3157481e-05 0.0000000e+00 -1.9260669e-04 
-8.6079621e-05 0.0000000e+00 -2.0137438e-04 
-1.7081224e-04 0.0000000e+00 -2.1006430e-04 
-1.9917467e-04 0.0000000e+00 -2.1867643e-04 
-1.4930114e-04 0.0000000e+00 -2.2721078e-04 
6.7406449e-07 0.0000000e+00 -2.3566735e-04 
1.5739287e-04 0.0000000e+00 -2.4310930e-04 
2.2503392e-04 0.0000000e+00 -2.5047347e-04 
2.2176791e-04 0.0000000e+00 -2.5775988e-04 
1.6576565e-04 0.0000000e+00 -2.6496849e-04 
7.5197888e-05 0.0000000e+00 -2.7209931e-04 
-3.1764645e-05 0.0000000e+00 -2.7915236e-04 
-1.3695117e-04 0.0000000e+00 -2.8612762e-04 
-2.2219095e-04 0.0000000e+00 -2.9302511e-04 
-2.6931323e-04 0.0000000e+00 -2.9984480e-04 
-2.6014721e-04 0.0000000e+00 -3.0658673e-04 
-1.7652220e-04 0.0000000e+00 -3.1325087e-04 
-2.6739895e-07 0.0000000e+00 -3.1983721e-04 
1.7331226e-04 0.0000000e+00 -3.2540897e-04 
2.4988904e-04 0.0000000e+00 -3.3090293e-04 
2.4909948e-04 0.0000000e+00 -3.3631912e-04 
1.9058012e-04 0.0000000e+00 -3.4165752e-04 
9.3967516e-05 0.0000000e+00 -3.4691812e-04 
-2.1101803e-05 0.0000000e+00 -3.5210096e-04 
-1.3499129e-04 0.0000000e+00 -3.5720601e-04 
-2.2806443e-04 0.0000000e+00 -3.6223329e-04 
-2.8068465e-04 0.0000000e+00 -3.6718277e-04 
-2.7321541e-04 0.0000000e+00 -3.7205449e-04 
-1.8602019e-04 0.0000000e+00 -3.7684842e-04 
5.3755548e-07 0.0000000e+00 -3.8156458e-04 
1.9247321e-04 0.0000000e+00 -3.8526609e-04 
2.9383766e-04 0.0000000e+00 -3.8888984e-04 
3.2132075e-04 0.0000000e+00 -3.9243582e-04 
2.9161235e-04 0.0000000e+00 -3.9590400e-04 
2.2140234e-04 0.0000000e+00 -3.9929440e-04 
1.2738054e-04 0.0000000e+00 -4.0260702e-04 
2.6236816e-05 0.0000000e+00 -4.0584189e-04 
-6.5338980e-05 0.0000000e+00 -4.0899892e-04 
-1.3065699e-04 0.0000000e+00 -4.1207823e-04 
-1.5302736e-04 0.0000000e+00 -4.1507970e-04 
-1.1576023e-04 0.0000000e+00 -4.1800344e-04 
-2.1657584e-06 0.0000000e+00 -4.2084936e-04 
8.9733549e-05 0.0000000e+00 -4.2268069e-04 
6.9829774e-05 0.0000000e+00 -4.2443423e-04 
-3.3315322e-05 0.0000000e+00 -4.2611000e-04 
-1.9113997e-04 0.0000000e+00 -4.2770797e-04 
-3.7508243e-04 0.0000000e+00 -4.2922815e-04 
-5.5658090e-04 0.0000000e+00 -4.3067057e-04 
-7.0707360e-04 0.0000000e+00 -4.3203519e-04 
-7.9799886e-04 0.0000000e+00 -4.3332204e-04 
-8.0079481e-04 0.0000000e+00 -4.3453113e-04 
-6.8689976e-04 0.0000000e+00 -4.3566240e-04 
-4.2775195e-04 0.0000000e+00 -4.3671590e-04 
5.2104406e-06 0.0000000e+00 -4.3769163e-04 
-2.3160808e-06 0.0000000e+00 -1.1263801e-03 
5.6172041e-07 0.0000000e+00 -1.0299985e-03 
-2.2283245e-07 0.0000000e+00 -1.1532404e-03 
4.4796289e-07 0.0000000e+00 -1.2409239e-03 
-1.8047986e-06 0.0000000e+00 -1.1235264e-03 
4.3420341e-06 0.0000000e+00 -1.8224948e-03 
-1.8528646e-06 0.0000000e+00 -2.5586195e-03 
4.4937633e-07 0.0000000e+00 -2.2961521e-03 
-1.7826596e-07 0.0000000e+00 -2.4513619e-03 
3.5837033e-07 0.0000000e+00 -2.5602824e-03 
-1.4438389e-06 0.0000000e+00 -2.3146903e-03 
3.4736272e-06 0.0000000e+00 -3.5717618e-03 
-1.3896484e-06 0.0000000e+00 -4.0560258e-03 
3.3703225e-07 0.0000000e+00 -3.6643802e-03 
-1.3369947e-07 0.0000000e+00 -3.8444542e-03 
2.6877774e-07 0.0000000e+00 -3.9698919e-03 
-1.0828792e-06 0.0000000e+00 -3.6245929e-03 
2.6052203e-06 0.0000000e+00 -5.3157448e-03 
-9.2643228e-07 0.0000000e+00 -5.3310171e-03 
2.2468816e-07 0.0000000e+00 -4.8471014e-03 
-8.9132982e-08 0.0000000e+00 -5.0449353e-03 
1.7918516e-07 0.0000000e+00 -5.1821717e-03 
-7.2191943e-07 0.0000000e+00 -4.7656531e-03 
1.7368136e-06 0.0000000e+00 -6.7668627e-03 
-4.6321614e-07 0.0000000e+00 -6.1781779e-03 
1.1234408e-07 0.0000000e+00 -5.6389002e-03 
-4.4566491e-08 0.0000000e+00 -5.8473903e-03 
8.9592582e-08 0.0000000e+00 -5.9917052e-03 
-3.6095972e-07 0.0000000e+00 -5.5324556e-03 
8.6840680e-07 0.0000000e+00 -7.7196993e-03 
1.1450780e-15 0.0000000e+00 -6.4742593e-03 
1.6820635e-15 0.0000000e+00 -5.9165279e-03 
1.5247599e-15 0.0000000e+00 -6.1285696e-03 
9.9350972e-16 0.0000000e+00 -6.2752445e-03 
3.5409291e-16 0.0000000e+00 -5.8017508e-03 
2.4272481e-16 0.0000000e+00 -8.0510061e-03 
4.6321614e-07 0.0000000e+00 -6.1781779e-03 
-1.1234408e-07 0.0000000e+00 -5.6389002e-03 
4.4566491e-08 0.0000000e+00 -5.8473903e-03 
-8.9592582e-08 0.0000000e+00 -5.9917052e-03 
3.6095972e-07 0.0000000e+00 -5.5324556e-03 
-8.6840680e-07 0.0000000e+00 -7.7196993e-03 
9.2643228e-07 0.0000000e+00 -5.3310171e-03 
-2.2468816e-07 0.0000000e+00 -4.8471014e-03 
8.9132982e-08 0.0000000e+00 -5.0449353e-03 
-1.7918516e-07 0.0000000e+00 -5.1821717e-03 
7.2191943e-07 0.0000000e+00 -4.7656531e-03 
-1.7368136e-06 0.0000000e+00 -6.7668627e-03 
1.3896484e-06 0.0000000e+00 -4.0560258e-03 
-3.3703225e-07 0.0000000e+00 -3.6643802e-03 
1.3369947e-07 0.0000000e+00 -3.8444542e-03 
-2.6877774e-07 0.0000000e+00 -3.9698919e-03 
1.0828792e-06 0.0000000e+00 -3.6245929e-03 
-2.6052203e-06 0.0000000e+00 -5.3157448e-03 
1.8528646e-06 0.0000000e+00 -2.5586195e-03 
-4.4937633e-07 0.0000000e+00 -2.2961521e-03 
1.7826596e-07 0.0000000e+00 -2.4513619e-03 
-3.5837033e-07 0.0000000e+00 -2.5602824e-03 
1.4438389e-06 0.0000000e+00 -2.3146903e-03 
-3.4736272e-06 0.0000000e+00 -3.5717618e-03 
2.3160808e-06 0.0000000e+00 -1.1263801e-03 
-5.6172041e-07 0.0000000e+00 -1.0299985e-03 
2.2283245e-07 0.0000000e+00 -1.1532404e-03 
-4.4796289e-07 0.0000000e+00 -1.2409239e-03 
1.8047986e-06 0.0000000e+00 -1.1235264e-03 
-4.3420341e-06 0.0000000e+00 -1.8224948e-03 
0.0000000e+00 0.0000000e+00 0.0000000e+00 
1.5826160e-04 0.0000000e+00 -1.1182377e-05 
3.0989255e-04 0.0000000e+00 -2.2286971e-05 
4.4826226e-04 0.0000000e+00 -3.3313787e-05 
5.6674011e-04 0.0000000e+00 -4.4262819e-05 
6.5869541e-04 0.0000000e+00 -5.5134067e-05 
7.1749755e-04 0.0000000e+00 -6.5927539e-05 
7.3651597e-04 0.0000000e+00 -7.6643228e-05 
7.0911995e-04 0.0000000e+00 -8.7281129e-05 
6.2867888e-04 0.0000000e+00 -9.7841257e-05 
4.8856222e-04 0.0000000e+00 -1.0832360e-04 
2.8213920e-04 0.0000000e+00 -1.1872816e-04 
2.7792969e-06 0.0000000e+00 -1.2905494e-04 
-2.4869287e-04 0.0000000e+00 -1.3836710e-04 
-3.8160937e-04 0.0000000e+00 -1.4760149e-04 
-4.1783592e-04 0.0000000e+00 -1.5675809e-04 
-3.7923828e-04 0.0000000e+00 -1.6583691e-04 
-2.8768217e-04 0.0000000e+00 -1.7483796e-04 
-1.6503331e-04 0.0000000e+00 -1.8376121e-04 
-3.3157481e-05 0.0000000e+00 -1.9260669e-04 
8.6079621e-05 0.0000000e+00 -2.0137438e-04 
1.7081224e-04 0.0000000e+00 -2.1006430e-04 
1.9917467e-04 0.0000000e+00 -2.1867643e-04 
1.4930114e-04 0.0000000e+00 -2.2721078e-04 
-6.7406449e-07 0.0000000e+00 -2.3566735e-04 
-1.5739287e-04 0.0000000e+00 -2.4310930e-04 
-2.2503392e-04 0.0000000e+00 -2.5047347e-04 
-2.2176791e-04 0.0000000e+00 -2.5775988e-04 
-1.6576565e-04 0.0000000e+00 -2.6496849e-04 
-7.5197888e-05 0.0000000e+00 -2.7209931e-04 
3.1764645e-05 0.0000000e+00 -2.7915236e-04 
1.3695117e-04 0.0000000e+00 -2.8612762e-04 
2.2219095e-04 0.0000000e+00 -2.9302511e-04 
2.6931323e-04 0.0000000e+00 -2.9984480e-04 
2.6014721e-04 0.0000000e+00 -3.0658673e-04 
1.7652220e-04 0.0000000e+00 -3.1325087e-04 
2.6739895e-07 0.0000000e+00 -3.1983721e-04 
-1.7331226e-04 0.0000000e+00 -3.2540897e-04 
-2.4988904e-04 0.0000000e+00 -3.3090293e-04 
-2.4909948e-04 0.0000000e+00 -3.3631912e-04 
-1.9058012e-04 0.0000000e+00 -3.4165752e-04 
-9.3967516e-05 0.0000000e+00 -3.4691812e-04 
2.1101803e-05 0.0000000e+00 -3.5210096e-04 
1.3499129e-04 0.0000000e+00 -3.5720601e-04 
2.2806443e-04 0.0000000e+00 -3.6223329e-04 
2.8068465e-04 0.0000000e+00 -3.6718277e-04 
2.7321541e-04 0.0000000e+00 -3.7205449e-04 
1.8602019e-04 0.0000000e+00 -3.7684842e-04 
-5.3755548e-07 0.0000000e+00 -3.8156458e-04 
-1.9247321e-04 0.0000000e+00 -3.8526609e-04 
-2.9383766e-04 0.0000000e+00 -3.8888984e-04 
-3.2132075e-04 0.0000000e+00 -3.9243582e-04 
-2.9161235e-04 0.0000000e+00 -3.9590400e-04 
-2.2140234e-04 0.0000000e+00 -3.9929440e-04 
-1.2738054e-04 0.0000000e+00 -4.0260702e-04 
-2.6236816e-05 0.0000000e+00 -4.0584189e-04 
6.5338980e-05 0.0000000e+00 -4.0899892e-04 
1.3065699e-04 0.0000000e+00 -4.1207823e-04 
1.5302736e-04 0.0000000e+00 -4.1507970e-04 
1.1576023e-04 0.0000000e+00 -4.1800344e-04 
2.1657584e-06 0.0000000e+00 -4.2084936e-04 
-8.9733549e-05 0.0000000e+00 -4.2268069e-04 
-6.9829774e-05 0.0000000e+00 -4.2443423e-04 
3.3315322e-05 0.0000000e+00 -4.2611000e-04 
1.9113997e-04 0.0000000e+00 -4.2770797e-04 
3.7508243e-04 0.0000000e+00 -4.2922815e-04 
5.5658090e-04 0.0000000e+00 -4.3067057e-04 
7.0707360e-04 0.0000000e+00 -4.3203519e-04 
7.9799886e-04 0.0000000e+00 -4.3332204e-04 
8.0079481e-04 0.0000000e+00 -4.3453113e-04 
6.8689976e-04 0.0000000e+00 -4.3566240e-04 
4.2775195e-04 0.0000000e+00 -4.3671590e-04 
-5.2104406e-06 0.0000000e+00 -4.3769163e-04 
ROTATION 3 212  float
0.0000000e+00 -6.3746679e-04 0.0000000e+00 
0.0000000e+00 -6.2420557e-04 0.0000000e+00 
0.0000000e+00 -5.8442180e-04 0.0000000e+00 
0.0000000e+00 -5.1811547e-04 0.0000000e+00 
0.0000000e+00 -4.2528668e-04 0.0000000e+00 
0.0000000e+00 -3.0593536e-04 0.0000000e+00 
0.0000000e+00 -1.6006152e-04 0.0000000e+00 
0.0000000e+00 1.2334825e-05 0.0000000e+00 
0.0000000e+00 2.1125369e-04 0.0000000e+00 
0.0000000e+00 4.3669509e-04 0.0000000e+00 
0.0000000e+00 6.8865897e-04 0.0000000e+00 
0.0000000e+00 9.6714537e-04 0.0000000e+00 
0.0000000e+00 1.2721543e-03 0.0000000e+00 
0.0000000e+00 7.5420015e-04 0.0000000e+00 
0.0000000e+00 3.2370895e-04 0.0000000e+00 
0.0000000e+00 -1.9319332e-05 0.0000000e+00 
0.0000000e+00 -2.7488466e-04 0.0000000e+00 
0.0000000e+00 -4.4298708e-04 0.0000000e+00 
0.0000000e+00 -5.2362651e-04 0.0000000e+00 
0.0000000e+00 -5.1680306e-04 0.0000000e+00 
0.0000000e+00 -4.2251660e-04 0.0000000e+00 
0.0000000e+00 -2.4076724e-04 0.0000000e+00 
0.0000000e+00 2.8445058e-05 0.0000000e+00 
0.0000000e+00 3.8512031e-04 0.0000000e+00 
0.0000000e+00 8.2925847e-04 0.0000000e+00 
0.0000000e+00 4.3660586e-04 0.0000000e+00 
0.0000000e+00 1.1663624e-04 0.0000000e+00 
0.0000000e+00 -1.3065034e-04 0.0000000e+00 
0.0000000e+00 -3.0525390e-04 0.0000000e+00 
0.0000000e+00 -4.0717443e-04 0.0000000e+00 
0.0000000e+00 -4.3641197e-04 0.0000000e+00 
0.0000000e+00 -3.9296647e-04 0.0000000e+00 
0.0000000e+00 -2.7683793e-04 0.0000000e+00 
0.0000000e+00 -8.8026369e-05 0.0000000e+00 
0.0000000e+00 1.7346820e-04 0.0000000e+00 
0.0000000e+00 5.0764583e-04 0.0000000e+00 
0.0000000e+00 9.1450644e-04 0.0000000e+00 
0.0000000e+00 4.8722184e-04 0.0000000e+00 
0.0000000e+00 1.3848342e-04 0.0000000e+00 
0.0000000e+00 -1.3170885e-04 0.0000000e+00 
0.0000000e+00 -3.2335494e-04 0.0000000e+00 
0.0000000e+00 -4.3645489e-04 0.0000000e+00 
0.0000000e+00 -4.7100865e-04 0.0000000e+00 
0.0000000e+00 -4.2701626e-04 0.0000000e+00 
0.0000000e+00 -3.0447773e-04 0.0000000e+00 
0.0000000e+00 -1.0339300e-04 0.0000000e+00 
0.0000000e+00 1.7623787e-04 0.0000000e+00 
0.0000000e+00 5.3441490e-04 0.0000000e+00 
0.0000000e+00 9.7113813e-04 0.0000000e+00 
0.0000000e+00 5.7547359e-04 0.0000000e+00 
0.0000000e+00 2.4656852e-04 0.0000000e+00 
0.0000000e+00 -1.5577138e-05 0.0000000e+00 
0.0000000e+00 -2.1096338e-04 0.0000000e+00 
0.0000000e+00 -3.3959022e-04 0.0000000e+00 
0.0000000e+00 -4.0145763e-04 0.0000000e+00 
0.0000000e+00 -3.9656562e-04 0.0000000e+00 
0.0000000e+00 -3.2491417e-04 0.0000000e+00 
0.0000000e+00 -1.8650333e-04 0.0000000e+00 
0.0000000e+00 1.8666940e-05 0.0000000e+00 
0.0000000e+00 2.9059662e-04 0.0000000e+00 
0.0000000e+00 6.2928576e-04 0.0000000e+00 
0.0000000e+00 1.2494989e-04 0.0000000e+00 
0.0000000e+00 -2.6513892e-04 0.0000000e+00 
0.0000000e+00 -5.4098066e-04 0.0000000e+00 
0.0000000e+00 -7.0257537e-04 0.0000000e+00 
0.0000000e+00 -7.4992300e-04 0.0000000e+00 
0.0000000e+00 -6.8302359e-04 0.0000000e+00 
0.0000000e+00 -5.0187710e-04 0.0000000e+00 
0.0000000e+00 -2.0648360e-04 0.0000000e+00 
0.0000000e+00 2.0315697e-04 0.0000000e+00 
0.0000000e+00 7.2704459e-04 0.0000000e+00 
0.0000000e+00 1.3651793e-03 0.0000000e+00 
0.0000000e+00 2.1175609e-03 0.0000000e+00 
0.0000000e+00 2.5665083e-03 0.0000000e+00 
0.0000000e+00 2.1974284e-03 0.0000000e+00 
0.0000000e+00 2.2684683e-03 0.0000000e+00 
0.0000000e+00 2.3156614e-03 0.0000000e+00 
0.0000000e+00 2.0307845e-03 0.0000000e+00 
0.0000000e+00 3.2710137e-03 0.0000000e+00 
0.0000000e+00 3.0392006e-03 0.0000000e+00 
0.0000000e+00 2.7439366e-03 0.0000000e+00 
0.0000000e+00 2.8007685e-03 0.0000000e+00 
0.0000000e+00 2.8385231e-03 0.0000000e+00 
0.0000000e+00 2.6106215e-03 0.0000000e+00 
0.0000000e+00 3.6028048e-03 0.0000000e+00 
0.0000000e+00 2.8545635e-03 0.0000000e+00 
0.0000000e+00 2.6331155e-03 0.0000000e+00 
0.0000000e+00 2.6757396e-03 0.0000000e+00 
0.0000000e+00 2.7040555e-03 0.0000000e+00 
0.0000000e+00 2.5331292e-03 0.0000000e+00 
0.0000000e+00 3.2772669e-03 0.0000000e+00 
0.0000000e+00 2.1769295e-03 0.0000000e+00 
0.0000000e+00 2.0292976e-03 0.0000000e+00 
0.0000000e+00 2.0577137e-03 0.0000000e+00 
0.0000000e+00 2.0765909e-03 0.0000000e+00 
0.0000000e+00 1.9626401e-03 0.0000000e+00 
0.0000000e+00 2.4587319e-03 0.0000000e+00 
0.0000000e+00 1.1706309e-03 0.0000000e+00 
0.0000000e+00 1.0968150e-03 0.0000000e+00 
0.0000000e+00 1.1110229e-03 0.0000000e+00 
0.0000000e+00 1.1204616e-03 0.0000000e+00 
0.0000000e+00 1.0634862e-03 0.0000000e+00 
0.0000000e+00 1.3115320e-03 0.0000000e+00 
0.0000000e+00 -1.7711276e-16 0.0000000e+00 
0.0000000e+00 -6.8676373e-17 0.0000000e+00 
0.0000000e+00 3.9760008e-17 0.0000000e+00 
0.0000000e+00 7.5905468e-17 0.0000000e+00 
0.0000000e+00 7.2290920e-18 0.0000000e+00 
0.0000000e+00 -4.0243746e-17 0.0000000e+00 
0.0000000e+00 -1.1706309e-03 0.0000000e+00 
0.0000000e+00 -1.0968150e-03 0.0000000e+00 
0.0000000e+00 -1.1110229e-03 0.0000000e+00 
0.0000000e+00 -1.1204616e-03 0.0000000e+00 
0.0000000e+00 -1.0634862e-03 0.0000000e+00 
0.0000000e+00 -1.3115320e-03 0.0000000e+00 
0.0000000e+00 -2.1769295e-03 0.0000000e+00 
0.0000000e+00 -2.0292976e-03 0.0000000e+00 
0.0000000e+00 -2.0577137e-03 0.0000000e+00 
0.0000000e+00 -2.0765909e-03 0.0000000e+00 
0.0000000e+00 -1.9626401e-03 0.0000000e+00 
0.0000000e+00 -2.4587319e-03 0.0000000e+00 
0.0000000e+00 -2.8545635e-03 0.0000000e+00 
0.0000000e+00 -2.6331155e-03 0.0000000e+00 
0.0000000e+00 -2.6757396e-03 0.0000000e+00 
0.0000000e+00 -2.7040555e-03 0.0000000e+00 
0.0000000e+00 -2.5331292e-03 0.0000000e+00 
0.0000000e+00 -3.2772669e-03 0.0000000e+00 
0.0000000e+00 -3.0392006e-03 0.0000000e+00 
0.0000000e+00 -2.7439366e-03 0.0000000e+00 
0.0000000e+00 -2.8007685e-03 0.0000000e+00 
0.0000000e+00 -2.8385231e-03 0.0000000e+00 
0.0000000e+00 -2.6106215e-03 0.0000000e+00 
0.0000000e+00 -3.6028048e-03 0.0000000e+00 
0.0000000e+00 -2.5665083e-03 0.0000000e+00 
0.0000000e+00 -2.1974284e-03 0.0000000e+00 
0.0000000e+00 -2.2684683e-03 0.0000000e+00 
0.0000000e+00 -2.3156614e-03 0.0000000e+00 
0.0000000e+00 -2.0307845e-03 0.0000000e+00 
0.0000000e+00 -3.2710137e-03 0.0000000e+00 
0.0000000e+00 6.3746679e-04 0.0000000e+00 
0.0000000e+00 6.2420557e-04 0.0000000e+00 
0.0000000e+00 5.8442180e-04 0.0000000e+00 
0.0000000e+00 5.1811547e-04 0.0000000e+00 
0.0000000e+00 4.2528668e-04 0.0000000e+00 
0.0000000e+00 3.0593536e-04 0.0000000e+00 
0.0000000e+00 1.6006152e-04 0.0000000e+00 
0.0000000e+00 -1.2334825e-05 0.0000000e+00 
0.0000000e+00 -2.1125369e-04 0.0000000e+00 
0.0000000e+00 -4.3669509e-04 0.0000000e+00 
0.0000000e+00 -6.8865897e-04 0.0000000e+00 
0.0000000e+00 -9.6714537e-04 0.0000000e+00 
0.0000000e+00 -1.2721543e-03 0.0000000e+00 
0.0000000e+00 -7.5420015e-04 0.0000000e+00 
0.0000000e+00 -3.2370895e-04 0.0000000e+00 
0.0000000e+00 1.9319332e-05 0.0000000e+00 
0.0000000e+00 2.7488466e-04 0.0000000e+00 
0.0000000e+00 4.4298708e-04 0.0000000e+00 
0.0000000e+00 5.2362651e-04 0.0000000e+00 
0.0000000e+00 5.1680306e-04 0.0000000e+00 
0.0000000e+00 4.2251660e-04 0.0000000e+00 
0.0000000e+00 2.4076724e-04 0.0000000e+00 
0.0000000e+00 -2.8445058e-05 0.0000000e+00 
0.0000000e+00 -3.8512031e-04 0.0000000e+00 
0.0000000e+00 -8.2925847e-04 0.0000000e+00 
0.0000000e+00 -4.3660586e-04 0.0000000e+00 
0.0000000e+00 -1.1663624e-04 0.0000000e+00 
0.0000000e+00 1.3065034e-04 0.0000000e+00 
0.0000000e+00 3.0525390e-04 0.0000000e+00 
0.0000000e+00 4.0717443e-04 0.0000000e+00 
0.0000000e+00 4.3641197e-04 0.0000000e+00 
0.0000000e+00 3.9296647e-04 0.0000000e+00 
0.0000000e+00 2.7683793e-04 0.0000000e+00 
0.0000000e+00 8.8026369e-05 0.0000000e+00 
0.0000000e+00 -1.7346820e-04 0.0000000e+00 
0.0000000e+00 -5.0764583e-04 0.0000000e+00 
0.0000000e+00 -9.1450644e-04 0.0000000e+00 
0.0000000e+00 -4.8722184e-04 0.0000000e+00 
0.0000000e+00 -1.3848342e-04 0.0000000e+00 
0.0000000e+00 1.3170885e-04 0.0000000e+00 
0.0000000e+00 3.2335494e-04 0.0000000e+00 
0.0000000e+00 4.3645489e-04 0.0000000e+00 
0.0000000e+00 4.7100865e-04 0.0000000e+00 
0.0000000e+00 4.2701626e-04 0.0000000e+00 
0.0000000e+00 3.0447773e-04 0.0000000e+00 
0.0000000e+00 1.0339300e-04 0.0000000e+00 
0.0000000e+00 -1.7623787e-04 0.0000000e+00 
0.0000000e+00 -5.3441490e-04 0.0000000e+00 
0.0000000e+00 -9.7113813e-04 0.0000000e+00 
0.0000000e+00 -5.7547359e-04 0.0000000e+00 
0.0000000e+00 -2.4656852e-04 0.0000000e+00 
0.0000000e+00 1.5577138e-05 0.0000000e+00 
0.0000000e+00 2.1096338e-04 0.0000000e+00 
0.0000000e+00 3.3959022e-04 0.0000000e+00 
0.0000000e+00 4.0145763e-04 0.0000000e+00 
0.0000000e+00 3.9656562e-04 0.0000000e+00 
0.0000000e+00 3.2491417e-04 0.0000000e+00 
0.0000000e+00 1.8650333e-04 0.0000000e+00 
0.0000000e+00 -1.8666940e-05 0.0000000e+00 
0.0000000e+00 -2.9059662e-04 0.0000000e+00 
0.0000000e+00 -6.2928576e-04 0.0000000e+00 
0.0000000e+00 -1.2494989e-04 0.0000000e+00 
0.0000000e+00 2.6513892e-04 0.0000000e+00 
0.0000000e+00 5.4098066e-04 0.0000000e+00 
0.0000000e+00 7.0257537e-04 0.0000000e+00 