# vtk DataFile Version 4.0
vtk output
ASCII
DATASET UNSTRUCTURED_GRID
POINTS 10 float
0.0000000e+00 0.0000000e+00 0.0000000e+00 
6.6666669e-01 0.0000000e+00 0.0000000e+00 
1.3333334e+00 0.0000000e+00 0.0000000e+00 
2.0000000e+00 0.0000000e+00 0.0000000e+00 
2.2222222e-01 0.0000000e+00 0.0000000e+00 
4.4444445e-01 0.0000000e+00 0.0000000e+00 
8.8888890e-01 0.0000000e+00 0.0000000e+00 
1.1111112e+00 0.0000000e+00 0.0000000e+00 
1.5555556e+00 0.0000000e+00 0.0000000e+00 
1.7777778e+00 0.0000000e+00 0.0000000e+00 

CELLS 9 27
2 0 4
2 4 5
2 5 1
2 1 6
2 6 7
2 7 2
2 2 8
2 8 9
2 9 3

CELL_TYPES 9
3
3
3
3
3
3
3
3
3
POINT_DATA 10
FIELD FieldData 6
DISPLACEMENT 3 10  float
0.0000000e+00 0.0000000e+00 0.0000000e+00 
0.0000000e+00 2.3515579e-08 0.0000000e+00 
0.0000000e+00 2.3515579e-08 0.0000000e+00 
0.0000000e+00 0.0000000e+00 0.0000000e+00 
0.0000000e+00 2.6128422e-09 0.0000000e+00 
0.0000000e+00 1.0451369e-08 0.0000000e+00 
0.0000000e+00 4.1805475e-08 0.0000000e+00 
0.0000000e+00 4.1805475e-08 0.0000000e+00 
0.0000000e+00 1.0451369e-08 0.0000000e+00 
0.0000000e+00 2.6128422e-09 0.0000000e+00 
REACTION 3 10  float
-0.0000000e+00 3.0000000e+00 0.0000000e+00 
-9.9668273e-07 2.6944983e-01 0.0000000e+00 
9.9668273e-07 2.6944983e-01 0.0000000e+00 
2.3846363e-08 -2.4207907e+00 0.0000000e+00 
-3.7515946e-07 -3.0346513e+00 0.0000000e+00 
-6.6812106e-07 -1.4356279e-01 0.0000000e+00 
2.0399632e-06 -9.1235906e-02 0.0000000e+00 
-2.0399632e-06 -9.1235906e-02 0.0000000e+00 
6.6812106e-07 -1.4356279e-01 0.0000000e+00 
3.5131308e-07 2.3861396e+00 0.0000000e+00 
ROTATION 3 10  float
0.0000000e+00 0.0000000e+00 0.0000000e+00 
0.0000000e+00 0.0000000e+00 7.0546740e-08 
0.0000000e+00 0.0000000e+00 -7.0546740e-08 
0.0000000e+00 0.0000000e+00 0.0000000e+00 
0.0000000e+00 0.0000000e+00 2.3515579e-08 
0.0000000e+00 0.0000000e+00 4.7031158e-08 
0.0000000e+00 0.0000000e+00 9.4062315e-08 
0.0000000e+00 0.0000000e+00 -9.4062315e-08 
0.0000000e+00 0.0000000e+00 -4.7031158e-08 
0.0000000e+00 0.0000000e+00 -2.3515579e-08 
REACTION_MOMENT 3 10  float
0.0000000e+00 0.0000000e+00 2.2222222e-01 
0.0000000e+00 0.0000000e+00 -9.6642245e-03 
0.0000000e+00 0.0000000e+00 9.6642245e-03 
0.0000000e+00 0.0000000e+00 3.8008785e-01 
0.0000000e+00 0.0000000e+00 3.2948321e-01 
0.0000000e+00 0.0000000e+00 -2.3651674e-02 
-0.0000000e+00 -0.0000000e+00 1.0137322e-02 
-0.0000000e+00 -0.0000000e+00 -1.0137322e-02 
0.0000000e+00 0.0000000e+00 2.3651674e-02 
0.0000000e+00 0.0000000e+00 2.7282688e-01 
FORCE 3 10  float
0.0000000e+00 -3.0000000e+00 0.0000000e+00 
1.5431843e-06 4.3489013e-02 0.0000000e+00 
1.5431843e-06 -4.3489013e-02 0.0000000e+00 
7.5277285e-08 -2.4207907e+00 0.0000000e+00 
1.8819321e-07 -1.4826745e+00 0.0000000e+00 
7.1513421e-07 1.0643253e-01 0.0000000e+00 
1.0162433e-06 -4.5617953e-02 0.0000000e+00 
1.0162433e-06 4.5617953e-02 0.0000000e+00 
7.1513421e-07 -1.0643253e-01 0.0000000e+00 
2.2583185e-07 -1.2277209e+00 0.0000000e+00 
MOMENT 3 10  float
0.0000000e+00 0.0000000e+00 -3.9389197e-02 
0.0000000e+00 0.0000000e+00 -1.0789020e-01 
0.0000000e+00 0.0000000e+00 -1.0789020e-01 
0.0000000e+00 0.0000000e+00 -1.6898569e-01 
0.0000000e+00 0.0000000e+00 -1.4738628e-01 
0.0000000e+00 0.0000000e+00 -1.1282721e-01 
0.0000000e+00 0.0000000e+00 3.8779828e-01 
0.0000000e+00 0.0000000e+00 3.8779828e-01 
0.0000000e+00 0.0000000e+00 -1.1282721e-01 
0.0000000e+00 0.0000000e+00 -8.2588032e-02 
CELL_DATA 9
FIELD FieldData 2
FORCE 3 9  float
0.0000000e+00 -3.0000000e+00 0.0000000e+00 
3.7638642e-07 3.4651134e-02 0.0000000e+00 
1.0538820e-06 1.7821392e-01 0.0000000e+00 
2.0324867e-06 -9.1235906e-02 0.0000000e+00 
0.0000000e+00 0.0000000e+00 0.0000000e+00 
2.0324867e-06 9.1235906e-02 0.0000000e+00 
1.0538820e-06 -1.7821392e-01 0.0000000e+00 
3.7638642e-07 -3.4651134e-02 0.0000000e+00 
7.5277285e-08 -2.4207907e+00 0.0000000e+00 
MOMENT 3 9  float
0.0000000e+00 0.0000000e+00 -1.1111111e-01 
0.0000000e+00 0.0000000e+00 -1.1111111e-01 
0.0000000e+00 0.0000000e+00 -1.1111111e-01 
0.0000000e+00 0.0000000e+00 -1.1111111e-01 
0.0000000e+00 0.0000000e+00 8.8888890e-01 
0.0000000e+00 0.0000000e+00 -1.1111111e-01 
0.0000000e+00 0.0000000e+00 -1.1111111e-01 
0.0000000e+00 0.0000000e+00 -1.1111111e-01 
0.0000000e+00 0.0000000e+00 -1.1111111e-01 
