# vtk DataFile Version 4.0
vtk output
ASCII
DATASET UNSTRUCTURED_GRID
POINTS 30 float
0.0000000e+00 0.0000000e+00 0.0000000e+00 
0.0000000e+00 0.0000000e+00 8.0000001e-01 
0.0000000e+00 0.0000000e+00 1.6000000e+00 
0.0000000e+00 0.0000000e+00 2.4000001e+00 
0.0000000e+00 0.0000000e+00 3.2000000e+00 
0.0000000e+00 0.0000000e+00 4.0000000e+00 
0.0000000e+00 0.0000000e+00 4.8000002e+00 
0.0000000e+00 0.0000000e+00 5.5999999e+00 
0.0000000e+00 0.0000000e+00 6.4000001e+00 
0.0000000e+00 0.0000000e+00 7.1999998e+00 
0.0000000e+00 0.0000000e+00 8.0000000e+00 
1.0000000e+01 0.0000000e+00 0.0000000e+00 
1.0000000e+01 0.0000000e+00 8.0000001e-01 
1.0000000e+01 0.0000000e+00 1.6000000e+00 
1.0000000e+01 0.0000000e+00 2.4000001e+00 
1.0000000e+01 0.0000000e+00 3.2000000e+00 
1.0000000e+01 0.0000000e+00 4.0000000e+00 
1.0000000e+01 0.0000000e+00 4.8000002e+00 
1.0000000e+01 0.0000000e+00 5.5999999e+00 
1.0000000e+01 0.0000000e+00 6.4000001e+00 
1.0000000e+01 0.0000000e+00 7.1999998e+00 
1.0000000e+01 0.0000000e+00 8.0000000e+00 
2.0000000e+00 0.0000000e+00 4.0000000e+00 
4.0000000e+00 0.0000000e+00 4.0000000e+00 
6.0000000e+00 0.0000000e+00 4.0000000e+00 
8.0000000e+00 0.0000000e+00 4.0000000e+00 
2.0000000e+00 0.0000000e+00 8.0000000e+00 
4.0000000e+00 0.0000000e+00 8.0000000e+00 
6.0000000e+00 0.0000000e+00 8.0000000e+00 
8.0000000e+00 0.0000000e+00 8.0000000e+00 

CELLS 30 90
2 0 1
2 1 2
2 2 3
2 3 4
2 4 5
2 5 6
2 6 7
2 7 8
2 8 9
2 9 10
2 11 12
2 12 13
2 13 14
2 14 15
2 15 16
2 16 17
2 17 18
2 18 19
2 19 20
2 20 21
2 5 22
2 22 23
2 23 24
2 24 25
2 25 16
2 10 26
2 26 27
2 27 28
2 28 29
2 29 21

CELL_TYPES 30
3
3
3
3
3
3
3
3
3
3
3
3
3
3
3
3
3
3
3
3
3
3
3
3
3
3
3
3
3
3
POINT_DATA 30
FIELD FieldData 7
DISPLACEMENT 3 30  float
0.0000000e+00 0.0000000e+00 0.0000000e+00 
4.4009429e-03 0.0000000e+00 1.7228560e-06 
8.5142544e-03 0.0000000e+00 5.9245408e-06 
1.2050888e-02 0.0000000e+00 8.4801195e-06 
1.4794090e-02 0.0000000e+00 1.1035698e-05 
1.6572047e-02 0.0000000e+00 1.6956163e-05 
1.7825726e-02 0.0000000e+00 1.7792901e-05 
1.9050211e-02 0.0000000e+00 1.8629642e-05 
2.0237660e-02 0.0000000e+00 2.0452801e-05 
2.1353360e-02 0.0000000e+00 2.2275961e-05 
2.2355890e-02 0.0000000e+00 2.4099121e-05 
0.0000000e+00 0.0000000e+00 0.0000000e+00 
4.1863676e-03 0.0000000e+00 -4.4933913e-08 
8.0955504e-03 0.0000000e+00 1.0117610e-06 
1.1547941e-02 0.0000000e+00 -8.2884050e-08 
1.4408519e-02 0.0000000e+00 1.6889381e-06 
1.6610200e-02 0.0000000e+00 3.9078932e-06 
1.8408021e-02 0.0000000e+00 6.2772569e-06 
1.9988941e-02 0.0000000e+00 5.2826304e-06 
2.1210814e-02 0.0000000e+00 1.8286129e-06 
2.1999216e-02 0.0000000e+00 -3.4685131e-06 
2.2373740e-02 0.0000000e+00 -5.3697222e-06 
1.6574556e-02 0.0000000e+00 -5.7170726e-04 
1.6580857e-02 0.0000000e+00 1.6924827e-03 
1.6591389e-02 0.0000000e+00 3.4688283e-03 
1.6603565e-02 0.0000000e+00 2.9789566e-03 
2.2355979e-02 0.0000000e+00 -1.7898323e-03 
2.2358792e-02 0.0000000e+00 -2.3841464e-03 
2.2363774e-02 0.0000000e+00 -1.5889620e-03 
2.2368757e-02 0.0000000e+00 -3.7354563e-04 
ROTATION 3 30  float
0.0000000e+00 5.5600195e-03 0.0000000e+00 
0.0000000e+00 5.3834971e-03 0.0000000e+00 
0.0000000e+00 4.8344443e-03 0.0000000e+00 
0.0000000e+00 3.9660190e-03 0.0000000e+00 
0.0000000e+00 2.8508638e-03 0.0000000e+00 
0.0000000e+00 1.5848741e-03 0.0000000e+00 
0.0000000e+00 1.5490871e-03 0.0000000e+00 
0.0000000e+00 1.5118910e-03 0.0000000e+00 
0.0000000e+00 1.4480990e-03 0.0000000e+00 
0.0000000e+00 1.3325246e-03 0.0000000e+00 
0.0000000e+00 1.1651675e-03 0.0000000e+00 
0.0000000e+00 5.2957358e-03 0.0000000e+00 
0.0000000e+00 5.1074065e-03 0.0000000e+00 
0.0000000e+00 4.6329526e-03 0.0000000e+00 
0.0000000e+00 3.9666831e-03 0.0000000e+00 
0.0000000e+00 3.1739438e-03 0.0000000e+00 
0.0000000e+00 2.3210153e-03 0.0000000e+00 
0.0000000e+00 2.1432226e-03 0.0000000e+00 
0.0000000e+00 1.7763694e-03 0.0000000e+00 
0.0000000e+00 1.2617772e-03 0.0000000e+00 
0.0000000e+00 7.1505603e-04 0.0000000e+00 
0.0000000e+00 2.3896764e-04 0.0000000e+00 
0.0000000e+00 -7.1378157e-04 0.0000000e+00 
0.0000000e+00 -1.2430379e-03 0.0000000e+00 
0.0000000e+00 -3.7487040e-04 0.0000000e+00 
0.0000000e+00 8.1280892e-04 0.0000000e+00 
0.0000000e+00 6.3212233e-04 0.0000000e+00 
0.0000000e+00 -8.1288679e-05 0.0000000e+00 
0.0000000e+00 -6.0827291e-04 0.0000000e+00 
0.0000000e+00 -5.0152082e-04 0.0000000e+00 
REACTION 3 30  float
-1.7376416e+04 -0.0000000e+00 -4.5224971e+03 
2.4374458e-10 -0.0000000e+00 -0.0000000e+00 
1.3278623e-09 -0.0000000e+00 3.6379788e-12 
-8.1490725e-10 -0.0000000e+00 -0.0000000e+00 
-9.5678843e-10 -0.0000000e+00 -5.4569682e-12 
-1.6880222e-09 -0.0000000e+00 -8.0763130e-10 
1.5716068e-09 -0.0000000e+00 -0.0000000e+00 
3.3060132e-10 -0.0000000e+00 2.0554580e-10 
7.2759576e-09 -0.0000000e+00 -1.1641532e-10 
-2.3283064e-10 -0.0000000e+00 2.1827873e-11 
1.2005330e-09 -0.0000000e+00 -1.0913936e-11 
-1.8538625e+04 -0.0000000e+00 1.1795152e+02 
8.3855412e-10 -0.0000000e+00 3.0468073e-11 
4.0636223e-09 -0.0000000e+00 4.5929482e-11 
-3.5233825e-09 -0.0000000e+00 1.7644197e-10 
-1.9499566e-09 -0.0000000e+00 -1.9008439e-10 
-9.9353201e-09 -0.0000000e+00 -4.3701220e-09 
3.3232936e-09 -0.0000000e+00 5.4569682e-12 
8.6401997e-11 -0.0000000e+00 -3.6379788e-12 
-9.2404662e-10 -0.0000000e+00 -2.1518645e-09 
4.5292836e-10 -0.0000000e+00 -0.0000000e+00 
3.7252903e-09 -0.0000000e+00 3.8562575e-10 
-1.7826096e-09 -0.0000000e+00 1.0641088e-09 
-2.7976057e-09 -0.0000000e+00 -0.0000000e+00 
-1.7098500e-09 -0.0000000e+00 2.3537723e-09 
6.3728294e-09 -0.0000000e+00 2.9103830e-11 
-1.8999344e-09 -0.0000000e+00 -3.6379788e-12 
1.0541044e-09 -0.0000000e+00 1.0913936e-11 
-3.7252903e-09 -0.0000000e+00 1.1568773e-09 
-0.0000000e+00 -0.0000000e+00 7.2759576e-12 
REACTION_MOMENT 3 30  float
-0.0000000e+00 4.6566129e-10 -0.0000000e+00 
-0.0000000e+00 4.0745363e-10 -0.0000000e+00 
-0.0000000e+00 1.1059456e-09 -0.0000000e+00 
-0.0000000e+00 4.3655746e-10 -0.0000000e+00 
-0.0000000e+00 4.5693014e-09 -0.0000000e+00 
-0.0000000e+00 1.7462298e-10 -0.0000000e+00 
-0.0000000e+00 -4.6857167e-09 -0.0000000e+00 
-0.0000000e+00 -2.9103830e-10 -0.0000000e+00 
-0.0000000e+00 -1.8480932e-09 -0.0000000e+00 
-0.0000000e+00 -6.2573235e-10 -0.0000000e+00 
-0.0000000e+00 -1.6480044e-09 -0.0000000e+00 
-0.0000000e+00 1.7462298e-10 -0.0000000e+00 
-0.0000000e+00 5.8207661e-11 -0.0000000e+00 
-0.0000000e+00 -0.0000000e+00 -0.0000000e+00 
-0.0000000e+00 -1.1641532e-10 -0.0000000e+00 
-0.0000000e+00 1.9499566e-09 -0.0000000e+00 
-0.0000000e+00 -8.7311491e-11 -0.0000000e+00 
-0.0000000e+00 1.7462298e-10 -0.0000000e+00 
-0.0000000e+00 2.3865141e-09 -0.0000000e+00 
-0.0000000e+00 -1.0841177e-09 -0.0000000e+00 
-0.0000000e+00 7.9307938e-10 -0.0000000e+00 
-0.0000000e+00 -1.6989361e-09 -0.0000000e+00 
-0.0000000e+00 -5.7843863e-10 -0.0000000e+00 
-0.0000000e+00 -2.3828761e-10 -0.0000000e+00 
-0.0000000e+00 -1.6370905e-10 -0.0000000e+00 
-0.0000000e+00 -1.4551915e-11 -0.0000000e+00 
-0.0000000e+00 5.4569682e-12 -0.0000000e+00 
-0.0000000e+00 -3.6379788e-12 -0.0000000e+00 
-0.0000000e+00 -1.2732926e-11 -0.0000000e+00 
-0.0000000e+00 1.7280399e-11 -0.0000000e+00 
VOLUME_ACCELERATION 3 30  float
0.0000000e+00 0.0000000e+00 0.0000000e+00 
0.0000000e+00 0.0000000e+00 0.0000000e+00 
0.0000000e+00 0.0000000e+00 0.0000000e+00 
0.0000000e+00 0.0000000e+00 0.0000000e+00 
0.0000000e+00 0.0000000e+00 0.0000000e+00 
0.0000000e+00 0.0000000e+00 0.0000000e+00 
0.0000000e+00 0.0000000e+00 0.0000000e+00 
0.0000000e+00 0.0000000e+00 0.0000000e+00 
0.0000000e+00 0.0000000e+00 0.0000000e+00 
0.0000000e+00 0.0000000e+00 0.0000000e+00 
0.0000000e+00 0.0000000e+00 0.0000000e+00 
0.0000000e+00 0.0000000e+00 0.0000000e+00 
0.0000000e+00 0.0000000e+00 0.0000000e+00 
0.0000000e+00 0.0000000e+00 0.0000000e+00 
0.0000000e+00 0.0000000e+00 0.0000000e+00 
0.0000000e+00 0.0000000e+00 0.0000000e+00 
0.0000000e+00 0.0000000e+00 0.0000000e+00 
0.0000000e+00 0.0000000e+00 0.0000000e+00 
0.0000000e+00 0.0000000e+00 0.0000000e+00 
0.0000000e+00 0.0000000e+00 0.0000000e+00 
0.0000000e+00 0.0000000e+00 0.0000000e+00 
0.0000000e+00 0.0000000e+00 0.0000000e+00 
0.0000000e+00 0.0000000e+00 0.0000000e+00 
0.0000000e+00 0.0000000e+00 0.0000000e+00 
0.0000000e+00 0.0000000e+00 0.0000000e+00 
0.0000000e+00 0.0000000e+00 0.0000000e+00 
0.0000000e+00 0.0000000e+00 0.0000000e+00 
0.0000000e+00 0.0000000e+00 0.0000000e+00 
0.0000000e+00 0.0000000e+00 0.0000000e+00 
0.0000000e+00 0.0000000e+00 0.0000000e+00 
POINT_LOAD 3 30  float
0.0000000e+00 0.0000000e+00 0.0000000e+00 
-1.9181320e+03 0.0000000e+00 -6.5069258e+03 
7.1508369e+03 0.0000000e+00 4.3210298e+03 
0.0000000e+00 0.0000000e+00 0.0000000e+00 
9.4396289e+03 0.0000000e+00 -8.8328271e+03 
0.0000000e+00 0.0000000e+00 0.0000000e+00 
0.0000000e+00 0.0000000e+00 0.0000000e+00 
-2.4793167e+03 0.0000000e+00 -2.5893540e+03 
0.0000000e+00 0.0000000e+00 0.0000000e+00 
0.0000000e+00 0.0000000e+00 0.0000000e+00 
2.4551799e+03 0.0000000e+00 5.5721050e+03 
0.0000000e+00 0.0000000e+00 0.0000000e+00 
8.9118018e+03 0.0000000e+00 -2.8917756e+03 
3.7179337e+02 0.0000000e+00 5.6472671e+03 
6.0607383e+03 0.0000000e+00 -7.5244761e+03 
4.6366739e+02 0.0000000e+00 -1.1737240e+03 
7.4647681e+02 0.0000000e+00 7.1073267e+03 
-7.0726038e+02 0.0000000e+00 8.8304746e+03 
4.7748438e+03 0.0000000e+00 6.4559004e+03 
6.6054922e+03 0.0000000e+00 4.8381602e+03 
3.5101462e+03 0.0000000e+00 -8.9142822e+03 
0.0000000e+00 0.0000000e+00 0.0000000e+00 
-3.9813804e+03 0.0000000e+00 -1.1784843e+03 
-4.4420317e+03 0.0000000e+00 7.0371030e+03 
-1.7260685e+03 0.0000000e+00 9.9400078e+03 
5.8166675e+03 0.0000000e+00 -9.9559971e+03 
-2.8606216e+03 0.0000000e+00 1.2681422e+03 
-2.2774209e+03 0.0000000e+00 -7.0451255e+03 
0.0000000e+00 0.0000000e+00 0.0000000e+00 
0.0000000e+00 0.0000000e+00 0.0000000e+00 
POINT_MOMENT 3 30  float
0.0000000e+00 0.0000000e+00 0.0000000e+00 
0.0000000e+00 0.0000000e+00 0.0000000e+00 
0.0000000e+00 0.0000000e+00 0.0000000e+00 
0.0000000e+00 0.0000000e+00 0.0000000e+00 
0.0000000e+00 0.0000000e+00 0.0000000e+00 
0.0000000e+00 0.0000000e+00 0.0000000e+00 
0.0000000e+00 0.0000000e+00 0.0000000e+00 
0.0000000e+00 0.0000000e+00 0.0000000e+00 
0.0000000e+00 0.0000000e+00 0.0000000e+00 
0.0000000e+00 0.0000000e+00 0.0000000e+00 
0.0000000e+00 0.0000000e+00 0.0000000e+00 
0.0000000e+00 0.0000000e+00 0.0000000e+00 
0.0000000e+00 0.0000000e+00 0.0000000e+00 
0.0000000e+00 0.0000000e+00 0.0000000e+00 
0.0000000e+00 0.0000000e+00 0.0000000e+00 
0.0000000e+00 0.0000000e+00 0.0000000e+00 
0.0000000e+00 0.0000000e+00 0.0000000e+00 
0.0000000e+00 0.0000000e+00 0.0000000e+00 
0.0000000e+00 0.0000000e+00 0.0000000e+00 
0.0000000e+00 0.0000000e+00 0.0000000e+00 
0.0000000e+00 0.0000000e+00 0.0000000e+00 
0.0000000e+00 0.0000000e+00 0.0000000e+00 
0.0000000e+00 0.0000000e+00 0.0000000e+00 
0.0000000e+00 0.0000000e+00 0.0000000e+00 
0.0000000e+00 0.0000000e+00 0.0000000e+00 
0.0000000e+00 0.0000000e+00 0.0000000e+00 
0.0000000e+00 0.0000000e+00 0.0000000e+00 
0.0000000e+00 0.0000000e+00 0.0000000e+00 
0.0000000e+00 0.0000000e+00 0.0000000e+00 
0.0000000e+00 0.0000000e+00 0.0000000e+00 
CELL_DATA 30
FIELD FieldData 9
YOUNG_MODULUS 1 30  float
2.1000000e+11
2.1000000e+11
2.1000000e+11
2.1000000e+11
2.1000000e+11
2.1000000e+11
2.1000000e+11
2.1000000e+11
2.1000000e+11
2.1000000e+11
2.1000000e+11
2.1000000e+11
2.1000000e+11
2.1000000e+11
2.1000000e+11
2.1000000e+11
2.1000000e+11
2.1000000e+11
2.1000000e+11
2.1000000e+11
2.1000000e+11
2.1000000e+11
2.1000000e+11
2.1000000e+11
2.1000000e+11
2.1000000e+11
2.1000000e+11
2.1000000e+11
2.1000000e+11
2.1000000e+11
DENSITY 1 30  float
7.8500000e+03
7.8500000e+03
7.8500000e+03
7.8500000e+03
7.8500000e+03
7.8500000e+03
7.8500000e+03
7.8500000e+03
7.8500000e+03
7.8500000e+03
7.8500000e+03
7.8500000e+03
7.8500000e+03
7.8500000e+03
7.8500000e+03
7.8500000e+03
7.8500000e+03
7.8500000e+03
7.8500000e+03
7.8500000e+03
7.8500000e+03
7.8500000e+03
7.8500000e+03
7.8500000e+03
7.8500000e+03
7.8500000e+03
7.8500000e+03
7.8500000e+03
7.8500000e+03
7.8500000e+03
CROSS_AREA 1 30  float
9.9999998e-03
9.9999998e-03
9.9999998e-03
9.9999998e-03
9.9999998e-03
9.9999998e-03
9.9999998e-03
9.9999998e-03
9.9999998e-03
9.9999998e-03
9.9999998e-03
9.9999998e-03
9.9999998e-03
9.9999998e-03
9.9999998e-03
9.9999998e-03
9.9999998e-03
9.9999998e-03
9.9999998e-03
9.9999998e-03
9.9999998e-03
9.9999998e-03
9.9999998e-03
9.9999998e-03
9.9999998e-03
9.9999998e-03
9.9999998e-03
9.9999998e-03
9.9999998e-03
9.9999998e-03
I22 1 30  float
1.5000001e-04
1.5000001e-04
1.5000001e-04
1.5000001e-04
1.5000001e-04
1.5000001e-04
1.5000001e-04
1.5000001e-04
1.5000001e-04
1.5000001e-04
1.5000001e-04
1.5000001e-04
1.5000001e-04
1.5000001e-04
1.5000001e-04
1.5000001e-04
1.5000001e-04
1.5000001e-04
1.5000001e-04
1.5000001e-04
1.5000001e-04
1.5000001e-04
1.5000001e-04
1.5000001e-04
1.5000001e-04
1.5000001e-04
1.5000001e-04
1.5000001e-04
1.5000001e-04
1.5000001e-04
I33 1 30  float
1.5000001e-04
1.5000001e-04
1.5000001e-04
1.5000001e-04
1.5000001e-04
1.5000001e-04
1.5000001e-04
1.5000001e-04
1.5000001e-04
1.5000001e-04
1.5000001e-04
1.5000001e-04
1.5000001e-04
1.5000001e-04
1.5000001e-04
1.5000001e-04
1.5000001e-04
1.5000001e-04
1.5000001e-04
1.5000001e-04
1.5000001e-04
1.5000001e-04
1.5000001e-04
1.5000001e-04
1.5000001e-04
1.5000001e-04
1.5000001e-04
1.5000001e-04
1.5000001e-04
1.5000001e-04
TORSIONAL_INERTIA 1 30  float
3.0000001e-04
3.0000001e-04
3.0000001e-04
3.0000001e-04
3.0000001e-04
3.0000001e-04
3.0000001e-04
3.0000001e-04
3.0000001e-04
3.0000001e-04
3.0000001e-04
3.0000001e-04
3.0000001e-04
3.0000001e-04
3.0000001e-04
3.0000001e-04
3.0000001e-04
3.0000001e-04
3.0000001e-04
3.0000001e-04
3.0000001e-04
3.0000001e-04
3.0000001e-04
3.0000001e-04
3.0000001e-04
3.0000001e-04
3.0000001e-04
3.0000001e-04
3.0000001e-04
3.0000001e-04
POISSON_RATIO 1 30  float
3.0000001e-01
3.0000001e-01
3.0000001e-01
3.0000001e-01
3.0000001e-01
3.0000001e-01
3.0000001e-01
3.0000001e-01
3.0000001e-01
3.0000001e-01
3.0000001e-01
3.0000001e-01
3.0000001e-01
3.0000001e-01
3.0000001e-01
3.0000001e-01
3.0000001e-01
3.0000001e-01
3.0000001e-01
3.0000001e-01
3.0000001e-01
3.0000001e-01
3.0000001e-01
3.0000001e-01
3.0000001e-01
3.0000001e-01
3.0000001e-01
3.0000001e-01
3.0000001e-01
3.0000001e-01
MOMENT 3 30  float
0.0000000e+00 -6.9505669e+03 0.0000000e+00 
0.0000000e+00 -2.1618953e+04 0.0000000e+00 
0.0000000e+00 -3.4194258e+04 0.0000000e+00 
0.0000000e+00 -4.3909227e+04 0.0000000e+00 
0.0000000e+00 -4.9848344e+04 0.0000000e+00 
0.0000000e+00 -1.4091128e+03 0.0000000e+00 
0.0000000e+00 -1.4645972e+03 0.0000000e+00 
0.0000000e+00 -2.5118083e+03 0.0000000e+00 
0.0000000e+00 -4.5507461e+03 0.0000000e+00 
0.0000000e+00 -6.5896836e+03 0.0000000e+00 
0.0000000e+00 -7.4154502e+03 0.0000000e+00 
0.0000000e+00 -1.8681629e+04 0.0000000e+00 
0.0000000e+00 -2.6234369e+04 0.0000000e+00 
0.0000000e+00 -3.1214098e+04 0.0000000e+00 
0.0000000e+00 -3.3584062e+04 0.0000000e+00 
0.0000000e+00 -7.0005889e+03 0.0000000e+00 
0.0000000e+00 -1.4444843e+04 0.0000000e+00 
0.0000000e+00 -2.0262064e+04 0.0000000e+00 
0.0000000e+00 -2.1527150e+04 0.0000000e+00 
0.0000000e+00 -1.8745980e+04 0.0000000e+00 
0.0000000e+00 -3.6203828e+04 0.0000000e+00 
0.0000000e+00 -8.3357861e+03 0.0000000e+00 
0.0000000e+00 1.3673637e+04 0.0000000e+00 
0.0000000e+00 1.8705949e+04 0.0000000e+00 
0.0000000e+00 2.3754250e+04 0.0000000e+00 
0.0000000e+00 -8.3954619e+03 0.0000000e+00 
0.0000000e+00 -1.1236224e+04 0.0000000e+00 
0.0000000e+00 -8.3000020e+03 0.0000000e+00 
0.0000000e+00 1.6813457e+03 0.0000000e+00 
0.0000000e+00 1.1662693e+04 0.0000000e+00 
FORCE 3 30  float
4.5224971e+03 0.0000000e+00 -1.7376416e+04 
1.1029423e+04 0.0000000e+00 -1.9294549e+04 
6.7083931e+03 0.0000000e+00 -1.2143712e+04 
6.7083931e+03 0.0000000e+00 -1.2143712e+04 
1.5541220e+04 0.0000000e+00 -2.7040828e+03 
2.1964412e+03 0.0000000e+00 -6.9355507e+01 
2.1964412e+03 0.0000000e+00 -6.9355507e+01 
4.7857949e+03 0.0000000e+00 -2.5486721e+03 
4.7857949e+03 0.0000000e+00 -2.5486721e+03 
4.7857949e+03 0.0000000e+00 -2.5486721e+03 
-1.1795152e+02 0.0000000e+00 -1.8538625e+04 
2.7738240e+03 0.0000000e+00 -9.6268232e+03 
-2.8734431e+03 0.0000000e+00 -9.2550293e+03 
4.6510332e+03 0.0000000e+00 -3.1942913e+03 
5.8247573e+03 0.0000000e+00 -2.7306238e+03 
6.2195796e+03 0.0000000e+00 -8.9516875e+03 
-2.6108950e+03 0.0000000e+00 -9.6589482e+03 
-9.0667959e+03 0.0000000e+00 -4.8841040e+03 
-1.3904956e+04 0.0000000e+00 1.7213885e+03 
-4.9906738e+03 0.0000000e+00 5.2315347e+03 
2.6347271e+03 0.0000000e+00 1.3344778e+04 
6.6161074e+03 0.0000000e+00 1.4523263e+04 
1.1058140e+04 0.0000000e+00 7.4861597e+03 
1.2784208e+04 0.0000000e+00 -2.4538477e+03 
6.9675405e+03 0.0000000e+00 7.5021494e+03 
9.3492256e+01 0.0000000e+00 -7.8630963e+02 
2.9541138e+03 0.0000000e+00 -2.0544519e+03 
5.2315347e+03 0.0000000e+00 4.9906738e+03 
5.2315347e+03 0.0000000e+00 4.9906738e+03 
5.2315347e+03 0.0000000e+00 4.9906738e+03 
