# vtk DataFile Version 4.0
vtk output
ASCII
DATASET UNSTRUCTURED_GRID
POINTS 356 float
0.0000000e+00 0.0000000e+00 0.0000000e+00 
0.0000000e+00 0.0000000e+00 1.5000001e-01 
0.0000000e+00 0.0000000e+00 3.0000001e-01 
0.0000000e+00 0.0000000e+00 4.4999999e-01 
0.0000000e+00 0.0000000e+00 6.0000002e-01 
0.0000000e+00 0.0000000e+00 7.5000000e-01 
0.0000000e+00 0.0000000e+00 8.9999998e-01 
0.0000000e+00 0.0000000e+00 1.0500000e+00 
0.0000000e+00 0.0000000e+00 1.2000000e+00 
0.0000000e+00 0.0000000e+00 1.3500000e+00 
0.0000000e+00 0.0000000e+00 1.5000000e+00 
0.0000000e+00 0.0000000e+00 1.6500000e+00 
0.0000000e+00 0.0000000e+00 1.8000000e+00 
0.0000000e+00 0.0000000e+00 1.9500000e+00 
0.0000000e+00 0.0000000e+00 2.0999999e+00 
0.0000000e+00 0.0000000e+00 2.2500000e+00 
0.0000000e+00 0.0000000e+00 2.4000001e+00 
0.0000000e+00 0.0000000e+00 2.5500000e+00 
0.0000000e+00 0.0000000e+00 2.7000000e+00 
0.0000000e+00 0.0000000e+00 2.8499999e+00 
0.0000000e+00 0.0000000e+00 3.0000000e+00 
0.0000000e+00 0.0000000e+00 3.1500001e+00 
0.0000000e+00 0.0000000e+00 3.3000000e+00 
0.0000000e+00 0.0000000e+00 3.4500000e+00 
0.0000000e+00 0.0000000e+00 3.5999999e+00 
0.0000000e+00 0.0000000e+00 3.7500000e+00 
0.0000000e+00 0.0000000e+00 3.9000001e+00 
0.0000000e+00 0.0000000e+00 4.0500002e+00 
0.0000000e+00 0.0000000e+00 4.1999998e+00 
0.0000000e+00 0.0000000e+00 4.3499999e+00 
0.0000000e+00 0.0000000e+00 4.5000000e+00 
0.0000000e+00 0.0000000e+00 4.6500001e+00 
0.0000000e+00 0.0000000e+00 4.8000002e+00 
0.0000000e+00 0.0000000e+00 4.9499998e+00 
0.0000000e+00 0.0000000e+00 5.0999999e+00 
0.0000000e+00 0.0000000e+00 5.2500000e+00 
0.0000000e+00 0.0000000e+00 5.4000001e+00 
0.0000000e+00 0.0000000e+00 5.5500002e+00 
0.0000000e+00 0.0000000e+00 5.6999998e+00 
0.0000000e+00 0.0000000e+00 5.8499999e+00 
0.0000000e+00 0.0000000e+00 6.0000000e+00 
0.0000000e+00 0.0000000e+00 6.1500001e+00 
0.0000000e+00 0.0000000e+00 6.3000002e+00 
0.0000000e+00 0.0000000e+00 6.4499998e+00 
0.0000000e+00 0.0000000e+00 6.5999999e+00 
0.0000000e+00 0.0000000e+00 6.7500000e+00 
0.0000000e+00 0.0000000e+00 6.9000001e+00 
0.0000000e+00 0.0000000e+00 7.0500002e+00 
0.0000000e+00 0.0000000e+00 7.1999998e+00 
0.0000000e+00 0.0000000e+00 7.3499999e+00 
0.0000000e+00 0.0000000e+00 7.5000000e+00 
0.0000000e+00 0.0000000e+00 7.6500001e+00 
0.0000000e+00 0.0000000e+00 7.8000002e+00 
0.0000000e+00 0.0000000e+00 7.9499998e+00 
0.0000000e+00 0.0000000e+00 8.1000004e+00 
0.0000000e+00 0.0000000e+00 8.2500000e+00 
0.0000000e+00 0.0000000e+00 8.3999996e+00 
0.0000000e+00 0.0000000e+00 8.5500002e+00 
0.0000000e+00 0.0000000e+00 8.6999998e+00 
0.0000000e+00 0.0000000e+00 8.8500004e+00 
0.0000000e+00 0.0000000e+00 9.0000000e+00 
0.0000000e+00 0.0000000e+00 9.1499996e+00 
0.0000000e+00 0.0000000e+00 9.3000002e+00 
0.0000000e+00 0.0000000e+00 9.4499998e+00 
0.0000000e+00 0.0000000e+00 9.6000004e+00 
0.0000000e+00 0.0000000e+00 9.7500000e+00 
0.0000000e+00 0.0000000e+00 9.8999996e+00 
0.0000000e+00 0.0000000e+00 1.0050000e+01 
0.0000000e+00 0.0000000e+00 1.0200000e+01 
0.0000000e+00 0.0000000e+00 1.0350000e+01 
0.0000000e+00 0.0000000e+00 1.0500000e+01 
0.0000000e+00 0.0000000e+00 1.0650000e+01 
0.0000000e+00 0.0000000e+00 1.0800000e+01 
0.0000000e+00 0.0000000e+00 1.0950000e+01 
0.0000000e+00 0.0000000e+00 1.1100000e+01 
0.0000000e+00 0.0000000e+00 1.1250000e+01 
0.0000000e+00 0.0000000e+00 1.1400000e+01 
0.0000000e+00 0.0000000e+00 1.1550000e+01 
0.0000000e+00 0.0000000e+00 1.1700000e+01 
0.0000000e+00 0.0000000e+00 1.1850000e+01 
0.0000000e+00 0.0000000e+00 1.2000000e+01 
0.0000000e+00 0.0000000e+00 1.2150000e+01 
0.0000000e+00 0.0000000e+00 1.2300000e+01 
0.0000000e+00 0.0000000e+00 1.2450000e+01 
0.0000000e+00 0.0000000e+00 1.2600000e+01 
0.0000000e+00 0.0000000e+00 1.2750000e+01 
0.0000000e+00 0.0000000e+00 1.2900000e+01 
0.0000000e+00 0.0000000e+00 1.3050000e+01 
0.0000000e+00 0.0000000e+00 1.3200000e+01 
0.0000000e+00 0.0000000e+00 1.3350000e+01 
0.0000000e+00 0.0000000e+00 1.3500000e+01 
0.0000000e+00 0.0000000e+00 1.3650000e+01 
0.0000000e+00 0.0000000e+00 1.3800000e+01 
0.0000000e+00 0.0000000e+00 1.3950000e+01 
0.0000000e+00 0.0000000e+00 1.4100000e+01 
0.0000000e+00 0.0000000e+00 1.4250000e+01 
0.0000000e+00 0.0000000e+00 1.4400000e+01 
0.0000000e+00 0.0000000e+00 1.4550000e+01 
0.0000000e+00 0.0000000e+00 1.4700000e+01 
0.0000000e+00 0.0000000e+00 1.4850000e+01 
0.0000000e+00 0.0000000e+00 1.5000000e+01 
0.0000000e+00 0.0000000e+00 1.5150000e+01 
0.0000000e+00 0.0000000e+00 1.5300000e+01 
0.0000000e+00 0.0000000e+00 1.5450000e+01 
0.0000000e+00 0.0000000e+00 1.5600000e+01 
0.0000000e+00 0.0000000e+00 1.5750000e+01 
0.0000000e+00 0.0000000e+00 1.5900000e+01 
0.0000000e+00 0.0000000e+00 1.6049999e+01 
0.0000000e+00 0.0000000e+00 1.6200001e+01 
0.0000000e+00 0.0000000e+00 1.6350000e+01 
0.0000000e+00 0.0000000e+00 1.6500000e+01 
0.0000000e+00 0.0000000e+00 1.6650000e+01 
0.0000000e+00 0.0000000e+00 1.6799999e+01 
0.0000000e+00 0.0000000e+00 1.6950001e+01 
0.0000000e+00 0.0000000e+00 1.7100000e+01 
0.0000000e+00 0.0000000e+00 1.7250000e+01 
0.0000000e+00 0.0000000e+00 1.7400000e+01 
0.0000000e+00 0.0000000e+00 1.7549999e+01 
0.0000000e+00 0.0000000e+00 1.7700001e+01 
0.0000000e+00 0.0000000e+00 1.7850000e+01 
0.0000000e+00 0.0000000e+00 1.8000000e+01 
6.0000000e+00 0.0000000e+00 0.0000000e+00 
6.0000000e+00 0.0000000e+00 1.5000001e-01 
6.0000000e+00 0.0000000e+00 3.0000001e-01 
6.0000000e+00 0.0000000e+00 4.4999999e-01 
6.0000000e+00 0.0000000e+00 6.0000002e-01 
6.0000000e+00 0.0000000e+00 7.5000000e-01 
6.0000000e+00 0.0000000e+00 8.9999998e-01 
6.0000000e+00 0.0000000e+00 1.0500000e+00 
6.0000000e+00 0.0000000e+00 1.2000000e+00 
6.0000000e+00 0.0000000e+00 1.3500000e+00 
6.0000000e+00 0.0000000e+00 1.5000000e+00 
6.0000000e+00 0.0000000e+00 1.6500000e+00 
6.0000000e+00 0.0000000e+00 1.8000000e+00 
6.0000000e+00 0.0000000e+00 1.9500000e+00 
6.0000000e+00 0.0000000e+00 2.0999999e+00 
6.0000000e+00 0.0000000e+00 2.2500000e+00 
6.0000000e+00 0.0000000e+00 2.4000001e+00 
6.0000000e+00 0.0000000e+00 2.5500000e+00 
6.0000000e+00 0.0000000e+00 2.7000000e+00 
6.0000000e+00 0.0000000e+00 2.8499999e+00 
6.0000000e+00 0.0000000e+00 3.0000000e+00 
6.0000000e+00 0.0000000e+00 3.1500001e+00 
6.0000000e+00 0.0000000e+00 3.3000000e+00 
6.0000000e+00 0.0000000e+00 3.4500000e+00 
6.0000000e+00 0.0000000e+00 3.5999999e+00 
6.0000000e+00 0.0000000e+00 3.7500000e+00 
6.0000000e+00 0.0000000e+00 3.9000001e+00 
6.0000000e+00 0.0000000e+00 4.0500002e+00 
6.0000000e+00 0.0000000e+00 4.1999998e+00 
6.0000000e+00 0.0000000e+00 4.3499999e+00 
6.0000000e+00 0.0000000e+00 4.5000000e+00 
6.0000000e+00 0.0000000e+00 4.6500001e+00 
6.0000000e+00 0.0000000e+00 4.8000002e+00 
6.0000000e+00 0.0000000e+00 4.9499998e+00 
6.0000000e+00 0.0000000e+00 5.0999999e+00 
6.0000000e+00 0.0000000e+00 5.2500000e+00 
6.0000000e+00 0.0000000e+00 5.4000001e+00 
6.0000000e+00 0.0000000e+00 5.5500002e+00 
6.0000000e+00 0.0000000e+00 5.6999998e+00 
6.0000000e+00 0.0000000e+00 5.8499999e+00 
6.0000000e+00 0.0000000e+00 6.0000000e+00 
6.0000000e+00 0.0000000e+00 6.1500001e+00 
6.0000000e+00 0.0000000e+00 6.3000002e+00 
6.0000000e+00 0.0000000e+00 6.4499998e+00 
6.0000000e+00 0.0000000e+00 6.5999999e+00 
6.0000000e+00 0.0000000e+00 6.7500000e+00 
6.0000000e+00 0.0000000e+00 6.9000001e+00 
6.0000000e+00 0.0000000e+00 7.0500002e+00 
6.0000000e+00 0.0000000e+00 7.1999998e+00 
6.0000000e+00 0.0000000e+00 7.3499999e+00 
6.0000000e+00 0.0000000e+00 7.5000000e+00 
6.0000000e+00 0.0000000e+00 7.6500001e+00 
6.0000000e+00 0.0000000e+00 7.8000002e+00 
6.0000000e+00 0.0000000e+00 7.9499998e+00 
6.0000000e+00 0.0000000e+00 8.1000004e+00 
6.0000000e+00 0.0000000e+00 8.2500000e+00 
6.0000000e+00 0.0000000e+00 8.3999996e+00 
6.0000000e+00 0.0000000e+00 8.5500002e+00 
6.0000000e+00 0.0000000e+00 8.6999998e+00 
6.0000000e+00 0.0000000e+00 8.8500004e+00 
6.0000000e+00 0.0000000e+00 9.0000000e+00 
6.0000000e+00 0.0000000e+00 9.1499996e+00 
6.0000000e+00 0.0000000e+00 9.3000002e+00 
6.0000000e+00 0.0000000e+00 9.4499998e+00 
6.0000000e+00 0.0000000e+00 9.6000004e+00 
6.0000000e+00 0.0000000e+00 9.7500000e+00 
6.0000000e+00 0.0000000e+00 9.8999996e+00 
6.0000000e+00 0.0000000e+00 1.0050000e+01 
6.0000000e+00 0.0000000e+00 1.0200000e+01 
6.0000000e+00 0.0000000e+00 1.0350000e+01 
6.0000000e+00 0.0000000e+00 1.0500000e+01 
6.0000000e+00 0.0000000e+00 1.0650000e+01 
6.0000000e+00 0.0000000e+00 1.0800000e+01 
6.0000000e+00 0.0000000e+00 1.0950000e+01 
6.0000000e+00 0.0000000e+00 1.1100000e+01 
6.0000000e+00 0.0000000e+00 1.1250000e+01 
6.0000000e+00 0.0000000e+00 1.1400000e+01 
6.0000000e+00 0.0000000e+00 1.1550000e+01 
6.0000000e+00 0.0000000e+00 1.1700000e+01 
6.0000000e+00 0.0000000e+00 1.1850000e+01 
6.0000000e+00 0.0000000e+00 1.2000000e+01 
6.0000000e+00 0.0000000e+00 1.2150000e+01 
6.0000000e+00 0.0000000e+00 1.2300000e+01 
6.0000000e+00 0.0000000e+00 1.2450000e+01 
6.0000000e+00 0.0000000e+00 1.2600000e+01 
6.0000000e+00 0.0000000e+00 1.2750000e+01 
6.0000000e+00 0.0000000e+00 1.2900000e+01 
6.0000000e+00 0.0000000e+00 1.3050000e+01 
6.0000000e+00 0.0000000e+00 1.3200000e+01 
6.0000000e+00 0.0000000e+00 1.3350000e+01 
6.0000000e+00 0.0000000e+00 1.3500000e+01 
6.0000000e+00 0.0000000e+00 1.3650000e+01 
6.0000000e+00 0.0000000e+00 1.3800000e+01 
6.0000000e+00 0.0000000e+00 1.3950000e+01 
6.0000000e+00 0.0000000e+00 1.4100000e+01 
6.0000000e+00 0.0000000e+00 1.4250000e+01 
6.0000000e+00 0.0000000e+00 1.4400000e+01 
6.0000000e+00 0.0000000e+00 1.4550000e+01 
6.0000000e+00 0.0000000e+00 1.4700000e+01 
6.0000000e+00 0.0000000e+00 1.4850000e+01 
6.0000000e+00 0.0000000e+00 1.5000000e+01 
6.0000000e+00 0.0000000e+00 1.5150000e+01 
6.0000000e+00 0.0000000e+00 1.5300000e+01 
6.0000000e+00 0.0000000e+00 1.5450000e+01 
6.0000000e+00 0.0000000e+00 1.5600000e+01 
6.0000000e+00 0.0000000e+00 1.5750000e+01 
6.0000000e+00 0.0000000e+00 1.5900000e+01 
6.0000000e+00 0.0000000e+00 1.6049999e+01 
6.0000000e+00 0.0000000e+00 1.6200001e+01 
6.0000000e+00 0.0000000e+00 1.6350000e+01 
6.0000000e+00 0.0000000e+00 1.6500000e+01 
6.0000000e+00 0.0000000e+00 1.6650000e+01 
6.0000000e+00 0.0000000e+00 1.6799999e+01 
6.0000000e+00 0.0000000e+00 1.6950001e+01 
6.0000000e+00 0.0000000e+00 1.7100000e+01 
6.0000000e+00 0.0000000e+00 1.7250000e+01 
6.0000000e+00 0.0000000e+00 1.7400000e+01 
6.0000000e+00 0.0000000e+00 1.7549999e+01 
6.0000000e+00 0.0000000e+00 1.7700001e+01 
6.0000000e+00 0.0000000e+00 1.7850000e+01 
6.0000000e+00 0.0000000e+00 1.8000000e+01 
3.0000001e-01 0.0000000e+00 3.0000000e+00 
6.0000002e-01 0.0000000e+00 3.0000000e+00 
8.9999998e-01 0.0000000e+00 3.0000000e+00 
1.2000000e+00 0.0000000e+00 3.0000000e+00 
1.5000000e+00 0.0000000e+00 3.0000000e+00 
1.8000000e+00 0.0000000e+00 3.0000000e+00 
2.0999999e+00 0.0000000e+00 3.0000000e+00 
2.4000001e+00 0.0000000e+00 3.0000000e+00 
2.7000000e+00 0.0000000e+00 3.0000000e+00 
3.0000000e+00 0.0000000e+00 3.0000000e+00 
3.3000000e+00 0.0000000e+00 3.0000000e+00 
3.5999999e+00 0.0000000e+00 3.0000000e+00 
3.9000001e+00 0.0000000e+00 3.0000000e+00 
4.1999998e+00 0.0000000e+00 3.0000000e+00 
4.5000000e+00 0.0000000e+00 3.0000000e+00 
4.8000002e+00 0.0000000e+00 3.0000000e+00 
5.0999999e+00 0.0000000e+00 3.0000000e+00 
5.4000001e+00 0.0000000e+00 3.0000000e+00 
5.6999998e+00 0.0000000e+00 3.0000000e+00 
3.0000001e-01 0.0000000e+00 6.0000000e+00 
6.0000002e-01 0.0000000e+00 6.0000000e+00 
8.9999998e-01 0.0000000e+00 6.0000000e+00 
1.2000000e+00 0.0000000e+00 6.0000000e+00 
1.5000000e+00 0.0000000e+00 6.0000000e+00 
1.8000000e+00 0.0000000e+00 6.0000000e+00 
2.0999999e+00 0.0000000e+00 6.0000000e+00 
2.4000001e+00 0.0000000e+00 6.0000000e+00 
2.7000000e+00 0.0000000e+00 6.0000000e+00 
3.0000000e+00 0.0000000e+00 6.0000000e+00 
3.3000000e+00 0.0000000e+00 6.0000000e+00 
3.5999999e+00 0.0000000e+00 6.0000000e+00 
3.9000001e+00 0.0000000e+00 6.0000000e+00 
4.1999998e+00 0.0000000e+00 6.0000000e+00 
4.5000000e+00 0.0000000e+00 6.0000000e+00 
4.8000002e+00 0.0000000e+00 6.0000000e+00 
5.0999999e+00 0.0000000e+00 6.0000000e+00 
5.4000001e+00 0.0000000e+00 6.0000000e+00 
5.6999998e+00 0.0000000e+00 6.0000000e+00 
3.0000001e-01 0.0000000e+00 9.0000000e+00 
6.0000002e-01 0.0000000e+00 9.0000000e+00 
8.9999998e-01 0.0000000e+00 9.0000000e+00 
1.2000000e+00 0.0000000e+00 9.0000000e+00 
1.5000000e+00 0.0000000e+00 9.0000000e+00 
1.8000000e+00 0.0000000e+00 9.0000000e+00 
2.0999999e+00 0.0000000e+00 9.0000000e+00 
2.4000001e+00 0.0000000e+00 9.0000000e+00 
2.7000000e+00 0.0000000e+00 9.0000000e+00 
3.0000000e+00 0.0000000e+00 9.0000000e+00 
3.3000000e+00 0.0000000e+00 9.0000000e+00 
3.5999999e+00 0.0000000e+00 9.0000000e+00 
3.9000001e+00 0.0000000e+00 9.0000000e+00 
4.1999998e+00 0.0000000e+00 9.0000000e+00 
4.5000000e+00 0.0000000e+00 9.0000000e+00 
4.8000002e+00 0.0000000e+00 9.0000000e+00 
5.0999999e+00 0.0000000e+00 9.0000000e+00 
5.4000001e+00 0.0000000e+00 9.0000000e+00 
5.6999998e+00 0.0000000e+00 9.0000000e+00 
3.0000001e-01 0.0000000e+00 1.2000000e+01 
6.0000002e-01 0.0000000e+00 1.2000000e+01 
8.9999998e-01 0.0000000e+00 1.2000000e+01 
1.2000000e+00 0.0000000e+00 1.2000000e+01 
1.5000000e+00 0.0000000e+00 1.2000000e+01 
1.8000000e+00 0.0000000e+00 1.2000000e+01 
2.0999999e+00 0.0000000e+00 1.2000000e+01 
2.4000001e+00 0.0000000e+00 1.2000000e+01 
2.7000000e+00 0.0000000e+00 1.2000000e+01 
3.0000000e+00 0.0000000e+00 1.2000000e+01 
3.3000000e+00 0.0000000e+00 1.2000000e+01 
3.5999999e+00 0.0000000e+00 1.2000000e+01 
3.9000001e+00 0.0000000e+00 1.2000000e+01 
4.1999998e+00 0.0000000e+00 1.2000000e+01 
4.5000000e+00 0.0000000e+00 1.2000000e+01 
4.8000002e+00 0.0000000e+00 1.2000000e+01 
5.0999999e+00 0.0000000e+00 1.2000000e+01 
5.4000001e+00 0.0000000e+00 1.2000000e+01 
5.6999998e+00 0.0000000e+00 1.2000000e+01 
3.0000001e-01 0.0000000e+00 1.5000000e+01 
6.0000002e-01 0.0000000e+00 1.5000000e+01 
8.9999998e-01 0.0000000e+00 1.5000000e+01 
1.2000000e+00 0.0000000e+00 1.5000000e+01 
1.5000000e+00 0.0000000e+00 1.5000000e+01 
1.8000000e+00 0.0000000e+00 1.5000000e+01 
2.0999999e+00 0.0000000e+00 1.5000000e+01 
2.4000001e+00 0.0000000e+00 1.5000000e+01 
2.7000000e+00 0.0000000e+00 1.5000000e+01 
3.0000000e+00 0.0000000e+00 1.5000000e+01 
3.3000000e+00 0.0000000e+00 1.5000000e+01 
3.5999999e+00 0.0000000e+00 1.5000000e+01 
3.9000001e+00 0.0000000e+00 1.5000000e+01 
4.1999998e+00 0.0000000e+00 1.5000000e+01 
4.5000000e+00 0.0000000e+00 1.5000000e+01 
4.8000002e+00 0.0000000e+00 1.5000000e+01 
5.0999999e+00 0.0000000e+00 1.5000000e+01 
5.4000001e+00 0.0000000e+00 1.5000000e+01 
5.6999998e+00 0.0000000e+00 1.5000000e+01 
3.0000001e-01 0.0000000e+00 1.8000000e+01 
6.0000002e-01 0.0000000e+00 1.8000000e+01 
8.9999998e-01 0.0000000e+00 1.8000000e+01 
1.2000000e+00 0.0000000e+00 1.8000000e+01 
1.5000000e+00 0.0000000e+00 1.8000000e+01 
1.8000000e+00 0.0000000e+00 1.8000000e+01 
2.0999999e+00 0.0000000e+00 1.8000000e+01 
2.4000001e+00 0.0000000e+00 1.8000000e+01 
2.7000000e+00 0.0000000e+00 1.8000000e+01 
3.0000000e+00 0.0000000e+00 1.8000000e+01 
3.3000000e+00 0.0000000e+00 1.8000000e+01 
3.5999999e+00 0.0000000e+00 1.8000000e+01 
3.9000001e+00 0.0000000e+00 1.8000000e+01 
4.1999998e+00 0.0000000e+00 1.8000000e+01 
4.5000000e+00 0.0000000e+00 1.8000000e+01 
4.8000002e+00 0.0000000e+00 1.8000000e+01 
5.0999999e+00 0.0000000e+00 1.8000000e+01 
5.4000001e+00 0.0000000e+00 1.8000000e+01 
5.6999998e+00 0.0000000e+00 1.8000000e+01 

CELLS 360 1080
2 0 1
2 1 2
2 2 3
2 3 4
2 4 5
2 5 6
2 6 7
2 7 8
2 8 9
2 9 10
2 10 11
2 11 12
2 12 13
2 13 14
2 14 15
2 15 16
2 16 17
2 17 18
2 18 19
2 19 20
2 20 21
2 21 22
2 22 23
2 23 24
2 24 25
2 25 26
2 26 27
2 27 28
2 28 29
2 29 30
2 30 31
2 31 32
2 32 33
2 33 34
2 34 35
2 35 36
2 36 37
2 37 38
2 38 39
2 39 40
2 40 41
2 41 42
2 42 43
2 43 44
2 44 45
2 45 46
2 46 47
2 47 48
2 48 49
2 49 50
2 50 51
2 51 52
2 52 53
2 53 54
2 54 55
2 55 56
2 56 57
2 57 58
2 58 59
2 59 60
2 60 61
2 61 62
2 62 63
2 63 64
2 64 65
2 65 66
2 66 67
2 67 68
2 68 69
2 69 70
2 70 71
2 71 72
2 72 73
2 73 74
2 74 75
2 75 76
2 76 77
2 77 78
2 78 79
2 79 80
2 80 81
2 81 82
2 82 83
2 83 84
2 84 85
2 85 86
2 86 87
2 87 88
2 88 89
2 89 90
2 90 91
2 91 92
2 92 93
2 93 94
2 94 95
2 95 96
2 96 97
2 97 98
2 98 99
2 99 100
2 100 101
2 101 102
2 102 103
2 103 104
2 104 105
2 105 106
2 106 107
2 107 108
2 108 109
2 109 110
2 110 111
2 111 112
2 112 113
2 113 114
2 114 115
2 115 116
2 116 117
2 117 118
2 118 119
2 119 120
2 121 122
2 122 123
2 123 124
2 124 125
2 125 126
2 126 127
2 127 128
2 128 129
2 129 130
2 130 131
2 131 132
2 132 133
2 133 134
2 134 135
2 135 136
2 136 137
2 137 138
2 138 139
2 139 140
2 140 141
2 141 142
2 142 143
2 143 144
2 144 145
2 145 146
2 146 147
2 147 148
2 148 149
2 149 150
2 150 151
2 151 152
2 152 153
2 153 154
2 154 155
2 155 156
2 156 157
2 157 158
2 158 159
2 159 160
2 160 161
2 161 162
2 162 163
2 163 164
2 164 165
2 165 166
2 166 167
2 167 168
2 168 169
2 169 170
2 170 171
2 171 172
2 172 173
2 173 174
2 174 175
2 175 176
2 176 177
2 177 178
2 178 179
2 179 180
2 180 181
2 181 182
2 182 183
2 183 184
2 184 185
2 185 186
2 186 187
2 187 188
2 188 189
2 189 190
2 190 191
2 191 192
2 192 193
2 193 194
2 194 195
2 195 196
2 196 197
2 197 198
2 198 199
2 199 200
2 200 201
2 201 202
2 202 203
2 203 204
2 204 205
2 205 206
2 206 207
2 207 208
2 208 209
2 209 210
2 210 211
2 211 212
2 212 213
2 213 214
2 214 215
2 215 216
2 216 217
2 217 218
2 218 219
2 219 220
2 220 221
2 221 222
2 222 223
2 223 224
2 224 225
2 225 226
2 226 227
2 227 228
2 228 229
2 229 230
2 230 231
2 231 232
2 232 233
2 233 234
2 234 235
2 235 236
2 236 237
2 237 238
2 238 239
2 239 240
2 240 241
2 20 242
2 242 243
2 243 244
2 244 245
2 245 246
2 246 247
2 247 248
2 248 249
2 249 250
2 250 251
2 251 252
2 252 253
2 253 254
2 254 255
2 255 256
2 256 257
2 257 258
2 258 259
2 259 260
2 260 141
2 40 261
2 261 262
2 262 263
2 263 264
2 264 265
2 265 266
2 266 267
2 267 268
2 268 269
2 269 270
2 270 271
2 271 272
2 272 273
2 273 274
2 274 275
2 275 276
2 276 277
2 277 278
2 278 279
2 279 161
2 60 280
2 280 281
2 281 282
2 282 283
2 283 284
2 284 285
2 285 286
2 286 287
2 287 288
2 288 289
2 289 290
2 290 291
2 291 292
2 292 293
2 293 294
2 294 295
2 295 296
2 296 297
2 297 298
2 298 181
2 80 299
2 299 300
2 300 301
2 301 302
2 302 303
2 303 304
2 304 305
2 305 306
2 306 307
2 307 308
2 308 309
2 309 310
2 310 311
2 311 312
2 312 313
2 313 314
2 314 315
2 315 316
2 316 317
2 317 201
2 100 318
2 318 319
2 319 320
2 320 321
2 321 322
2 322 323
2 323 324
2 324 325
2 325 326
2 326 327
2 327 328
2 328 329
2 329 330
2 330 331
2 331 332
2 332 333
2 333 334
2 334 335
2 335 336
2 336 221
2 120 337
2 337 338
2 338 339
2 339 340
2 340 341
2 341 342
2 342 343
2 343 344
2 344 345
2 345 346
2 346 347
2 347 348
2 348 349
2 349 350
2 350 351
2 351 352
2 352 353
2 353 354
2 354 355
2 355 241

CELL_TYPES 360
3
3
3
3
3
3
3
3
3
3
3
3
3
3
3
3
3
3
3
3
3
3
3
3
3
3
3
3
3
3
3
3
3
3
3
3
3
3
3
3
3
3
3
3
3
3
3
3
3
3
3
3
3
3
3
3
3
3
3
3
3
3
3
3
3
3
3
3
3
3
3
3
3
3
3
3
3
3
3
3
3
3
3
3
3
3
3
3
3
3
3
3
3
3
3
3
3
3
3
3
3
3
3
3
3
3
3
3
3
3
3
3
3
3
3
3
3
3
3
3
3
3
3
3
3
3
3
3
3
3
3
3
3
3
3
3
3
3
3
3
3
3
3
3
3
3
3
3
3
3
3
3
3
3
3
3
3
3
3
3
3
3
3
3
3
3
3
3
3
3
3
3
3
3
3
3
3
3
3
3
3
3
3
3
3
3
3
3
3
3
3
3
3
3
3
3
3
3
3
3
3
3
3
3
3
3
3
3
3
3
3
3
3
3
3
3
3
3
3
3
3
3
3
3
3
3
3
3
3
3
3
3
3
3
3
3
3
3
3
3
3
3
3
3
3
3
3
3
3
3
3
3
3
3
3
3
3
3
3
3
3
3
3
3
3
3
3
3
3
3
3
3
3
3
3
3
3
3
3
3
3
3
3
3
3
3
3
3
3
3
3
3
3
3
3
3
3
3
3
3
3
3
3
3
3
3
3
3
3
3
3
3
3
3
3
3
3
3
3
3
3
3
3
3
3
3
3
3
3
3
3
3
3
3
3
3
3
3
3
3
3
3
3
3
3
3
3
3
3
3
3
3
3
3
3
3
3
3
3
3
POINT_DATA 356
FIELD FieldData 4
DISPLACEMENT 3 356  float
0.0000000e+00 0.0000000e+00 0.0000000e+00 
-3.6091647e-01 0.0000000e+00 -1.0800000e+02 
-1.3772223e+00 0.0000000e+00 -2.1600000e+02 
-2.9492521e+00 0.0000000e+00 -3.2400000e+02 
-4.9773407e+00 0.0000000e+00 -4.3200000e+02 
-7.3618221e+00 0.0000000e+00 -5.4000000e+02 
-1.0003032e+01 0.0000000e+00 -6.4800000e+02 
-1.2801305e+01 0.0000000e+00 -7.5600000e+02 
-1.5656974e+01 0.0000000e+00 -8.6400000e+02 
-1.8470375e+01 0.0000000e+00 -9.7200000e+02 
-2.1141844e+01 0.0000000e+00 -1.0800000e+03 
-2.3571714e+01 0.0000000e+00 -1.1880000e+03 
-2.5660320e+01 0.0000000e+00 -1.2960000e+03 
-2.7307995e+01 0.0000000e+00 -1.4040000e+03 
-2.8415077e+01 0.0000000e+00 -1.5120000e+03 
-2.8881899e+01 0.0000000e+00 -1.6200000e+03 
-2.8608793e+01 0.0000000e+00 -1.7280000e+03 
-2.7496099e+01 0.0000000e+00 -1.8360000e+03 
-2.5444147e+01 0.0000000e+00 -1.9440000e+03 
-2.2353275e+01 0.0000000e+00 -2.0520000e+03 
-1.8123816e+01 0.0000000e+00 -2.1600000e+03 
-1.3878531e+01 0.0000000e+00 -2.2500000e+03 
-1.0726592e+01 0.0000000e+00 -2.3400000e+03 
-8.5479431e+00 0.0000000e+00 -2.4300000e+03 
-7.2225280e+00 0.0000000e+00 -2.5200000e+03 
-6.6302943e+00 0.0000000e+00 -2.6100000e+03 
-6.6511865e+00 0.0000000e+00 -2.7000000e+03 
-7.1651497e+00 0.0000000e+00 -2.7900000e+03 
-8.0521297e+00 0.0000000e+00 -2.8800000e+03 
-9.1920719e+00 0.0000000e+00 -2.9700000e+03 
-1.0464922e+01 0.0000000e+00 -3.0600000e+03 
-1.1750624e+01 0.0000000e+00 -3.1500000e+03 
-1.2929125e+01 0.0000000e+00 -3.2400000e+03 
-1.3880369e+01 0.0000000e+00 -3.3300000e+03 
-1.4484302e+01 0.0000000e+00 -3.4200000e+03 
-1.4620869e+01 0.0000000e+00 -3.5100000e+03 
-1.4170015e+01 0.0000000e+00 -3.6000000e+03 
-1.3011687e+01 0.0000000e+00 -3.6900000e+03 
-1.1025829e+01 0.0000000e+00 -3.7800000e+03 
-8.0923872e+00 0.0000000e+00 -3.8700000e+03 
-4.0913062e+00 0.0000000e+00 -3.9600000e+03 
-1.3401659e-01 0.0000000e+00 -4.0320000e+03 
2.6711199e+00 0.0000000e+00 -4.1040000e+03 
4.4487610e+00 0.0000000e+00 -4.1760000e+03 
5.3235631e+00 0.0000000e+00 -4.2480000e+03 
5.4201841e+00 0.0000000e+00 -4.3200000e+03 
4.8632817e+00 0.0000000e+00 -4.3920000e+03 
3.7775130e+00 0.0000000e+00 -4.4640000e+03 
2.2875352e+00 0.0000000e+00 -4.5360000e+03 
5.1800561e-01 0.0000000e+00 -4.6080000e+03 
-1.4064183e+00 0.0000000e+00 -4.6800000e+03 
-3.3610792e+00 0.0000000e+00 -4.7520000e+03 
-5.2213197e+00 0.0000000e+00 -4.8240000e+03 
-6.8624821e+00 0.0000000e+00 -4.8960000e+03 
-8.1599102e+00 0.0000000e+00 -4.9680000e+03 
-8.9889450e+00 0.0000000e+00 -5.0400000e+03 
-9.2249308e+00 0.0000000e+00 -5.1120000e+03 
-8.7432089e+00 0.0000000e+00 -5.1840000e+03 
-7.4191222e+00 0.0000000e+00 -5.2560000e+03 
-5.1280141e+00 0.0000000e+00 -5.3280000e+03 
-1.7452265e+00 0.0000000e+00 -5.4000000e+03 
1.6068542e+00 0.0000000e+00 -5.4540000e+03 
3.8071513e+00 0.0000000e+00 -5.5080000e+03 
4.9822850e+00 0.0000000e+00 -5.5620000e+03 
5.2588773e+00 0.0000000e+00 -5.6160000e+03 
4.7635474e+00 0.0000000e+00 -5.6700000e+03 
3.6229169e+00 0.0000000e+00 -5.7240000e+03 
1.9636064e+00 0.0000000e+00 -5.7780000e+03 
-8.7763518e-02 0.0000000e+00 -5.8320000e+03 
-2.4045720e+00 0.0000000e+00 -5.8860000e+03 
-4.8601980e+00 0.0000000e+00 -5.9400000e+03 
-7.3280215e+00 0.0000000e+00 -5.9940000e+03 
-9.6814213e+00 0.0000000e+00 -6.0480000e+03 
-1.1793777e+01 0.0000000e+00 -6.1020000e+03 
-1.3538466e+01 0.0000000e+00 -6.1560000e+03 
-1.4788872e+01 0.0000000e+00 -6.2100000e+03 
-1.5418369e+01 0.0000000e+00 -6.2640000e+03 
-1.5300340e+01 0.0000000e+00 -6.3180000e+03 
-1.4308163e+01 0.0000000e+00 -6.3720000e+03 
-1.2315216e+01 0.0000000e+00 -6.4260000e+03 
-9.1948805e+00 0.0000000e+00 -6.4800000e+03 
-6.0722795e+00 0.0000000e+00 -6.5160000e+03 
-4.0656414e+00 0.0000000e+00 -6.5520000e+03 
-3.0380013e+00 0.0000000e+00 -6.5880000e+03 
-2.8523941e+00 0.0000000e+00 -6.6240000e+03 
-3.3718550e+00 0.0000000e+00 -6.6600000e+03 
-4.4594193e+00 0.0000000e+00 -6.6960000e+03 
-5.9781208e+00 0.0000000e+00 -6.7320000e+03 
-7.7909961e+00 0.0000000e+00 -6.7680000e+03 
-9.7610788e+00 0.0000000e+00 -6.8040000e+03 
-1.1751406e+01 0.0000000e+00 -6.8400000e+03 
-1.3625010e+01 0.0000000e+00 -6.8760000e+03 
-1.5244927e+01 0.0000000e+00 -6.9120000e+03 
-1.6474194e+01 0.0000000e+00 -6.9480000e+03 
-1.7175842e+01 0.0000000e+00 -6.9840000e+03 
-1.7212910e+01 0.0000000e+00 -7.0200000e+03 
-1.6448431e+01 0.0000000e+00 -7.0560000e+03 
-1.4745439e+01 0.0000000e+00 -7.0920000e+03 
-1.1966971e+01 0.0000000e+00 -7.1280000e+03 
-7.9760618e+00 0.0000000e+00 -7.1640000e+03 
-2.6357455e+00 0.0000000e+00 -7.2000000e+03 
2.9963281e+00 0.0000000e+00 -7.2180000e+03 
7.8644876e+00 0.0000000e+00 -7.2360000e+03 
1.2108663e+01 0.0000000e+00 -7.2540000e+03 
1.5868783e+01 0.0000000e+00 -7.2720000e+03 
1.9284781e+01 0.0000000e+00 -7.2900000e+03 
2.2496584e+01 0.0000000e+00 -7.3080000e+03 
2.5644123e+01 0.0000000e+00 -7.3260000e+03 
2.8867329e+01 0.0000000e+00 -7.3440000e+03 
3.2306133e+01 0.0000000e+00 -7.3620000e+03 
3.6100464e+01 0.0000000e+00 -7.3800000e+03 
4.0390251e+01 0.0000000e+00 -7.3980000e+03 
4.5315426e+01 0.0000000e+00 -7.4160000e+03 
5.1015915e+01 0.0000000e+00 -7.4340000e+03 
5.7631657e+01 0.0000000e+00 -7.4520000e+03 
6.5302574e+01 0.0000000e+00 -7.4700000e+03 
7.4168602e+01 0.0000000e+00 -7.4880000e+03 
8.4369667e+01 0.0000000e+00 -7.5060000e+03 
9.6045700e+01 0.0000000e+00 -7.5240000e+03 
1.0933663e+02 0.0000000e+00 -7.5420000e+03 
1.2438239e+02 0.0000000e+00 -7.5600000e+03 
0.0000000e+00 0.0000000e+00 0.0000000e+00 
3.6091647e-01 0.0000000e+00 -1.0800000e+02 
1.3772223e+00 0.0000000e+00 -2.1600000e+02 
2.9492521e+00 0.0000000e+00 -3.2400000e+02 
4.9773407e+00 0.0000000e+00 -4.3200000e+02 
7.3618221e+00 0.0000000e+00 -5.4000000e+02 
1.0003032e+01 0.0000000e+00 -6.4800000e+02 
1.2801305e+01 0.0000000e+00 -7.5600000e+02 
1.5656974e+01 0.0000000e+00 -8.6400000e+02 
1.8470375e+01 0.0000000e+00 -9.7200000e+02 
2.1141844e+01 0.0000000e+00 -1.0800000e+03 
2.3571714e+01 0.0000000e+00 -1.1880000e+03 
2.5660320e+01 0.0000000e+00 -1.2960000e+03 
2.7307995e+01 0.0000000e+00 -1.4040000e+03 
2.8415077e+01 0.0000000e+00 -1.5120000e+03 
2.8881899e+01 0.0000000e+00 -1.6200000e+03 
2.8608793e+01 0.0000000e+00 -1.7280000e+03 
2.7496099e+01 0.0000000e+00 -1.8360000e+03 
2.5444147e+01 0.0000000e+00 -1.9440000e+03 
2.2353275e+01 0.0000000e+00 -2.0520000e+03 
1.8123816e+01 0.0000000e+00 -2.1600000e+03 
1.3878531e+01 0.0000000e+00 -2.2500000e+03 
1.0726592e+01 0.0000000e+00 -2.3400000e+03 
8.5479431e+00 0.0000000e+00 -2.4300000e+03 
7.2225285e+00 0.0000000e+00 -2.5200000e+03 
6.6302943e+00 0.0000000e+00 -2.6100000e+03 
6.6511865e+00 0.0000000e+00 -2.7000000e+03 
7.1651497e+00 0.0000000e+00 -2.7900000e+03 
8.0521297e+00 0.0000000e+00 -2.8800000e+03 
9.1920719e+00 0.0000000e+00 -2.9700000e+03 
1.0464922e+01 0.0000000e+00 -3.0600000e+03 
1.1750624e+01 0.0000000e+00 -3.1500000e+03 
1.2929125e+01 0.0000000e+00 -3.2400000e+03 
1.3880369e+01 0.0000000e+00 -3.3300000e+03 
1.4484302e+01 0.0000000e+00 -3.4200000e+03 
1.4620869e+01 0.0000000e+00 -3.5100000e+03 
1.4170015e+01 0.0000000e+00 -3.6000000e+03 
1.3011687e+01 0.0000000e+00 -3.6900000e+03 
1.1025829e+01 0.0000000e+00 -3.7800000e+03 
8.0923872e+00 0.0000000e+00 -3.8700000e+03 
4.0913062e+00 0.0000000e+00 -3.9600000e+03 
1.3401662e-01 0.0000000e+00 -4.0320000e+03 
-2.6711199e+00 0.0000000e+00 -4.1040000e+03 
-4.4487605e+00 0.0000000e+00 -4.1760000e+03 
-5.3235631e+00 0.0000000e+00 -4.2480000e+03 
-5.4201841e+00 0.0000000e+00 -4.3200000e+03 
-4.8632817e+00 0.0000000e+00 -4.3920000e+03 
-3.7775130e+00 0.0000000e+00 -4.4640000e+03 
-2.2875352e+00 0.0000000e+00 -4.5360000e+03 
-5.1800555e-01 0.0000000e+00 -4.6080000e+03 
1.4064183e+00 0.0000000e+00 -4.6800000e+03 
3.3610792e+00 0.0000000e+00 -4.7520000e+03 
5.2213197e+00 0.0000000e+00 -4.8240000e+03 
6.8624825e+00 0.0000000e+00 -4.8960000e+03 
8.1599102e+00 0.0000000e+00 -4.9680000e+03 
8.9889450e+00 0.0000000e+00 -5.0400000e+03 
9.2249308e+00 0.0000000e+00 -5.1120000e+03 
8.7432089e+00 0.0000000e+00 -5.1840000e+03 
7.4191222e+00 0.0000000e+00 -5.2560000e+03 
5.1280141e+00 0.0000000e+00 -5.3280000e+03 
1.7452266e+00 0.0000000e+00 -5.4000000e+03 
-1.6068541e+00 0.0000000e+00 -5.4540000e+03 
-3.8071511e+00 0.0000000e+00 -5.5080000e+03 
-4.9822850e+00 0.0000000e+00 -5.5620000e+03 
-5.2588768e+00 0.0000000e+00 -5.6160000e+03 
-4.7635474e+00 0.0000000e+00 -5.6700000e+03 
-3.6229167e+00 0.0000000e+00 -5.7240000e+03 
-1.9636062e+00 0.0000000e+00 -5.7780000e+03 
8.7763600e-02 0.0000000e+00 -5.8320000e+03 
2.4045720e+00 0.0000000e+00 -5.8860000e+03 
4.8601985e+00 0.0000000e+00 -5.9400000e+03 
7.3280215e+00 0.0000000e+00 -5.9940000e+03 
9.6814213e+00 0.0000000e+00 -6.0480000e+03 
1.1793777e+01 0.0000000e+00 -6.1020000e+03 
1.3538467e+01 0.0000000e+00 -6.1560000e+03 
1.4788872e+01 0.0000000e+00 -6.2100000e+03 
1.5418369e+01 0.0000000e+00 -6.2640000e+03 
1.5300340e+01 0.0000000e+00 -6.3180000e+03 
1.4308163e+01 0.0000000e+00 -6.3720000e+03 
1.2315216e+01 0.0000000e+00 -6.4260000e+03 
9.1948805e+00 0.0000000e+00 -6.4800000e+03 
6.0722795e+00 0.0000000e+00 -6.5160000e+03 
4.0656414e+00 0.0000000e+00 -6.5520000e+03 
3.0380015e+00 0.0000000e+00 -6.5880000e+03 
2.8523943e+00 0.0000000e+00 -6.6240000e+03 
3.3718553e+00 0.0000000e+00 -6.6600000e+03 
4.4594193e+00 0.0000000e+00 -6.6960000e+03 
5.9781213e+00 0.0000000e+00 -6.7320000e+03 
7.7909961e+00 0.0000000e+00 -6.7680000e+03 
9.7610798e+00 0.0000000e+00 -6.8040000e+03 
1.1751406e+01 0.0000000e+00 -6.8400000e+03 
1.3625010e+01 0.0000000e+00 -6.8760000e+03 
1.5244927e+01 0.0000000e+00 -6.9120000e+03 
1.6474194e+01 0.0000000e+00 -6.9480000e+03 
1.7175842e+01 0.0000000e+00 -6.9840000e+03 
1.7212910e+01 0.0000000e+00 -7.0200000e+03 
1.6448431e+01 0.0000000e+00 -7.0560000e+03 
1.4745440e+01 0.0000000e+00 -7.0920000e+03 
1.1966971e+01 0.0000000e+00 -7.1280000e+03 
7.9760618e+00 0.0000000e+00 -7.1640000e+03 
2.6357458e+00 0.0000000e+00 -7.2000000e+03 
-2.9963281e+00 0.0000000e+00 -7.2180000e+03 
-7.8644872e+00 0.0000000e+00 -7.2360000e+03 
-1.2108663e+01 0.0000000e+00 -7.2540000e+03 
-1.5868783e+01 0.0000000e+00 -7.2720000e+03 
-1.9284781e+01 0.0000000e+00 -7.2900000e+03 
-2.2496584e+01 0.0000000e+00 -7.3080000e+03 
-2.5644123e+01 0.0000000e+00 -7.3260000e+03 
-2.8867329e+01 0.0000000e+00 -7.3440000e+03 
-3.2306133e+01 0.0000000e+00 -7.3620000e+03 
-3.6100464e+01 0.0000000e+00 -7.3800000e+03 
-4.0390247e+01 0.0000000e+00 -7.3980000e+03 
-4.5315422e+01 0.0000000e+00 -7.4160000e+03 