# vtk DataFile Version 4.0
vtk output
ASCII
DATASET UNSTRUCTURED_GRID
POINTS 212 float
0.0000000e+00 0.0000000e+00 0.0000000e+00 
0.0000000e+00 0.0000000e+00 2.5000000e-01 
0.0000000e+00 0.0000000e+00 5.0000000e-01 
0.0000000e+00 0.0000000e+00 7.5000000e-01 
0.0000000e+00 0.0000000e+00 1.0000000e+00 
0.0000000e+00 0.0000000e+00 1.2500000e+00 
0.0000000e+00 0.0000000e+00 1.5000000e+00 
0.0000000e+00 0.0000000e+00 1.7500000e+00 
0.0000000e+00 0.0000000e+00 2.0000000e+00 
0.0000000e+00 0.0000000e+00 2.2500000e+00 
0.0000000e+00 0.0000000e+00 2.5000000e+00 
0.0000000e+00 0.0000000e+00 2.7500000e+00 
0.0000000e+00 0.0000000e+00 3.0000000e+00 
0.0000000e+00 0.0000000e+00 3.2500000e+00 
0.0000000e+00 0.0000000e+00 3.5000000e+00 
0.0000000e+00 0.0000000e+00 3.7500000e+00 
0.0000000e+00 0.0000000e+00 4.0000000e+00 
0.0000000e+00 0.0000000e+00 4.2500000e+00 
0.0000000e+00 0.0000000e+00 4.5000000e+00 
0.0000000e+00 0.0000000e+00 4.7500000e+00 
0.0000000e+00 0.0000000e+00 5.0000000e+00 
0.0000000e+00 0.0000000e+00 5.2500000e+00 
0.0000000e+00 0.0000000e+00 5.5000000e+00 
0.0000000e+00 0.0000000e+00 5.7500000e+00 
0.0000000e+00 0.0000000e+00 6.0000000e+00 
0.0000000e+00 0.0000000e+00 6.2500000e+00 
0.0000000e+00 0.0000000e+00 6.5000000e+00 
0.0000000e+00 0.0000000e+00 6.7500000e+00 
0.0000000e+00 0.0000000e+00 7.0000000e+00 
0.0000000e+00 0.0000000e+00 7.2500000e+00 
0.0000000e+00 0.0000000e+00 7.5000000e+00 
0.0000000e+00 0.0000000e+00 7.7500000e+00 
0.0000000e+00 0.0000000e+00 8.0000000e+00 
0.0000000e+00 0.0000000e+00 8.2500000e+00 
0.0000000e+00 0.0000000e+00 8.5000000e+00 
0.0000000e+00 0.0000000e+00 8.7500000e+00 
0.0000000e+00 0.0000000e+00 9.0000000e+00 
0.0000000e+00 0.0000000e+00 9.2500000e+00 
0.0000000e+00 0.0000000e+00 9.5000000e+00 
0.0000000e+00 0.0000000e+00 9.7500000e+00 
0.0000000e+00 0.0000000e+00 1.0000000e+01 
0.0000000e+00 0.0000000e+00 1.0250000e+01 
0.0000000e+00 0.0000000e+00 1.0500000e+01 
0.0000000e+00 0.0000000e+00 1.0750000e+01 
0.0000000e+00 0.0000000e+00 1.1000000e+01 
0.0000000e+00 0.0000000e+00 1.1250000e+01 
0.0000000e+00 0.0000000e+00 1.1500000e+01 
0.0000000e+00 0.0000000e+00 1.1750000e+01 
0.0000000e+00 0.0000000e+00 1.2000000e+01 
0.0000000e+00 0.0000000e+00 1.2250000e+01 
0.0000000e+00 0.0000000e+00 1.2500000e+01 
0.0000000e+00 0.0000000e+00 1.2750000e+01 
0.0000000e+00 0.0000000e+00 1.3000000e+01 
0.0000000e+00 0.0000000e+00 1.3250000e+01 
0.0000000e+00 0.0000000e+00 1.3500000e+01 
0.0000000e+00 0.0000000e+00 1.3750000e+01 
0.0000000e+00 0.0000000e+00 1.4000000e+01 
0.0000000e+00 0.0000000e+00 1.4250000e+01 
0.0000000e+00 0.0000000e+00 1.4500000e+01 
0.0000000e+00 0.0000000e+00 1.4750000e+01 
0.0000000e+00 0.0000000e+00 1.5000000e+01 
0.0000000e+00 0.0000000e+00 1.5250000e+01 
0.0000000e+00 0.0000000e+00 1.5500000e+01 
0.0000000e+00 0.0000000e+00 1.5750000e+01 
0.0000000e+00 0.0000000e+00 1.6000000e+01 
0.0000000e+00 0.0000000e+00 1.6250000e+01 
0.0000000e+00 0.0000000e+00 1.6500000e+01 
0.0000000e+00 0.0000000e+00 1.6750000e+01 
0.0000000e+00 0.0000000e+00 1.7000000e+01 
0.0000000e+00 0.0000000e+00 1.7250000e+01 
0.0000000e+00 0.0000000e+00 1.7500000e+01 
0.0000000e+00 0.0000000e+00 1.7750000e+01 
0.0000000e+00 0.0000000e+00 1.8000000e+01 
5.0000000e-01 0.0000000e+00 3.0000000e+00 
5.0000000e-01 0.0000000e+00 6.0000000e+00 
5.0000000e-01 0.0000000e+00 9.0000000e+00 
5.0000000e-01 0.0000000e+00 1.2000000e+01 
5.0000000e-01 0.0000000e+00 1.5000000e+01 
5.0000000e-01 0.0000000e+00 1.8000000e+01 
1.0000000e+00 0.0000000e+00 3.0000000e+00 
1.0000000e+00 0.0000000e+00 6.0000000e+00 
1.0000000e+00 0.0000000e+00 9.0000000e+00 
1.0000000e+00 0.0000000e+00 1.2000000e+01 
1.0000000e+00 0.0000000e+00 1.5000000e+01 
1.0000000e+00 0.0000000e+00 1.8000000e+01 
1.5000000e+00 0.0000000e+00 3.0000000e+00 
1.5000000e+00 0.0000000e+00 6.0000000e+00 
1.5000000e+00 0.0000000e+00 9.0000000e+00 
1.5000000e+00 0.0000000e+00 1.2000000e+01 
1.5000000e+00 0.0000000e+00 1.5000000e+01 
1.5000000e+00 0.0000000e+00 1.8000000e+01 
2.0000000e+00 0.0000000e+00 3.0000000e+00 
2.0000000e+00 0.0000000e+00 6.0000000e+00 
2.0000000e+00 0.0000000e+00 9.0000000e+00 
2.0000000e+00 0.0000000e+00 1.2000000e+01 
2.0000000e+00 0.0000000e+00 1.5000000e+01 
2.0000000e+00 0.0000000e+00 1.8000000e+01 
2.5000000e+00 0.0000000e+00 3.0000000e+00 
2.5000000e+00 0.0000000e+00 6.0000000e+00 
2.5000000e+00 0.0000000e+00 9.0000000e+00 
2.5000000e+00 0.0000000e+00 1.2000000e+01 
2.5000000e+00 0.0000000e+00 1.5000000e+01 
2.5000000e+00 0.0000000e+00 1.8000000e+01 
3.0000000e+00 0.0000000e+00 3.0000000e+00 
3.0000000e+00 0.0000000e+00 6.0000000e+00 
3.0000000e+00 0.0000000e+00 9.0000000e+00 
3.0000000e+00 0.0000000e+00 1.2000000e+01 
3.0000000e+00 0.0000000e+00 1.5000000e+01 
3.0000000e+00 0.0000000e+00 1.8000000e+01 
3.5000000e+00 0.0000000e+00 3.0000000e+00 
3.5000000e+00 0.0000000e+00 6.0000000e+00 
3.5000000e+00 0.0000000e+00 9.0000000e+00 
3.5000000e+00 0.0000000e+00 1.2000000e+01 
3.5000000e+00 0.0000000e+00 1.5000000e+01 
3.5000000e+00 0.0000000e+00 1.8000000e+01 
4.0000000e+00 0.0000000e+00 3.0000000e+00 
4.0000000e+00 0.0000000e+00 6.0000000e+00 
4.0000000e+00 0.0000000e+00 9.0000000e+00 
4.0000000e+00 0.0000000e+00 1.2000000e+01 
4.0000000e+00 0.0000000e+00 1.5000000e+01 
4.0000000e+00 0.0000000e+00 1.8000000e+01 
4.5000000e+00 0.0000000e+00 3.0000000e+00 
4.5000000e+00 0.0000000e+00 6.0000000e+00 
4.5000000e+00 0.0000000e+00 9.0000000e+00 
4.5000000e+00 0.0000000e+00 1.2000000e+01 
4.5000000e+00 0.0000000e+00 1.5000000e+01 
4.5000000e+00 0.0000000e+00 1.8000000e+01 
5.0000000e+00 0.0000000e+00 3.0000000e+00 
5.0000000e+00 0.0000000e+00 6.0000000e+00 
5.0000000e+00 0.0000000e+00 9.0000000e+00 
5.0000000e+00 0.0000000e+00 1.2000000e+01 
5.0000000e+00 0.0000000e+00 1.5000000e+01 
5.0000000e+00 0.0000000e+00 1.8000000e+01 
5.5000000e+00 0.0000000e+00 3.0000000e+00 
5.5000000e+00 0.0000000e+00 6.0000000e+00 
5.5000000e+00 0.0000000e+00 9.0000000e+00 
5.5000000e+00 0.0000000e+00 1.2000000e+01 
5.5000000e+00 0.0000000e+00 1.5000000e+01 
5.5000000e+00 0.0000000e+00 1.8000000e+01 
6.0000000e+00 0.0000000e+00 0.0000000e+00 
6.0000000e+00 0.0000000e+00 2.5000000e-01 
6.0000000e+00 0.0000000e+00 5.0000000e-01 
6.0000000e+00 0.0000000e+00 7.5000000e-01 
6.0000000e+00 0.0000000e+00 1.0000000e+00 
6.0000000e+00 0.0000000e+00 1.2500000e+00 
6.0000000e+00 0.0000000e+00 1.5000000e+00 
6.0000000e+00 0.0000000e+00 1.7500000e+00 
6.0000000e+00 0.0000000e+00 2.0000000e+00 
6.0000000e+00 0.0000000e+00 2.2500000e+00 
6.0000000e+00 0.0000000e+00 2.5000000e+00 
6.0000000e+00 0.0000000e+00 2.7500000e+00 
6.0000000e+00 0.0000000e+00 3.0000000e+00 
6.0000000e+00 0.0000000e+00 3.2500000e+00 
6.0000000e+00 0.0000000e+00 3.5000000e+00 
6.0000000e+00 0.0000000e+00 3.7500000e+00 
6.0000000e+00 0.0000000e+00 4.0000000e+00 
6.0000000e+00 0.0000000e+00 4.2500000e+00 
6.0000000e+00 0.0000000e+00 4.5000000e+00 
6.0000000e+00 0.0000000e+00 4.7500000e+00 
6.0000000e+00 0.0000000e+00 5.0000000e+00 
6.0000000e+00 0.0000000e+00 5.2500000e+00 
6.0000000e+00 0.0000000e+00 5.5000000e+00 
6.0000000e+00 0.0000000e+00 5.7500000e+00 
6.0000000e+00 0.0000000e+00 6.0000000e+00 
6.0000000e+00 0.0000000e+00 6.2500000e+00 
6.0000000e+00 0.0000000e+00 6.5000000e+00 
6.0000000e+00 0.0000000e+00 6.7500000e+00 
6.0000000e+00 0.0000000e+00 7.0000000e+00 
6.0000000e+00 0.0000000e+00 7.2500000e+00 
6.0000000e+00 0.0000000e+00 7.5000000e+00 
6.0000000e+00 0.0000000e+00 7.7500000e+00 
6.0000000e+00 0.0000000e+00 8.0000000e+00 
6.0000000e+00 0.0000000e+00 8.2500000e+00 
6.0000000e+00 0.0000000e+00 8.5000000e+00 
6.0000000e+00 0.0000000e+00 8.7500000e+00 
6.0000000e+00 0.0000000e+00 9.0000000e+00 
6.0000000e+00 0.0000000e+00 9.2500000e+00 
6.0000000e+00 0.0000000e+00 9.5000000e+00 
6.0000000e+00 0.0000000e+00 9.7500000e+00 
6.0000000e+00 0.0000000e+00 1.0000000e+01 
6.0000000e+00 0.0000000e+00 1.0250000e+01 
6.0000000e+00 0.0000000e+00 1.0500000e+01 
6.0000000e+00 0.0000000e+00 1.0750000e+01 
6.0000000e+00 0.0000000e+00 1.1000000e+01 
6.0000000e+00 0.0000000e+00 1.1250000e+01 
6.0000000e+00 0.0000000e+00 1.1500000e+01 
6.0000000e+00 0.0000000e+00 1.1750000e+01 
6.0000000e+00 0.0000000e+00 1.2000000e+01 
6.0000000e+00 0.0000000e+00 1.2250000e+01 
6.0000000e+00 0.0000000e+00 1.2500000e+01 
6.0000000e+00 0.0000000e+00 1.2750000e+01 
6.0000000e+00 0.0000000e+00 1.3000000e+01 
6.0000000e+00 0.0000000e+00 1.3250000e+01 
6.0000000e+00 0.0000000e+00 1.3500000e+01 
6.0000000e+00 0.0000000e+00 1.3750000e+01 
6.0000000e+00 0.0000000e+00 1.4000000e+01 
6.0000000e+00 0.0000000e+00 1.4250000e+01 
6.0000000e+00 0.0000000e+00 1.4500000e+01 
6.0000000e+00 0.0000000e+00 1.4750000e+01 
6.0000000e+00 0.0000000e+00 1.5000000e+01 
6.0000000e+00 0.0000000e+00 1.5250000e+01 
6.0000000e+00 0.0000000e+00 1.5500000e+01 
6.0000000e+00 0.0000000e+00 1.5750000e+01 
6.0000000e+00 0.0000000e+00 1.6000000e+01 
6.0000000e+00 0.0000000e+00 1.6250000e+01 
6.0000000e+00 0.0000000e+00 1.6500000e+01 
6.0000000e+00 0.0000000e+00 1.6750000e+01 
6.0000000e+00 0.0000000e+00 1.7000000e+01 
6.0000000e+00 0.0000000e+00 1.7250000e+01 
6.0000000e+00 0.0000000e+00 1.7500000e+01 
6.0000000e+00 0.0000000e+00 1.7750000e+01 
6.0000000e+00 0.0000000e+00 1.8000000e+01 

CELLS 216 648
2 0 1
2 1 2
2 2 3
2 3 4
2 4 5
2 5 6
2 6 7
2 7 8
2 8 9
2 9 10
2 10 11
2 11 12
2 12 13
2 13 14
2 14 15
2 15 16
2 16 17
2 17 18
2 18 19
2 19 20
2 20 21
2 21 22
2 22 23
2 23 24
2 24 25
2 25 26
2 26 27
2 27 28
2 28 29
2 29 30
2 30 31
2 31 32
2 32 33
2 33 34
2 34 35
2 35 36
2 36 37
2 37 38
2 38 39
2 39 40
2 40 41
2 41 42
2 42 43
2 43 44
2 44 45
2 45 46
2 46 47
2 47 48
2 48 49
2 49 50
2 50 51
2 51 52
2 52 53
2 53 54
2 54 55
2 55 56
2 56 57
2 57 58
2 58 59
2 59 60
2 60 61
2 61 62
2 62 63
2 63 64
2 64 65
2 65 66
2 66 67
2 67 68
2 68 69
2 69 70
2 70 71
2 71 72
2 139 140
2 140 141
2 141 142
2 142 143
2 143 144
2 144 145
2 145 146
2 146 147
2 147 148
2 148 149
2 149 150
2 150 151
2 151 152
2 152 153
2 153 154
2 154 155
2 155 156
2 156 157
2 157 158
2 158 159
2 159 160
2 160 161
2 161 162
2 162 163
2 163 164
2 164 165
2 165 166
2 166 167
2 167 168
2 168 169
2 169 170
2 170 171
2 171 172
2 172 173
2 173 174
2 174 175
2 175 176
2 176 177
2 177 178
2 178 179
2 179 180
2 180 181
2 181 182
2 182 183
2 183 184
2 184 185
2 185 186
2 186 187
2 187 188
2 188 189
2 189 190
2 190 191
2 191 192
2 192 193
2 193 194
2 194 195
2 195 196
2 196 197
2 197 198
2 198 199
2 199 200
2 200 201
2 201 202
2 202 203
2 203 204
2 204 205
2 205 206
2 206 207
2 207 208
2 208 209
2 209 210
2 210 211
2 12 73
2 73 79
2 79 85
2 85 91
2 91 97
2 97 103
2 103 109
2 109 115
2 115 121
2 121 127
2 127 133
2 133 151
2 24 74
2 74 80
2 80 86
2 86 92
2 92 98
2 98 104
2 104 110
2 110 116
2 116 122
2 122 128
2 128 134
2 134 163
2 36 75
2 75 81
2 81 87
2 87 93
2 93 99
2 99 105
2 105 111
2 111 117
2 117 123
2 123 129
2 129 135
2 135 175
2 48 76
2 76 82
2 82 88
2 88 94
2 94 100
2 100 106
2 106 112
2 112 118
2 118 124
2 124 130
2 130 136
2 136 187
2 60 77
2 77 83
2 83 89
2 89 95
2 95 101
2 101 107
2 107 113
2 113 119
2 119 125
2 125 131
2 131 137
2 137 199
2 72 78
2 78 84
2 84 90
2 90 96
2 96 102
2 102 108
2 108 114
2 114 120
2 120 126
2 126 132
2 132 138
2 138 211

CELL_TYPES 216
3
3
3
3
3
3
3
3
3
3
3
3
3
3
3
3
3
3
3
3
3
3
3
3
3
3
3
3
3
3
3
3
3
3
3
3
3
3
3
3
3
3
3
3
3
3
3
3
3
3
3
3
3
3
3
3
3
3
3
3
3
3
3
3
3
3
3
3
3
3
3
3
3
3
3
3
3
3
3
3
3
3
3
3
3
3
3
3
3
3
3
3
3
3
3
3
3
3
3
3
3
3
3
3
3
3
3
3
3
3
3
3
3
3
3
3
3
3
3
3
3
3
3
3
3
3
3
3
3
3
3
3
3
3
3
3
3
3
3
3
3
3
3
3
3
3
3
3
3
3
3
3
3
3
3
3
3
3
3
3
3
3
3
3
3
3
3
3
3
3
3
3
3
3
3
3
3
3
3
3
3
3
3
3
3
3
3
3
3
3
3
3
3
3
3
3
3
3
3
3
3
3
3
3
3
3
3
3
3
3
3
3
3
3
3
3
POINT_DATA 212
FIELD FieldData 8
DISPLACEMENT 3 212  float
0.0000000e+00 0.0000000e+00 0.0000000e+00 
-2.2974316e-04 0.0000000e+00 -3.0130261e-06 
-4.4984938e-04 0.0000000e+00 -6.0051643e-06 
-6.5068167e-04 0.0000000e+00 -8.9764135e-06 
-8.2260318e-04 0.0000000e+00 -1.1926775e-05 
-9.5597695e-04 0.0000000e+00 -1.4856248e-05 
-1.0411659e-03 0.0000000e+00 -1.7764833e-05 
-1.0685333e-03 0.0000000e+00 -2.0652529e-05 
-1.0284421e-03 0.0000000e+00 -2.3519337e-05 
-9.1125525e-04 0.0000000e+00 -2.6365256e-05 
-7.0733594e-04 0.0000000e+00 -2.9190287e-05 
-4.0704725e-04 0.0000000e+00 -3.1994430e-05 
-7.5216030e-07 0.0000000e+00 -3.4777684e-05 
3.6487804e-04 0.0000000e+00 -3.7286798e-05 
5.5796356e-04 0.0000000e+00 -3.9775023e-05 
6.1032863e-04 0.0000000e+00 -4.2242362e-05 
5.5379741e-04 0.0000000e+00 -4.4688812e-05 
4.2019403e-04 0.0000000e+00 -4.7114372e-05 
2.4134277e-04 0.0000000e+00 -4.9519047e-05 
4.9067781e-05 0.0000000e+00 -5.1902829e-05 
-1.2480677e-04 0.0000000e+00 -5.4265725e-05 
-2.4845666e-04 0.0000000e+00 -5.6607732e-05 
-2.9005777e-04 0.0000000e+00 -5.8928854e-05 
-2.1778586e-04 0.0000000e+00 -6.1229082e-05 
1.8326152e-07 0.0000000e+00 -6.3508429e-05 
2.2805482e-04 0.0000000e+00 -6.5513632e-05 
3.2643019e-04 0.0000000e+00 -6.7497946e-05 
3.2172771e-04 0.0000000e+00 -6.9461370e-05 
2.4036571e-04 0.0000000e+00 -7.1403905e-05 
1.0876252e-04 0.0000000e+00 -7.3325558e-05 
-4.6663528e-05 0.0000000e+00 -7.5226315e-05 
-1.9949410e-04 0.0000000e+00 -7.7106190e-05 
-3.2331087e-04 0.0000000e+00 -7.8965175e-05 
-3.9169550e-04 0.0000000e+00 -8.0803271e-05 
-3.7822966e-04 0.0000000e+00 -8.2620478e-05 
-2.5649500e-04 0.0000000e+00 -8.4416795e-05 
-7.3192133e-08 0.0000000e+00 -8.6192231e-05 
2.5239371e-04 0.0000000e+00 -8.7693523e-05 
3.6370300e-04 0.0000000e+00 -8.9173926e-05 
3.6243207e-04 0.0000000e+00 -9.0633439e-05 
2.7715822e-04 0.0000000e+00 -9.2072063e-05 
1.3645888e-04 0.0000000e+00 -9.3489798e-05 
-3.1088643e-05 0.0000000e+00 -9.4886651e-05 
-1.9690699e-04 0.0000000e+00 -9.6262615e-05 
-3.3241877e-04 0.0000000e+00 -9.7617682e-05 
-4.0904668e-04 0.0000000e+00 -9.8951867e-05 
-3.9821333e-04 0.0000000e+00 -1.0026516e-04 
-2.7134139e-04 0.0000000e+00 -1.0155757e-04 
1.4652366e-07 0.0000000e+00 -1.0282909e-04 
2.7955178e-04 0.0000000e+00 -1.0382647e-04 
4.2729432e-04 0.0000000e+00 -1.0480296e-04 
4.6762932e-04 0.0000000e+00 -1.0575856e-04 
4.2481199e-04 0.0000000e+00 -1.0669327e-04 
3.2309751e-04 0.0000000e+00 -1.0760711e-04 
1.8674112e-04 0.0000000e+00 -1.0850004e-04 
3.9997987e-05 0.0000000e+00 -1.0937209e-04 
-9.2876689e-05 0.0000000e+00 -1.1022325e-04 
-1.8762771e-04 0.0000000e+00 -1.1105352e-04 
-2.1999989e-04 0.0000000e+00 -1.1186291e-04 
-1.6573801e-04 0.0000000e+00 -1.1265140e-04 
-5.8687829e-07 0.0000000e+00 -1.1341901e-04 
1.3284499e-04 0.0000000e+00 -1.1391248e-04 
1.0349027e-04 0.0000000e+00 -1.1438506e-04 
-4.7084082e-05 0.0000000e+00 -1.1483675e-04 
-2.7731113e-04 0.0000000e+00 -1.1526755e-04 
-5.4562395e-04 0.0000000e+00 -1.1567747e-04 
-8.1045553e-04 0.0000000e+00 -1.1606649e-04 
-1.0302389e-03 0.0000000e+00 -1.1643463e-04 
-1.1634073e-03 0.0000000e+00 -1.1678188e-04 
-1.1683936e-03 0.0000000e+00 -1.1710824e-04 
-1.0036309e-03 0.0000000e+00 -1.1741371e-04 
-6.2755233e-04 0.0000000e+00 -1.1769830e-04 
1.4091435e-06 0.0000000e+00 -1.1796199e-04 
-6.2680027e-07 0.0000000e+00 -1.4853277e-03 
1.5271793e-07 0.0000000e+00 -1.2187363e-03 
-6.0993443e-08 0.0000000e+00 -1.2985206e-03 
1.2210305e-07 0.0000000e+00 -1.3531995e-03 
-4.8906526e-07 0.0000000e+00 -1.1352811e-03 
1.1742862e-06 0.0000000e+00 -2.1308833e-03 
-5.0144018e-07 0.0000000e+00 -3.5685918e-03 
1.2217434e-07 0.0000000e+00 -3.0603732e-03 
-4.8794757e-08 0.0000000e+00 -3.1868760e-03 
9.7682438e-08 0.0000000e+00 -3.2726803e-03 
-3.9125220e-07 0.0000000e+00 -2.8678006e-03 
9.3942896e-07 0.0000000e+00 -4.6742694e-03 
-3.7608015e-07 0.0000000e+00 -5.7466999e-03 
9.1630753e-08 0.0000000e+00 -5.0505488e-03 
-3.6596070e-08 0.0000000e+00 -5.2133882e-03 
7.3261823e-08 0.0000000e+00 -5.3234012e-03 
-2.9343917e-07 0.0000000e+00 -4.7731074e-03 
7.0457173e-07 0.0000000e+00 -7.2102500e-03 
-2.5072009e-07 0.0000000e+00 -7.6013082e-03 
6.1087171e-08 0.0000000e+00 -6.7709195e-03 
-2.4397382e-08 0.0000000e+00 -6.9597140e-03 
4.8841212e-08 0.0000000e+00 -7.0870188e-03 
-1.9562611e-07 0.0000000e+00 -6.4328574e-03 
4.6971448e-07 0.0000000e+00 -9.3204817e-03 
-1.2536005e-07 0.0000000e+00 -8.8335993e-03 
3.0543582e-08 0.0000000e+00 -7.9226689e-03 
-1.2198695e-08 0.0000000e+00 -8.1270365e-03 
2.4420601e-08 0.0000000e+00 -8.2647158e-03 
-9.7813064e-08 0.0000000e+00 -7.5482340e-03 
2.3485723e-07 0.0000000e+00 -1.0706147e-02 
-3.1593495e-15 0.0000000e+00 -9.2642847e-03 
-5.6087125e-15 0.0000000e+00 -8.3265062e-03 
-8.3641183e-15 0.0000000e+00 -8.5360650e-03 
-1.1085060e-14 0.0000000e+00 -8.6772023e-03 
-1.4256457e-14 0.0000000e+00 -7.9399478e-03 
-1.6914318e-14 0.0000000e+00 -1.1187957e-02 
1.2536005e-07 0.0000000e+00 -8.8335993e-03 
-3.0543593e-08 0.0000000e+00 -7.9226689e-03 
1.2198679e-08 0.0000000e+00 -8.1270365e-03 
-2.4420622e-08 0.0000000e+00 -8.2647158e-03 
9.7813036e-08 0.0000000e+00 -7.5482340e-03 
-2.3485725e-07 0.0000000e+00 -1.0706147e-02 
2.5072009e-07 0.0000000e+00 -7.6013082e-03 
-6.1087178e-08 0.0000000e+00 -6.7709195e-03 
2.4397366e-08 0.0000000e+00 -6.9597140e-03 
-4.8841233e-08 0.0000000e+00 -7.0870188e-03 
1.9562609e-07 0.0000000e+00 -6.4328574e-03 
-4.6971451e-07 0.0000000e+00 -9.3204817e-03 
3.7608015e-07 0.0000000e+00 -5.7466999e-03 
-9.1630767e-08 0.0000000e+00 -5.0505488e-03 
3.6596052e-08 0.0000000e+00 -5.2133882e-03 
-7.3261845e-08 0.0000000e+00 -5.3234012e-03 
2.9343914e-07 0.0000000e+00 -4.7731074e-03 
-7.0457173e-07 0.0000000e+00 -7.2102500e-03 
5.0144018e-07 0.0000000e+00 -3.5685918e-03 
-1.2217436e-07 0.0000000e+00 -3.0603732e-03 
4.8794739e-08 0.0000000e+00 -3.1868760e-03 
-9.7682459e-08 0.0000000e+00 -3.2726803e-03 
3.9125217e-07 0.0000000e+00 -2.8678006e-03 
-9.3942896e-07 0.0000000e+00 -4.6742694e-03 
6.2680027e-07 0.0000000e+00 -1.4853277e-03 
-1.5271794e-07 0.0000000e+00 -1.2187363e-03 
6.0993429e-08 0.0000000e+00 -1.2985206e-03 
-1.2210307e-07 0.0000000e+00 -1.3531995e-03 
4.8906526e-07 0.0000000e+00 -1.1352811e-03 
-1.1742862e-06 0.0000000e+00 -2.1308833e-03 
0.0000000e+00 0.0000000e+00 0.0000000e+00 
2.2974316e-04 0.0000000e+00 -3.0130261e-06 
4.4984938e-04 0.0000000e+00 -6.0051643e-06 
6.5068167e-04 0.0000000e+00 -8.9764135e-06 
8.2260318e-04 0.0000000e+00 -1.1926775e-05 
9.5597695e-04 0.0000000e+00 -1.4856248e-05 
1.0411659e-03 0.0000000e+00 -1.7764833e-05 
1.0685333e-03 0.0000000e+00 -2.0652529e-05 
1.0284421e-03 0.0000000e+00 -2.3519337e-05 
9.1125525e-04 0.0000000e+00 -2.6365256e-05 
7.0733594e-04 0.0000000e+00 -2.9190287e-05 
4.0704725e-04 0.0000000e+00 -3.1994430e-05 
7.5216030e-07 0.0000000e+00 -3.4777684e-05 
-3.6487804e-04 0.0000000e+00 -3.7286798e-05 
-5.5796356e-04 0.0000000e+00 -3.9775023e-05 
-6.1032863e-04 0.0000000e+00 -4.2242362e-05 
-5.5379741e-04 0.0000000e+00 -4.4688812e-05 
-4.2019403e-04 0.0000000e+00 -4.7114372e-05 
-2.4134277e-04 0.0000000e+00 -4.9519047e-05 
-4.9067781e-05 0.0000000e+00 -5.1902829e-05 
1.2480677e-04 0.0000000e+00 -5.4265725e-05 
2.4845666e-04 0.0000000e+00 -5.6607732e-05 
2.9005777e-04 0.0000000e+00 -5.8928854e-05 
2.1778586e-04 0.0000000e+00 -6.1229082e-05 
-1.8326152e-07 0.0000000e+00 -6.3508429e-05 
-2.2805482e-04 0.0000000e+00 -6.5513632e-05 
-3.2643019e-04 0.0000000e+00 -6.7497946e-05 
-3.2172771e-04 0.0000000e+00 -6.9461370e-05 
-2.4036571e-04 0.0000000e+00 -7.1403905e-05 
-1.0876252e-04 0.0000000e+00 -7.3325558e-05 
4.6663528e-05 0.0000000e+00 -7.5226315e-05 
1.9949410e-04 0.0000000e+00 -7.7106190e-05 
3.2331087e-04 0.0000000e+00 -7.8965175e-05 
3.9169550e-04 0.0000000e+00 -8.0803271e-05 
3.7822966e-04 0.0000000e+00 -8.2620478e-05 
2.5649500e-04 0.0000000e+00 -8.4416795e-05 
7.3192112e-08 0.0000000e+00 -8.6192231e-05 
-2.5239371e-04 0.0000000e+00 -8.7693523e-05 
-3.6370300e-04 0.0000000e+00 -8.9173926e-05 
-3.6243207e-04 0.0000000e+00 -9.0633439e-05 
-2.7715822e-04 0.0000000e+00 -9.2072063e-05 
-1.3645888e-04 0.0000000e+00 -9.3489798e-05 
3.1088643e-05 0.0000000e+00 -9.4886651e-05 
1.9690699e-04 0.0000000e+00 -9.6262615e-05 
3.3241877e-04 0.0000000e+00 -9.7617682e-05 
4.0904668e-04 0.0000000e+00 -9.8951867e-05 
3.9821333e-04 0.0000000e+00 -1.0026516e-04 
2.7134139e-04 0.0000000e+00 -1.0155757e-04 
-1.4652367e-07 0.0000000e+00 -1.0282909e-04 
-2.7955178e-04 0.0000000e+00 -1.0382647e-04 
-4.2729432e-04 0.0000000e+00 -1.0480296e-04 
-4.6762932e-04 0.0000000e+00 -1.0575856e-04 
-4.2481199e-04 0.0000000e+00 -1.0669327e-04 
-3.2309751e-04 0.0000000e+00 -1.0760711e-04 
-1.8674112e-04 0.0000000e+00 -1.0850004e-04 
-3.9997987e-05 0.0000000e+00 -1.0937209e-04 
9.2876689e-05 0.0000000e+00 -1.1022325e-04 
1.8762771e-04 0.0000000e+00 -1.1105352e-04 
2.1999989e-04 0.0000000e+00 -1.1186291e-04 
1.6573801e-04 0.0000000e+00 -1.1265140e-04 
5.8687829e-07 0.0000000e+00 -1.1341901e-04 
-1.3284499e-04 0.0000000e+00 -1.1391248e-04 
-1.0349027e-04 0.0000000e+00 -1.1438506e-04 
4.7084082e-05 0.0000000e+00 -1.1483675e-04 
2.7731113e-04 0.0000000e+00 -1.1526755e-04 
5.4562395e-04 0.0000000e+00 -1.1567747e-04 
8.1045553e-04 0.0000000e+00 -1.1606649e-04 
1.0302389e-03 0.0000000e+00 -1.1643463e-04 
1.1634073e-03 0.0000000e+00 -1.1678188e-04 
1.1683936e-03 0.0000000e+00 -1.1710824e-04 
1.0036309e-03 0.0000000e+00 -1.1741371e-04 
6.2755233e-04 0.0000000e+00 -1.1769830e-04 
-1.4091435e-06 0.0000000e+00 -1.1796199e-04 
ROTATION 3 212  float
0.0000000e+00 -9.2539727e-04 0.0000000e+00 
0.0000000e+00 -9.0612337e-04 0.0000000e+00 
0.0000000e+00 -8.4830169e-04 0.0000000e+00 
0.0000000e+00 -7.5193227e-04 0.0000000e+00 
0.0000000e+00 -6.1701506e-04 0.0000000e+00 
0.0000000e+00 -4.4355009e-04 0.0000000e+00 
0.0000000e+00 -2.3153736e-04 0.0000000e+00 
0.0000000e+00 1.9023166e-05 0.0000000e+00 
0.0000000e+00 3.0813145e-04 0.0000000e+00 
0.0000000e+00 6.3578755e-04 0.0000000e+00 
0.0000000e+00 1.0019913e-03 0.0000000e+00 
0.0000000e+00 1.4067430e-03 0.0000000e+00 
0.0000000e+00 1.8500424e-03 0.0000000e+00 
0.0000000e+00 1.0962153e-03 0.0000000e+00 
0.0000000e+00 4.6968504e-04 0.0000000e+00 
0.0000000e+00 -2.9548488e-05 0.0000000e+00 
0.0000000e+00 -4.0148527e-04 0.0000000e+00 
0.0000000e+00 -6.4612535e-04 0.0000000e+00 
0.0000000e+00 -7.6346862e-04 0.0000000e+00 
0.0000000e+00 -7.5351523e-04 0.0000000e+00 
0.0000000e+00 -6.1626505e-04 0.0000000e+00 
0.0000000e+00 -3.5171813e-04 0.0000000e+00 
0.0000000e+00 4.0125535e-05 0.0000000e+00 
0.0000000e+00 5.5926596e-04 0.0000000e+00 
0.0000000e+00 1.2057031e-03 0.0000000e+00 
0.0000000e+00 6.3488167e-04 0.0000000e+00 
0.0000000e+00 1.6973357e-04 0.0000000e+00 
0.0000000e+00 -1.8974119e-04 0.0000000e+00 
0.0000000e+00 -4.4354261e-04 0.0000000e+00 
0.0000000e+00 -5.9167069e-04 0.0000000e+00 
0.0000000e+00 -6.3412549e-04 0.0000000e+00 
0.0000000e+00 -5.7090691e-04 0.0000000e+00 
0.0000000e+00 -4.0201499e-04 0.0000000e+00 
0.0000000e+00 -1.2744978e-04 0.0000000e+00 
0.0000000e+00 2.5278880e-04 0.0000000e+00 
0.0000000e+00 7.3870068e-04 0.0000000e+00 
0.0000000e+00 1.3302859e-03 0.0000000e+00 
0.0000000e+00 7.0850080e-04 0.0000000e+00 
0.0000000e+00 2.0102515e-04 0.0000000e+00 
0.0000000e+00 -1.9214110e-04 0.0000000e+00 
0.0000000e+00 -4.7099794e-04 0.0000000e+00 
0.0000000e+00 -6.3554535e-04 0.0000000e+00 
0.0000000e+00 -6.8578328e-04 0.0000000e+00 
0.0000000e+00 -6.2171184e-04 0.0000000e+00 
0.0000000e+00 -4.4333100e-04 0.0000000e+00 
0.0000000e+00 -1.5064070e-04 0.0000000e+00 
0.0000000e+00 2.5635902e-04 0.0000000e+00 
0.0000000e+00 7.7766815e-04 0.0000000e+00 
0.0000000e+00 1.4132868e-03 0.0000000e+00 
0.0000000e+00 8.3812542e-04 0.0000000e+00 
0.0000000e+00 3.5998493e-04 0.0000000e+00 
0.0000000e+00 -2.1134783e-05 0.0000000e+00 
0.0000000e+00 -3.0523370e-04 0.0000000e+00 
0.0000000e+00 -4.9231184e-04 0.0000000e+00 
0.0000000e+00 -5.8236922e-04 0.0000000e+00 
0.0000000e+00 -5.7540578e-04 0.0000000e+00 
0.0000000e+00 -4.7142155e-04 0.0000000e+00 
0.0000000e+00 -2.7041652e-04 0.0000000e+00 
0.0000000e+00 2.7609287e-05 0.0000000e+00 
0.0000000e+00 4.2265587e-04 0.0000000e+00 
0.0000000e+00 9.1472326e-04 0.0000000e+00 
0.0000000e+00 1.8044301e-04 0.0000000e+00 
0.0000000e+00 -3.8756945e-04 0.0000000e+00 
0.0000000e+00 -7.8931410e-04 0.0000000e+00 
0.0000000e+00 -1.0247910e-03 0.0000000e+00 
0.0000000e+00 -1.0940001e-03 0.0000000e+00 
0.0000000e+00 -9.9694135e-04 0.0000000e+00 
0.0000000e+00 -7.3361490e-04 0.0000000e+00 
0.0000000e+00 -3.0402062e-04 0.0000000e+00 
0.0000000e+00 2.9184142e-04 0.0000000e+00 
0.0000000e+00 1.0539712e-03 0.0000000e+00 
0.0000000e+00 1.9823690e-03 0.0000000e+00 
0.0000000e+00 3.0770344e-03 0.0000000e+00 
0.0000000e+00 3.7330254e-03 0.0000000e+00 
0.0000000e+00 3.1960760e-03 0.0000000e+00 
0.0000000e+00 3.2998950e-03 0.0000000e+00 
0.0000000e+00 3.3690624e-03 0.0000000e+00 
0.0000000e+00 2.9535927e-03 0.0000000e+00 
0.0000000e+00 4.7555189e-03 0.0000000e+00 
0.0000000e+00 4.4207410e-03 0.0000000e+00 
0.0000000e+00 3.9911815e-03 0.0000000e+00 
0.0000000e+00 4.0742368e-03 0.0000000e+00 
0.0000000e+00 4.1295704e-03 0.0000000e+00 
0.0000000e+00 3.7971949e-03 0.0000000e+00 
0.0000000e+00 5.2387356e-03 0.0000000e+00 
0.0000000e+00 4.1522430e-03 0.0000000e+00 
0.0000000e+00 3.8300734e-03 0.0000000e+00 
0.0000000e+00 3.8923647e-03 0.0000000e+00 
0.0000000e+00 3.9338651e-03 0.0000000e+00 
0.0000000e+00 3.6845834e-03 0.0000000e+00 
0.0000000e+00 4.7657387e-03 0.0000000e+00 
0.0000000e+00 3.1665843e-03 0.0000000e+00 
0.0000000e+00 2.9518045e-03 0.0000000e+00 
0.0000000e+00 2.9933322e-03 0.0000000e+00 
0.0000000e+00 3.0209993e-03 0.0000000e+00 
0.0000000e+00 2.8548113e-03 0.0000000e+00 
0.0000000e+00 3.5755818e-03 0.0000000e+00 
0.0000000e+00 1.7028189e-03 0.0000000e+00 
0.0000000e+00 1.5954290e-03 0.0000000e+00 
0.0000000e+00 1.6161929e-03 0.0000000e+00 
0.0000000e+00 1.6300264e-03 0.0000000e+00 
0.0000000e+00 1.5469324e-03 0.0000000e+00 
0.0000000e+00 1.9073175e-03 0.0000000e+00 
0.0000000e+00 3.6358857e-16 0.0000000e+00 
0.0000000e+00 3.2661347e-16 0.0000000e+00 
0.0000000e+00 4.0672619e-16 0.0000000e+00 
0.0000000e+00 3.2045093e-16 0.0000000e+00 
0.0000000e+00 3.6975108e-16 0.0000000e+00 
0.0000000e+00 2.1717749e-16 0.0000000e+00 
0.0000000e+00 -1.7028189e-03 0.0000000e+00 
0.0000000e+00 -1.5954290e-03 0.0000000e+00 
0.0000000e+00 -1.6161929e-03 0.0000000e+00 
0.0000000e+00 -1.6300264e-03 0.0000000e+00 
0.0000000e+00 -1.5469324e-03 0.0000000e+00 
0.0000000e+00 -1.9073175e-03 0.0000000e+00 
0.0000000e+00 -3.1665843e-03 0.0000000e+00 
0.0000000e+00 -2.9518045e-03 0.0000000e+00 
0.0000000e+00 -2.9933322e-03 0.0000000e+00 
0.0000000e+00 -3.0209993e-03 0.0000000e+00 
0.0000000e+00 -2.8548113e-03 0.0000000e+00 
0.0000000e+00 -3.5755818e-03 0.0000000e+00 
0.0000000e+00 -4.1522430e-03 0.0000000e+00 
0.0000000e+00 -3.8300734e-03 0.0000000e+00 
0.0000000e+00 -3.8923647e-03 0.0000000e+00 
0.0000000e+00 -3.9338651e-03 0.0000000e+00 
0.0000000e+00 -3.6845834e-03 0.0000000e+00 
0.0000000e+00 -4.7657387e-03 0.0000000e+00 
0.0000000e+00 -4.4207410e-03 0.0000000e+00 
0.0000000e+00 -3.9911815e-03 0.0000000e+00 
0.0000000e+00 -4.0742368e-03 0.0000000e+00 
0.0000000e+00 -4.1295704e-03 0.0000000e+00 
0.0000000e+00 -3.7971949e-03 0.0000000e+00 
0.0000000e+00 -5.2387356e-03 0.0000000e+00 
0.0000000e+00 -3.7330254e-03 0.0000000e+00 
0.0000000e+00 -3.1960760e-03 0.0000000e+00 
0.0000000e+00 -3.2998950e-03 0.0000000e+00 
0.0000000e+00 -3.3690624e-03 0.0000000e+00 
0.0000000e+00 -2.9535927e-03 0.0000000e+00 
0.0000000e+00 -4.7555189e-03 0.0000000e+00 
0.0000000e+00 9.2539727e-04 0.0000000e+00 
0.0000000e+00 9.0612337e-04 0.0000000e+00 
0.0000000e+00 8.4830169e-04 0.0000000e+00 
0.0000000e+00 7.5193227e-04 0.0000000e+00 
0.0000000e+00 6.1701506e-04 0.0000000e+00 
0.0000000e+00 4.4355009e-04 0.0000000e+00 
0.0000000e+00 2.3153736e-04 0.0000000e+00 
0.0000000e+00 -1.9023166e-05 0.0000000e+00 
0.0000000e+00 -3.0813145e-04 0.0000000e+00 
0.0000000e+00 -6.3578755e-04 0.0000000e+00 
0.0000000e+00 -1.0019913e-03 0.0000000e+00 
0.0000000e+00 -1.4067430e-03 0.0000000e+00 
0.0000000e+00 -1.8500424e-03 0.0000000e+00 
0.0000000e+00 -1.0962153e-03 0.0000000e+00 
0.0000000e+00 -4.6968504e-04 0.0000000e+00 
0.0000000e+00 2.9548488e-05 0.0000000e+00 
0.0000000e+00 4.0148527e-04 0.0000000e+00 
0.0000000e+00 6.4612535e-04 0.0000000e+00 
0.0000000e+00 7.6346862e-04 0.0000000e+00 
0.0000000e+00 7.5351523e-04 0.0000000e+00 
0.0000000e+00 6.1626505e-04 0.0000000e+00 
0.0000000e+00 3.5171813e-04 0.0000000e+00 
0.0000000e+00 -4.0125535e-05 0.0000000e+00 
0.0000000e+00 -5.5926596e-04 0.0000000e+00 
0.0000000e+00 -1.2057031e-03 0.0000000e+00 
0.0000000e+00 -6.3488167e-04 0.0000000e+00 
0.0000000e+00 -1.6973357e-04 0.0000000e+00 
0.0000000e+00 1.8974119e-04 0.0000000e+00 
0.0000000e+00 4.4354261e-04 0.0000000e+00 
0.0000000e+00 5.9167069e-04 0.0000000e+00 
0.0000000e+00 6.3412549e-04 0.0000000e+00 
0.0000000e+00 5.7090691e-04 0.0000000e+00 
0.0000000e+00 4.0201499e-04 0.0000000e+00 
0.0000000e+00 1.2744978e-04 0.0000000e+00 
0.0000000e+00 -2.5278880e-04 0.0000000e+00 
0.0000000e+00 -7.3870068e-04 0.0000000e+00 
0.0000000e+00 -1.3302859e-03 0.0000000e+00 
0.0000000e+00 -7.0850080e-04 0.0000000e+00 
0.0000000e+00 -2.0102515e-04 0.0000000e+00 
0.0000000e+00 1.9214110e-04 0.0000000e+00 
0.0000000e+00 4.7099794e-04 0.0000000e+00 
0.0000000e+00 6.3554535e-04 0.0000000e+00 
0.0000000e+00 6.8578328e-04 0.0000000e+00 
0.0000000e+00 6.2171184e-04 0.0000000e+00 
0.0000000e+00 4.4333100e-04 0.0000000e+00 
0.0000000e+00 1.5064070e-04 0.0000000e+00 
0.0000000e+00 -2.5635902e-04 0.0000000e+00 
0.0000000e+00 -7.7766815e-04 0.0000000e+00 
0.0000000e+00 -1.4132868e-03 0.0000000e+00 
0.0000000e+00 -8.3812542e-04 0.0000000e+00 
0.0000000e+00 -3.5998493e-04 0.0000000e+00 
0.0000000e+00 2.1134783e-05 0.0000000e+00 
0.0000000e+00 3.0523370e-04 0.0000000e+00 
0.0000000e+00 4.9231184e-04 0.0000000e+00 
0.0000000e+00 5.8236922e-04 0.0000000e+00 
0.0000000e+00 5.7540578e-04 0.0000000e+00 
0.0000000e+00 4.7142155e-04 0.0000000e+00 
0.0000000e+00 2.7041652e-04 0.0000000e+00 
0.0000000e+00 -2.7609287e-05 0.0000000e+00 
0.0000000e+00 -4.2265587e-04 0.0000000e+00 
0.0000000e+00 -9.1472326e-04 0.0000000e+00 
0.0000000e+00 -1.8044301e-04 0.0000000e+00 
0.0000000e+00 3.8756945e-04 0.0000000e+00 
0.0000000e+00 7.8931410e-04 0.0000000e+00 
0.0000000e+00 1.0247910e-03 0.0000000e+00 