# vtk DataFile Version 4.0
vtk output
ASCII
DATASET UNSTRUCTURED_GRID
POINTS 30 float
0.0000000e+00 0.0000000e+00 0.0000000e+00 
0.0000000e+00 0.0000000e+00 8.0000001e-01 
0.0000000e+00 0.0000000e+00 1.6000000e+00 
0.0000000e+00 0.0000000e+00 2.4000001e+00 
0.0000000e+00 0.0000000e+00 3.2000000e+00 
0.0000000e+00 0.0000000e+00 4.0000000e+00 
0.0000000e+00 0.0000000e+00 4.8000002e+00 
0.0000000e+00 0.0000000e+00 5.5999999e+00 
0.0000000e+00 0.0000000e+00 6.4000001e+00 
0.0000000e+00 0.0000000e+00 7.1999998e+00 
0.0000000e+00 0.0000000e+00 8.0000000e+00 
1.0000000e+01 0.0000000e+00 0.0000000e+00 
1.0000000e+01 0.0000000e+00 8.0000001e-01 
1.0000000e+01 0.0000000e+00 1.6000000e+00 
1.0000000e+01 0.0000000e+00 2.4000001e+00 
1.0000000e+01 0.0000000e+00 3.2000000e+00 
1.0000000e+01 0.0000000e+00 4.0000000e+00 
1.0000000e+01 0.0000000e+00 4.8000002e+00 
1.0000000e+01 0.0000000e+00 5.5999999e+00 
1.0000000e+01 0.0000000e+00 6.4000001e+00 
1.0000000e+01 0.0000000e+00 7.1999998e+00 
1.0000000e+01 0.0000000e+00 8.0000000e+00 
2.0000000e+00 0.0000000e+00 4.0000000e+00 
4.0000000e+00 0.0000000e+00 4.0000000e+00 
6.0000000e+00 0.0000000e+00 4.0000000e+00 
8.0000000e+00 0.0000000e+00 4.0000000e+00 
2.0000000e+00 0.0000000e+00 8.0000000e+00 
4.0000000e+00 0.0000000e+00 8.0000000e+00 
6.0000000e+00 0.0000000e+00 8.0000000e+00 
8.0000000e+00 0.0000000e+00 8.0000000e+00 

CELLS 30 90
2 0 1
2 1 2
2 2 3
2 3 4
2 4 5
2 5 6
2 6 7
2 7 8
2 8 9
2 9 10
2 11 12
2 12 13
2 13 14
2 14 15
2 15 16
2 16 17
2 17 18
2 18 19
2 19 20
2 20 21
2 5 22
2 22 23
2 23 24
2 24 25
2 25 16
2 10 26
2 26 27
2 27 28
2 28 29
2 29 21

CELL_TYPES 30
3
3
3
3
3
3
3
3
3
3
3
3
3
3
3
3
3
3
3
3
3
3
3
3
3
3
3
3
3
3
POINT_DATA 30
FIELD FieldData 7
DISPLACEMENT 3 30  float
0.0000000e+00 0.0000000e+00 0.0000000e+00 
-2.0601528e-03 0.0000000e+00 7.3839892e-06 
-4.0218704e-03 0.0000000e+00 1.4767978e-05 
-5.7873060e-03 0.0000000e+00 1.9913847e-05 
-7.2622080e-03 0.0000000e+00 2.1529342e-05 
-8.3578760e-03 0.0000000e+00 2.3144838e-05 
-9.1030141e-03 0.0000000e+00 2.6137748e-05 
-9.6187573e-03 0.0000000e+00 2.9130659e-05 
-9.9562891e-03 0.0000000e+00 3.2123571e-05 
-1.0167382e-02 0.0000000e+00 3.3053686e-05 
-1.0306156e-02 0.0000000e+00 3.3983801e-05 
0.0000000e+00 0.0000000e+00 0.0000000e+00 
-2.1031520e-03 0.0000000e+00 -4.6577597e-07 
-4.0922472e-03 0.0000000e+00 1.0516953e-06 
-5.8675250e-03 0.0000000e+00 4.0369509e-06 
-7.3202183e-03 0.0000000e+00 4.1680428e-06 
-8.3720610e-03 0.0000000e+00 4.2991346e-06 
-9.1532366e-03 0.0000000e+00 6.8309664e-06 
-9.7673275e-03 0.0000000e+00 8.1237276e-06 
-1.0158241e-02 0.0000000e+00 1.1930374e-05 
-1.0319117e-02 0.0000000e+00 1.2763559e-05 
-1.0266875e-02 0.0000000e+00 1.3596744e-05 
-8.3636418e-03 0.0000000e+00 1.5248561e-03 
-8.3621433e-03 0.0000000e+00 1.3942572e-03 
-8.3650332e-03 0.0000000e+00 1.0568637e-04 
-8.3679240e-03 0.0000000e+00 -8.5979450e-04 
-1.0301409e-02 0.0000000e+00 2.7799778e-04 
-1.0288497e-02 0.0000000e+00 4.9942930e-04 
-1.0281771e-02 0.0000000e+00 8.8550401e-04 
-1.0274112e-02 0.0000000e+00 6.6897634e-04 
ROTATION 3 30  float
0.0000000e+00 -2.5956982e-03 0.0000000e+00 
0.0000000e+00 -2.5341762e-03 0.0000000e+00 
0.0000000e+00 -2.3496102e-03 0.0000000e+00 
0.0000000e+00 -2.0442072e-03 0.0000000e+00 
0.0000000e+00 -1.6248269e-03 0.0000000e+00 
0.0000000e+00 -1.0961222e-03 0.0000000e+00 
0.0000000e+00 -7.7738764e-04 0.0000000e+00 
0.0000000e+00 -5.2263343e-04 0.0000000e+00 
0.0000000e+00 -3.3185966e-04 0.0000000e+00 
0.0000000e+00 -2.0726894e-04 0.0000000e+00 
0.0000000e+00 -1.5106401e-04 0.0000000e+00 
0.0000000e+00 -2.6537471e-03 0.0000000e+00 
0.0000000e+00 -2.5793256e-03 0.0000000e+00 
0.0000000e+00 -2.3748768e-03 0.0000000e+00 
0.0000000e+00 -2.0375662e-03 0.0000000e+00 
0.0000000e+00 -1.5797515e-03 0.0000000e+00 
0.0000000e+00 -1.0354387e-03 0.0000000e+00 
0.0000000e+00 -8.9076295e-04 0.0000000e+00 
0.0000000e+00 -6.3375710e-04 0.0000000e+00 
0.0000000e+00 -3.4297424e-04 0.0000000e+00 
0.0000000e+00 -6.3555293e-05 0.0000000e+00 
0.0000000e+00 1.8981633e-04 0.0000000e+00 
0.0000000e+00 -3.5112500e-04 0.0000000e+00 
0.0000000e+00 4.4395361e-04 0.0000000e+00 
0.0000000e+00 7.0406508e-04 0.0000000e+00 
0.0000000e+00 1.2086362e-04 0.0000000e+00 
0.0000000e+00 -9.1408001e-05 0.0000000e+00 
0.0000000e+00 -1.8147221e-04 0.0000000e+00 
0.0000000e+00 -9.3962539e-05 0.0000000e+00 
0.0000000e+00 3.0300178e-04 0.0000000e+00 
REACTION 3 30  float
6.0560718e+03 -0.0000000e+00 -1.9382973e+04 
3.4924597e-10 -0.0000000e+00 -0.0000000e+00 
-2.0372681e-10 -0.0000000e+00 1.0913936e-11 
-2.8921932e-10 -0.0000000e+00 -7.2759576e-12 
4.2491592e-09 -0.0000000e+00 -7.2759576e-12 
1.0359145e-09 -0.0000000e+00 -1.8189894e-10 
-5.0058588e-09 -0.0000000e+00 7.3487172e-10 
1.5279511e-09 -0.0000000e+00 -2.9103830e-11 
-2.2100721e-09 -0.0000000e+00 2.3646862e-11 
5.0931703e-10 -0.0000000e+00 -0.0000000e+00 
-1.6516424e-09 -0.0000000e+00 8.1854523e-12 
7.3258608e+03 -0.0000000e+00 1.2226619e+03 
-1.0913936e-10 -0.0000000e+00 -1.6370905e-11 
-1.1241355e-09 -0.0000000e+00 7.2759576e-12 
1.1605152e-09 -0.0000000e+00 -1.1823431e-11 
1.6298145e-09 -0.0000000e+00 1.5097612e-10 
2.2828317e-09 -0.0000000e+00 2.0281732e-09 
1.1614247e-09 -0.0000000e+00 1.3642421e-12 
-2.2964741e-09 -0.0000000e+00 -1.8189894e-12 
-5.1295501e-10 -0.0000000e+00 -3.8926373e-10 
8.3673513e-11 -0.0000000e+00 -0.0000000e+00 
-1.2569217e-09 -0.0000000e+00 7.5488060e-11 
-8.7675289e-10 -0.0000000e+00 -8.4401108e-10 
-7.4214768e-10 -0.0000000e+00 -8.1854523e-11 
-0.0000000e+00 -0.0000000e+00 7.3760020e-10 
-4.9658411e-10 -0.0000000e+00 3.6379788e-11 
7.9126039e-10 -0.0000000e+00 -1.0459189e-11 
1.7753337e-09 -0.0000000e+00 1.8189894e-12 
-5.4569682e-11 -0.0000000e+00 -9.2040864e-10 
8.7129592e-10 -0.0000000e+00 3.6379788e-12 
REACTION_MOMENT 3 30  float
-0.0000000e+00 -4.0745363e-10 -0.0000000e+00 
-0.0000000e+00 -2.9103830e-10 -0.0000000e+00 
-0.0000000e+00 -6.4028427e-10 -0.0000000e+00 
-0.0000000e+00 5.3842086e-10 -0.0000000e+00 
-0.0000000e+00 -9.3132257e-10 -0.0000000e+00 
-0.0000000e+00 3.1832315e-10 -0.0000000e+00 
-0.0000000e+00 1.1059456e-09 -0.0000000e+00 
-0.0000000e+00 -2.0736479e-10 -0.0000000e+00 
-0.0000000e+00 -1.6461854e-09 -0.0000000e+00 
-0.0000000e+00 1.5788828e-09 -0.0000000e+00 
-0.0000000e+00 6.2527761e-10 -0.0000000e+00 
-0.0000000e+00 8.7311491e-11 -0.0000000e+00 
-0.0000000e+00 -2.9103830e-11 -0.0000000e+00 
-0.0000000e+00 -8.7311491e-11 -0.0000000e+00 
-0.0000000e+00 4.5110937e-10 -0.0000000e+00 
-0.0000000e+00 2.0372681e-10 -0.0000000e+00 
-0.0000000e+00 -5.3842086e-10 -0.0000000e+00 
-0.0000000e+00 -1.4551915e-11 -0.0000000e+00 
-0.0000000e+00 -6.9849193e-10 -0.0000000e+00 
-0.0000000e+00 -2.7284841e-11 -0.0000000e+00 
-0.0000000e+00 -4.2382453e-10 -0.0000000e+00 
-0.0000000e+00 3.8380676e-10 -0.0000000e+00 
-0.0000000e+00 -1.8553692e-10 -0.0000000e+00 
-0.0000000e+00 8.0035534e-11 -0.0000000e+00 
-0.0000000e+00 9.7770680e-11 -0.0000000e+00 
-0.0000000e+00 4.3655746e-11 -0.0000000e+00 
-0.0000000e+00 -4.5474735e-12 -0.0000000e+00 
-0.0000000e+00 6.8212103e-12 -0.0000000e+00 
-0.0000000e+00 4.5474735e-12 -0.0000000e+00 
-0.0000000e+00 -2.7284841e-12 -0.0000000e+00 
VOLUME_ACCELERATION 3 30  float
0.0000000e+00 0.0000000e+00 0.0000000e+00 
0.0000000e+00 0.0000000e+00 0.0000000e+00 
0.0000000e+00 0.0000000e+00 0.0000000e+00 
0.0000000e+00 0.0000000e+00 0.0000000e+00 
0.0000000e+00 0.0000000e+00 0.0000000e+00 
0.0000000e+00 0.0000000e+00 0.0000000e+00 
0.0000000e+00 0.0000000e+00 0.0000000e+00 
0.0000000e+00 0.0000000e+00 0.0000000e+00 
0.0000000e+00 0.0000000e+00 0.0000000e+00 
0.0000000e+00 0.0000000e+00 0.0000000e+00 
0.0000000e+00 0.0000000e+00 0.0000000e+00 
0.0000000e+00 0.0000000e+00 0.0000000e+00 
0.0000000e+00 0.0000000e+00 0.0000000e+00 
0.0000000e+00 0.0000000e+00 0.0000000e+00 
0.0000000e+00 0.0000000e+00 0.0000000e+00 
0.0000000e+00 0.0000000e+00 0.0000000e+00 
0.0000000e+00 0.0000000e+00 0.0000000e+00 
0.0000000e+00 0.0000000e+00 0.0000000e+00 
0.0000000e+00 0.0000000e+00 0.0000000e+00 
0.0000000e+00 0.0000000e+00 0.0000000e+00 
0.0000000e+00 0.0000000e+00 0.0000000e+00 
0.0000000e+00 0.0000000e+00 0.0000000e+00 
0.0000000e+00 0.0000000e+00 0.0000000e+00 
0.0000000e+00 0.0000000e+00 0.0000000e+00 
0.0000000e+00 0.0000000e+00 0.0000000e+00 
0.0000000e+00 0.0000000e+00 0.0000000e+00 
0.0000000e+00 0.0000000e+00 0.0000000e+00 
0.0000000e+00 0.0000000e+00 0.0000000e+00 
0.0000000e+00 0.0000000e+00 0.0000000e+00 
0.0000000e+00 0.0000000e+00 0.0000000e+00 
POINT_LOAD 3 30  float
0.0000000e+00 0.0000000e+00 0.0000000e+00 
0.0000000e+00 0.0000000e+00 0.0000000e+00 
-2.1724759e+02 0.0000000e+00 5.8750664e+03 
-4.5801361e+02 0.0000000e+00 9.2672314e+03 
0.0000000e+00 0.0000000e+00 0.0000000e+00 
-2.4750435e+03 0.0000000e+00 -6.1891416e+03 
0.0000000e+00 0.0000000e+00 0.0000000e+00 
0.0000000e+00 0.0000000e+00 0.0000000e+00 
-2.1682718e+02 0.0000000e+00 5.4148379e+03 
0.0000000e+00 0.0000000e+00 0.0000000e+00 
-1.6183096e+03 0.0000000e+00 2.3686948e+03 
0.0000000e+00 0.0000000e+00 0.0000000e+00 
-1.8521362e+03 0.0000000e+00 -5.2060239e+03 
2.1310994e+03 0.0000000e+00 -3.8529333e+03 
-3.3475017e+03 0.0000000e+00 7.4921792e+03 
0.0000000e+00 0.0000000e+00 0.0000000e+00 
-7.0541150e+02 0.0000000e+00 -8.6871924e+03 
-4.7343911e+03 0.0000000e+00 3.2525613e+03 
-2.9981689e+03 0.0000000e+00 -6.5989487e+03 
-1.4453972e+03 0.0000000e+00 7.8053359e+03 
0.0000000e+00 0.0000000e+00 0.0000000e+00 
8.8811855e+03 0.0000000e+00 -5.4939189e+03 
-7.6290337e+03 0.0000000e+00 4.3580684e+03 
4.6092036e+03 0.0000000e+00 4.8564458e+03 
0.0000000e+00 0.0000000e+00 0.0000000e+00 
1.3090579e+03 0.0000000e+00 -4.2558394e+03 
-8.5727734e+03 0.0000000e+00 2.5038096e+03 
6.4940571e+03 0.0000000e+00 -7.6586914e+03 
-9.7845868e+02 0.0000000e+00 5.5815688e+03 
4.4217856e+02 0.0000000e+00 7.3272007e+03 
POINT_MOMENT 3 30  float
0.0000000e+00 0.0000000e+00 0.0000000e+00 
0.0000000e+00 0.0000000e+00 0.0000000e+00 
0.0000000e+00 0.0000000e+00 0.0000000e+00 
0.0000000e+00 0.0000000e+00 0.0000000e+00 
0.0000000e+00 0.0000000e+00 0.0000000e+00 
0.0000000e+00 0.0000000e+00 0.0000000e+00 
0.0000000e+00 0.0000000e+00 0.0000000e+00 
0.0000000e+00 0.0000000e+00 0.0000000e+00 
0.0000000e+00 0.0000000e+00 0.0000000e+00 
0.0000000e+00 0.0000000e+00 0.0000000e+00 
0.0000000e+00 0.0000000e+00 0.0000000e+00 
0.0000000e+00 0.0000000e+00 0.0000000e+00 
0.0000000e+00 0.0000000e+00 0.0000000e+00 
0.0000000e+00 0.0000000e+00 0.0000000e+00 
0.0000000e+00 0.0000000e+00 0.0000000e+00 
0.0000000e+00 0.0000000e+00 0.0000000e+00 
0.0000000e+00 0.0000000e+00 0.0000000e+00 
0.0000000e+00 0.0000000e+00 0.0000000e+00 
0.0000000e+00 0.0000000e+00 0.0000000e+00 
0.0000000e+00 0.0000000e+00 0.0000000e+00 
0.0000000e+00 0.0000000e+00 0.0000000e+00 
0.0000000e+00 0.0000000e+00 0.0000000e+00 
0.0000000e+00 0.0000000e+00 0.0000000e+00 
0.0000000e+00 0.0000000e+00 0.0000000e+00 
0.0000000e+00 0.0000000e+00 0.0000000e+00 
0.0000000e+00 0.0000000e+00 0.0000000e+00 
0.0000000e+00 0.0000000e+00 0.0000000e+00 
0.0000000e+00 0.0000000e+00 0.0000000e+00 
0.0000000e+00 0.0000000e+00 0.0000000e+00 
0.0000000e+00 0.0000000e+00 0.0000000e+00 
CELL_DATA 30
FIELD FieldData 9
YOUNG_MODULUS 1 30  float
2.1000000e+11
2.1000000e+11
2.1000000e+11
2.1000000e+11
2.1000000e+11
2.1000000e+11
2.1000000e+11
2.1000000e+11
2.1000000e+11
2.1000000e+11
2.1000000e+11
2.1000000e+11
2.1000000e+11
2.1000000e+11
2.1000000e+11
2.1000000e+11
2.1000000e+11
2.1000000e+11
2.1000000e+11
2.1000000e+11
2.1000000e+11
2.1000000e+11
2.1000000e+11
2.1000000e+11
2.1000000e+11
2.1000000e+11
2.1000000e+11
2.1000000e+11
2.1000000e+11
2.1000000e+11
DENSITY 1 30  float
7.8500000e+03
7.8500000e+03
7.8500000e+03
7.8500000e+03
7.8500000e+03
7.8500000e+03
7.8500000e+03
7.8500000e+03
7.8500000e+03
7.8500000e+03
7.8500000e+03
7.8500000e+03
7.8500000e+03
7.8500000e+03
7.8500000e+03
7.8500000e+03
7.8500000e+03
7.8500000e+03
7.8500000e+03
7.8500000e+03
7.8500000e+03
7.8500000e+03
7.8500000e+03
7.8500000e+03
7.8500000e+03
7.8500000e+03
7.8500000e+03
7.8500000e+03
7.8500000e+03
7.8500000e+03
CROSS_AREA 1 30  float
9.9999998e-03
9.9999998e-03
9.9999998e-03
9.9999998e-03
9.9999998e-03
9.9999998e-03
9.9999998e-03
9.9999998e-03
9.9999998e-03
9.9999998e-03
9.9999998e-03
9.9999998e-03
9.9999998e-03
9.9999998e-03
9.9999998e-03
9.9999998e-03
9.9999998e-03
9.9999998e-03
9.9999998e-03
9.9999998e-03
9.9999998e-03
9.9999998e-03
9.9999998e-03
9.9999998e-03
9.9999998e-03
9.9999998e-03
9.9999998e-03
9.9999998e-03
9.9999998e-03
9.9999998e-03
I22 1 30  float
1.5000001e-04
1.5000001e-04
1.5000001e-04
1.5000001e-04
1.5000001e-04
1.5000001e-04
1.5000001e-04
1.5000001e-04
1.5000001e-04
1.5000001e-04
1.5000001e-04
1.5000001e-04
1.5000001e-04
1.5000001e-04
1.5000001e-04
1.5000001e-04
1.5000001e-04
1.5000001e-04
1.5000001e-04
1.5000001e-04
1.5000001e-04
1.5000001e-04
1.5000001e-04
1.5000001e-04
1.5000001e-04
1.5000001e-04
1.5000001e-04
1.5000001e-04
1.5000001e-04
1.5000001e-04
I33 1 30  float
1.5000001e-04
1.5000001e-04
1.5000001e-04
1.5000001e-04
1.5000001e-04
1.5000001e-04
1.5000001e-04
1.5000001e-04
1.5000001e-04
1.5000001e-04
1.5000001e-04
1.5000001e-04
1.5000001e-04
1.5000001e-04
1.5000001e-04
1.5000001e-04
1.5000001e-04
1.5000001e-04
1.5000001e-04
1.5000001e-04
1.5000001e-04
1.5000001e-04
1.5000001e-04
1.5000001e-04
1.5000001e-04
1.5000001e-04
1.5000001e-04
1.5000001e-04
1.5000001e-04
1.5000001e-04
TORSIONAL_INERTIA 1 30  float
3.0000001e-04
3.0000001e-04
3.0000001e-04
3.0000001e-04
3.0000001e-04
3.0000001e-04
3.0000001e-04
3.0000001e-04
3.0000001e-04
3.0000001e-04
3.0000001e-04
3.0000001e-04
3.0000001e-04
3.0000001e-04
3.0000001e-04
3.0000001e-04
3.0000001e-04
3.0000001e-04
3.0000001e-04
3.0000001e-04
3.0000001e-04
3.0000001e-04
3.0000001e-04
3.0000001e-04
3.0000001e-04
3.0000001e-04
3.0000001e-04
3.0000001e-04
3.0000001e-04
3.0000001e-04
POISSON_RATIO 1 30  float
3.0000001e-01
3.0000001e-01
3.0000001e-01
3.0000001e-01
3.0000001e-01
3.0000001e-01
3.0000001e-01
3.0000001e-01
3.0000001e-01
3.0000001e-01
3.0000001e-01
3.0000001e-01
3.0000001e-01
3.0000001e-01
3.0000001e-01
3.0000001e-01
3.0000001e-01
3.0000001e-01
3.0000001e-01
3.0000001e-01
3.0000001e-01
3.0000001e-01
3.0000001e-01
3.0000001e-01
3.0000001e-01
3.0000001e-01
3.0000001e-01
3.0000001e-01
3.0000001e-01
3.0000001e-01
MOMENT 3 30  float
0.0000000e+00 2.4224287e+03 0.0000000e+00 
0.0000000e+00 7.2672861e+03 0.0000000e+00 
0.0000000e+00 1.2025244e+04 0.0000000e+00 
0.0000000e+00 1.6513098e+04 0.0000000e+00 
0.0000000e+00 2.0817746e+04 0.0000000e+00 
0.0000000e+00 1.2550175e+04 0.0000000e+00 
0.0000000e+00 1.0030946e+04 0.0000000e+00 
0.0000000e+00 7.5117183e+03 0.0000000e+00 
0.0000000e+00 4.9057593e+03 0.0000000e+00 
0.0000000e+00 2.2130691e+03 0.0000000e+00 
0.0000000e+00 2.9303445e+03 0.0000000e+00 
0.0000000e+00 8.0501787e+03 0.0000000e+00 
0.0000000e+00 1.3281598e+04 0.0000000e+00 
0.0000000e+00 1.8026457e+04 0.0000000e+00 
0.0000000e+00 2.1432314e+04 0.0000000e+00 
0.0000000e+00 5.6966084e+03 0.0000000e+00 
0.0000000e+00 1.0119604e+04 0.0000000e+00 
0.0000000e+00 1.1449576e+04 0.0000000e+00 
0.0000000e+00 1.1002121e+04 0.0000000e+00 
0.0000000e+00 9.9765078e+03 0.0000000e+00 
0.0000000e+00 1.1733707e+04 0.0000000e+00 
0.0000000e+00 1.2522488e+04 0.0000000e+00 
0.0000000e+00 4.0967554e+03 0.0000000e+00 
0.0000000e+00 -9.1854229e+03 0.0000000e+00 
0.0000000e+00 -1.8211762e+04 0.0000000e+00 
0.0000000e+00 9.3958221e+02 0.0000000e+00 
0.0000000e+00 -1.4185112e+03 0.0000000e+00 
0.0000000e+00 1.3782772e+03 0.0000000e+00 
0.0000000e+00 6.2521880e+03 0.0000000e+00 
0.0000000e+00 -1.7826709e+03 0.0000000e+00 
FORCE 3 30  float
1.9382973e+04 0.0000000e+00 6.0560718e+03 
1.9382973e+04 0.0000000e+00 6.0560718e+03 
1.3507905e+04 0.0000000e+00 5.8388242e+03 
4.2406738e+03 0.0000000e+00 5.3808105e+03 
4.2406738e+03 0.0000000e+00 5.3808105e+03 
7.8563911e+03 0.0000000e+00 -3.1490354e+03 
7.8563911e+03 0.0000000e+00 -3.1490354e+03 
7.8563911e+03 0.0000000e+00 -3.1490354e+03 
2.4415530e+03 0.0000000e+00 -3.3658625e+03 
2.4415530e+03 0.0000000e+00 -3.3658625e+03 
-1.2226619e+03 0.0000000e+00 7.3258608e+03 
3.9833621e+03 0.0000000e+00 5.4737246e+03 
7.8362954e+03 0.0000000e+00 7.6048237e+03 
3.4411615e+02 0.0000000e+00 4.2573223e+03 
3.4411615e+02 0.0000000e+00 4.2573223e+03 
6.6460591e+03 0.0000000e+00 7.8959404e+03 
3.3934976e+03 0.0000000e+00 3.1615491e+03 
9.9924463e+03 0.0000000e+00 1.6338020e+02 
2.1871106e+03 0.0000000e+00 -1.2820171e+03 
2.1871106e+03 0.0000000e+00 -1.2820171e+03 
-6.0548022e+03 0.0000000e+00 2.5734248e+03 
1.5742314e+03 0.0000000e+00 -1.7846434e+03 
-3.0349719e+03 0.0000000e+00 -6.6410894e+03 
-3.0349719e+03 0.0000000e+00 -6.6410894e+03 
-4.3440298e+03 0.0000000e+00 -2.3852495e+03 
4.9841719e+03 0.0000000e+00 7.2858078e+01 
1.3556946e+04 0.0000000e+00 -2.4309514e+03 
7.0628887e+03 0.0000000e+00 5.2277397e+03 
8.0413477e+03 0.0000000e+00 -3.5382907e+02 
7.5991689e+03 0.0000000e+00 -7.6810298e+03 
