# vtk DataFile Version 4.0
vtk output
ASCII
DATASET UNSTRUCTURED_GRID
POINTS 212 float
0.0000000e+00 0.0000000e+00 0.0000000e+00 
0.0000000e+00 0.0000000e+00 2.5000000e-01 
0.0000000e+00 0.0000000e+00 5.0000000e-01 
0.0000000e+00 0.0000000e+00 7.5000000e-01 
0.0000000e+00 0.0000000e+00 1.0000000e+00 
0.0000000e+00 0.0000000e+00 1.2500000e+00 
0.0000000e+00 0.0000000e+00 1.5000000e+00 
0.0000000e+00 0.0000000e+00 1.7500000e+00 
0.0000000e+00 0.0000000e+00 2.0000000e+00 
0.0000000e+00 0.0000000e+00 2.2500000e+00 
0.0000000e+00 0.0000000e+00 2.5000000e+00 
0.0000000e+00 0.0000000e+00 2.7500000e+00 
0.0000000e+00 0.0000000e+00 3.0000000e+00 
0.0000000e+00 0.0000000e+00 3.2500000e+00 
0.0000000e+00 0.0000000e+00 3.5000000e+00 
0.0000000e+00 0.0000000e+00 3.7500000e+00 
0.0000000e+00 0.0000000e+00 4.0000000e+00 
0.0000000e+00 0.0000000e+00 4.2500000e+00 
0.0000000e+00 0.0000000e+00 4.5000000e+00 
0.0000000e+00 0.0000000e+00 4.7500000e+00 
0.0000000e+00 0.0000000e+00 5.0000000e+00 
0.0000000e+00 0.0000000e+00 5.2500000e+00 
0.0000000e+00 0.0000000e+00 5.5000000e+00 
0.0000000e+00 0.0000000e+00 5.7500000e+00 
0.0000000e+00 0.0000000e+00 6.0000000e+00 
0.0000000e+00 0.0000000e+00 6.2500000e+00 
0.0000000e+00 0.0000000e+00 6.5000000e+00 
0.0000000e+00 0.0000000e+00 6.7500000e+00 
0.0000000e+00 0.0000000e+00 7.0000000e+00 
0.0000000e+00 0.0000000e+00 7.2500000e+00 
0.0000000e+00 0.0000000e+00 7.5000000e+00 
0.0000000e+00 0.0000000e+00 7.7500000e+00 
0.0000000e+00 0.0000000e+00 8.0000000e+00 
0.0000000e+00 0.0000000e+00 8.2500000e+00 
0.0000000e+00 0.0000000e+00 8.5000000e+00 
0.0000000e+00 0.0000000e+00 8.7500000e+00 
0.0000000e+00 0.0000000e+00 9.0000000e+00 
0.0000000e+00 0.0000000e+00 9.2500000e+00 
0.0000000e+00 0.0000000e+00 9.5000000e+00 
0.0000000e+00 0.0000000e+00 9.7500000e+00 
0.0000000e+00 0.0000000e+00 1.0000000e+01 
0.0000000e+00 0.0000000e+00 1.0250000e+01 
0.0000000e+00 0.0000000e+00 1.0500000e+01 
0.0000000e+00 0.0000000e+00 1.0750000e+01 
0.0000000e+00 0.0000000e+00 1.1000000e+01 
0.0000000e+00 0.0000000e+00 1.1250000e+01 
0.0000000e+00 0.0000000e+00 1.1500000e+01 
0.0000000e+00 0.0000000e+00 1.1750000e+01 
0.0000000e+00 0.0000000e+00 1.2000000e+01 
0.0000000e+00 0.0000000e+00 1.2250000e+01 
0.0000000e+00 0.0000000e+00 1.2500000e+01 
0.0000000e+00 0.0000000e+00 1.2750000e+01 
0.0000000e+00 0.0000000e+00 1.3000000e+01 
0.0000000e+00 0.0000000e+00 1.3250000e+01 
0.0000000e+00 0.0000000e+00 1.3500000e+01 
0.0000000e+00 0.0000000e+00 1.3750000e+01 
0.0000000e+00 0.0000000e+00 1.4000000e+01 
0.0000000e+00 0.0000000e+00 1.4250000e+01 
0.0000000e+00 0.0000000e+00 1.4500000e+01 
0.0000000e+00 0.0000000e+00 1.4750000e+01 
0.0000000e+00 0.0000000e+00 1.5000000e+01 
0.0000000e+00 0.0000000e+00 1.5250000e+01 
0.0000000e+00 0.0000000e+00 1.5500000e+01 
0.0000000e+00 0.0000000e+00 1.5750000e+01 
0.0000000e+00 0.0000000e+00 1.6000000e+01 
0.0000000e+00 0.0000000e+00 1.6250000e+01 
0.0000000e+00 0.0000000e+00 1.6500000e+01 
0.0000000e+00 0.0000000e+00 1.6750000e+01 
0.0000000e+00 0.0000000e+00 1.7000000e+01 
0.0000000e+00 0.0000000e+00 1.7250000e+01 
0.0000000e+00 0.0000000e+00 1.7500000e+01 
0.0000000e+00 0.0000000e+00 1.7750000e+01 
0.0000000e+00 0.0000000e+00 1.8000000e+01 
6.0000000e+00 0.0000000e+00 0.0000000e+00 
6.0000000e+00 0.0000000e+00 2.5000000e-01 
6.0000000e+00 0.0000000e+00 5.0000000e-01 
6.0000000e+00 0.0000000e+00 7.5000000e-01 
6.0000000e+00 0.0000000e+00 1.0000000e+00 
6.0000000e+00 0.0000000e+00 1.2500000e+00 
6.0000000e+00 0.0000000e+00 1.5000000e+00 
6.0000000e+00 0.0000000e+00 1.7500000e+00 
6.0000000e+00 0.0000000e+00 2.0000000e+00 
6.0000000e+00 0.0000000e+00 2.2500000e+00 
6.0000000e+00 0.0000000e+00 2.5000000e+00 
6.0000000e+00 0.0000000e+00 2.7500000e+00 
6.0000000e+00 0.0000000e+00 3.0000000e+00 
6.0000000e+00 0.0000000e+00 3.2500000e+00 
6.0000000e+00 0.0000000e+00 3.5000000e+00 
6.0000000e+00 0.0000000e+00 3.7500000e+00 
6.0000000e+00 0.0000000e+00 4.0000000e+00 
6.0000000e+00 0.0000000e+00 4.2500000e+00 
6.0000000e+00 0.0000000e+00 4.5000000e+00 
6.0000000e+00 0.0000000e+00 4.7500000e+00 
6.0000000e+00 0.0000000e+00 5.0000000e+00 
6.0000000e+00 0.0000000e+00 5.2500000e+00 
6.0000000e+00 0.0000000e+00 5.5000000e+00 
6.0000000e+00 0.0000000e+00 5.7500000e+00 
6.0000000e+00 0.0000000e+00 6.0000000e+00 
6.0000000e+00 0.0000000e+00 6.2500000e+00 
6.0000000e+00 0.0000000e+00 6.5000000e+00 
6.0000000e+00 0.0000000e+00 6.7500000e+00 
6.0000000e+00 0.0000000e+00 7.0000000e+00 
6.0000000e+00 0.0000000e+00 7.2500000e+00 
6.0000000e+00 0.0000000e+00 7.5000000e+00 
6.0000000e+00 0.0000000e+00 7.7500000e+00 
6.0000000e+00 0.0000000e+00 8.0000000e+00 
6.0000000e+00 0.0000000e+00 8.2500000e+00 
6.0000000e+00 0.0000000e+00 8.5000000e+00 
6.0000000e+00 0.0000000e+00 8.7500000e+00 
6.0000000e+00 0.0000000e+00 9.0000000e+00 
6.0000000e+00 0.0000000e+00 9.2500000e+00 
6.0000000e+00 0.0000000e+00 9.5000000e+00 
6.0000000e+00 0.0000000e+00 9.7500000e+00 
6.0000000e+00 0.0000000e+00 1.0000000e+01 
6.0000000e+00 0.0000000e+00 1.0250000e+01 
6.0000000e+00 0.0000000e+00 1.0500000e+01 
6.0000000e+00 0.0000000e+00 1.0750000e+01 
6.0000000e+00 0.0000000e+00 1.1000000e+01 
6.0000000e+00 0.0000000e+00 1.1250000e+01 
6.0000000e+00 0.0000000e+00 1.1500000e+01 
6.0000000e+00 0.0000000e+00 1.1750000e+01 
6.0000000e+00 0.0000000e+00 1.2000000e+01 
6.0000000e+00 0.0000000e+00 1.2250000e+01 
6.0000000e+00 0.0000000e+00 1.2500000e+01 
6.0000000e+00 0.0000000e+00 1.2750000e+01 
6.0000000e+00 0.0000000e+00 1.3000000e+01 
6.0000000e+00 0.0000000e+00 1.3250000e+01 
6.0000000e+00 0.0000000e+00 1.3500000e+01 
6.0000000e+00 0.0000000e+00 1.3750000e+01 
6.0000000e+00 0.0000000e+00 1.4000000e+01 
6.0000000e+00 0.0000000e+00 1.4250000e+01 
6.0000000e+00 0.0000000e+00 1.4500000e+01 
6.0000000e+00 0.0000000e+00 1.4750000e+01 
6.0000000e+00 0.0000000e+00 1.5000000e+01 
6.0000000e+00 0.0000000e+00 1.5250000e+01 
6.0000000e+00 0.0000000e+00 1.5500000e+01 
6.0000000e+00 0.0000000e+00 1.5750000e+01 
6.0000000e+00 0.0000000e+00 1.6000000e+01 
6.0000000e+00 0.0000000e+00 1.6250000e+01 
6.0000000e+00 0.0000000e+00 1.6500000e+01 
6.0000000e+00 0.0000000e+00 1.6750000e+01 
6.0000000e+00 0.0000000e+00 1.7000000e+01 
6.0000000e+00 0.0000000e+00 1.7250000e+01 
6.0000000e+00 0.0000000e+00 1.7500000e+01 
6.0000000e+00 0.0000000e+00 1.7750000e+01 
6.0000000e+00 0.0000000e+00 1.8000000e+01 
5.0000000e-01 0.0000000e+00 3.0000000e+00 
1.0000000e+00 0.0000000e+00 3.0000000e+00 
1.5000000e+00 0.0000000e+00 3.0000000e+00 
2.0000000e+00 0.0000000e+00 3.0000000e+00 
2.5000000e+00 0.0000000e+00 3.0000000e+00 
3.0000000e+00 0.0000000e+00 3.0000000e+00 
3.5000000e+00 0.0000000e+00 3.0000000e+00 
4.0000000e+00 0.0000000e+00 3.0000000e+00 
4.5000000e+00 0.0000000e+00 3.0000000e+00 
5.0000000e+00 0.0000000e+00 3.0000000e+00 
5.5000000e+00 0.0000000e+00 3.0000000e+00 
5.0000000e-01 0.0000000e+00 6.0000000e+00 
1.0000000e+00 0.0000000e+00 6.0000000e+00 
1.5000000e+00 0.0000000e+00 6.0000000e+00 
2.0000000e+00 0.0000000e+00 6.0000000e+00 
2.5000000e+00 0.0000000e+00 6.0000000e+00 
3.0000000e+00 0.0000000e+00 6.0000000e+00 
3.5000000e+00 0.0000000e+00 6.0000000e+00 
4.0000000e+00 0.0000000e+00 6.0000000e+00 
4.5000000e+00 0.0000000e+00 6.0000000e+00 
5.0000000e+00 0.0000000e+00 6.0000000e+00 
5.5000000e+00 0.0000000e+00 6.0000000e+00 
5.0000000e-01 0.0000000e+00 9.0000000e+00 
1.0000000e+00 0.0000000e+00 9.0000000e+00 
1.5000000e+00 0.0000000e+00 9.0000000e+00 
2.0000000e+00 0.0000000e+00 9.0000000e+00 
2.5000000e+00 0.0000000e+00 9.0000000e+00 
3.0000000e+00 0.0000000e+00 9.0000000e+00 
3.5000000e+00 0.0000000e+00 9.0000000e+00 
4.0000000e+00 0.0000000e+00 9.0000000e+00 
4.5000000e+00 0.0000000e+00 9.0000000e+00 
5.0000000e+00 0.0000000e+00 9.0000000e+00 
5.5000000e+00 0.0000000e+00 9.0000000e+00 
5.0000000e-01 0.0000000e+00 1.2000000e+01 
1.0000000e+00 0.0000000e+00 1.2000000e+01 
1.5000000e+00 0.0000000e+00 1.2000000e+01 
2.0000000e+00 0.0000000e+00 1.2000000e+01 
2.5000000e+00 0.0000000e+00 1.2000000e+01 
3.0000000e+00 0.0000000e+00 1.2000000e+01 
3.5000000e+00 0.0000000e+00 1.2000000e+01 
4.0000000e+00 0.0000000e+00 1.2000000e+01 
4.5000000e+00 0.0000000e+00 1.2000000e+01 
5.0000000e+00 0.0000000e+00 1.2000000e+01 
5.5000000e+00 0.0000000e+00 1.2000000e+01 
5.0000000e-01 0.0000000e+00 1.5000000e+01 
1.0000000e+00 0.0000000e+00 1.5000000e+01 
1.5000000e+00 0.0000000e+00 1.5000000e+01 
2.0000000e+00 0.0000000e+00 1.5000000e+01 
2.5000000e+00 0.0000000e+00 1.5000000e+01 
3.0000000e+00 0.0000000e+00 1.5000000e+01 
3.5000000e+00 0.0000000e+00 1.5000000e+01 
4.0000000e+00 0.0000000e+00 1.5000000e+01 
4.5000000e+00 0.0000000e+00 1.5000000e+01 
5.0000000e+00 0.0000000e+00 1.5000000e+01 
5.5000000e+00 0.0000000e+00 1.5000000e+01 
5.0000000e-01 0.0000000e+00 1.8000000e+01 
1.0000000e+00 0.0000000e+00 1.8000000e+01 
1.5000000e+00 0.0000000e+00 1.8000000e+01 
2.0000000e+00 0.0000000e+00 1.8000000e+01 
2.5000000e+00 0.0000000e+00 1.8000000e+01 
3.0000000e+00 0.0000000e+00 1.8000000e+01 
3.5000000e+00 0.0000000e+00 1.8000000e+01 
4.0000000e+00 0.0000000e+00 1.8000000e+01 
4.5000000e+00 0.0000000e+00 1.8000000e+01 
5.0000000e+00 0.0000000e+00 1.8000000e+01 
5.5000000e+00 0.0000000e+00 1.8000000e+01 

CELLS 216 648
2 0 1
2 1 2
2 2 3
2 3 4
2 4 5
2 5 6
2 6 7
2 7 8
2 8 9
2 9 10
2 10 11
2 11 12
2 12 13
2 13 14
2 14 15
2 15 16
2 16 17
2 17 18
2 18 19
2 19 20
2 20 21
2 21 22
2 22 23
2 23 24
2 24 25
2 25 26
2 26 27
2 27 28
2 28 29
2 29 30
2 30 31
2 31 32
2 32 33
2 33 34
2 34 35
2 35 36
2 36 37
2 37 38
2 38 39
2 39 40
2 40 41
2 41 42
2 42 43
2 43 44
2 44 45
2 45 46
2 46 47
2 47 48
2 48 49
2 49 50
2 50 51
2 51 52
2 52 53
2 53 54
2 54 55
2 55 56
2 56 57
2 57 58
2 58 59
2 59 60
2 60 61
2 61 62
2 62 63
2 63 64
2 64 65
2 65 66
2 66 67
2 67 68
2 68 69
2 69 70
2 70 71
2 71 72
2 73 74
2 74 75
2 75 76
2 76 77
2 77 78
2 78 79
2 79 80
2 80 81
2 81 82
2 82 83
2 83 84
2 84 85
2 85 86
2 86 87
2 87 88
2 88 89
2 89 90
2 90 91
2 91 92
2 92 93
2 93 94
2 94 95
2 95 96
2 96 97
2 97 98
2 98 99
2 99 100
2 100 101
2 101 102
2 102 103
2 103 104
2 104 105
2 105 106
2 106 107
2 107 108
2 108 109
2 109 110
2 110 111
2 111 112
2 112 113
2 113 114
2 114 115
2 115 116
2 116 117
2 117 118
2 118 119
2 119 120
2 120 121
2 121 122
2 122 123
2 123 124
2 124 125
2 125 126
2 126 127
2 127 128
2 128 129
2 129 130
2 130 131
2 131 132
2 132 133
2 133 134
2 134 135
2 135 136
2 136 137
2 137 138
2 138 139
2 139 140
2 140 141
2 141 142
2 142 143
2 143 144
2 144 145
2 12 146
2 146 147
2 147 148
2 148 149
2 149 150
2 150 151
2 151 152
2 152 153
2 153 154
2 154 155
2 155 156
2 156 85
2 24 157
2 157 158
2 158 159
2 159 160
2 160 161
2 161 162
2 162 163
2 163 164
2 164 165
2 165 166
2 166 167
2 167 97
2 36 168
2 168 169
2 169 170
2 170 171
2 171 172
2 172 173
2 173 174
2 174 175
2 175 176
2 176 177
2 177 178
2 178 109
2 48 179
2 179 180
2 180 181
2 181 182
2 182 183
2 183 184
2 184 185
2 185 186
2 186 187
2 187 188
2 188 189
2 189 121
2 60 190
2 190 191
2 191 192
2 192 193
2 193 194
2 194 195
2 195 196
2 196 197
2 197 198
2 198 199
2 199 200
2 200 133
2 72 201
2 201 202
2 202 203
2 203 204
2 204 205
2 205 206
2 206 207
2 207 208
2 208 209
2 209 210
2 210 211
2 211 145

CELL_TYPES 216
3
3
3
3
3
3
3
3
3
3
3
3
3
3
3
3
3
3
3
3
3
3
3
3
3
3
3
3
3
3
3
3
3
3
3
3
3
3
3
3
3
3
3
3
3
3
3
3
3
3
3
3
3
3
3
3
3
3
3
3
3
3
3
3
3
3
3
3
3
3
3
3
3
3
3
3
3
3
3
3
3
3
3
3
3
3
3
3
3
3
3
3
3
3
3
3
3
3
3
3
3
3
3
3
3
3
3
3
3
3
3
3
3
3
3
3
3
3
3
3
3
3
3
3
3
3
3
3
3
3
3
3
3
3
3
3
3
3
3
3
3
3
3
3
3
3
3
3
3
3
3
3
3
3
3
3
3
3
3
3
3
3
3
3
3
3
3
3
3
3
3
3
3
3
3
3
3
3
3
3
3
3
3
3
3
3
3
3
3
3
3
3
3
3
3
3
3
3
3
3
3
3
3
3
3
3
3
3
3
3
3
3
3
3
3
3
POINT_DATA 212
FIELD FieldData 3
ADJOINT_DISPLACEMENT 3 212  float
0.0000000e+00 0.0000000e+00 0.0000000e+00 
-5.7783572e-04 0.0000000e+00 7.5760976e-18 
-1.1791161e-03 0.0000000e+00 1.5152195e-17 
-1.8272860e-03 0.0000000e+00 2.2728293e-17 
-2.5457900e-03 0.0000000e+00 3.0304390e-17 
-3.3580728e-03 0.0000000e+00 3.7880488e-17 
-4.2875796e-03 0.0000000e+00 4.5456586e-17 
-5.3577544e-03 0.0000000e+00 5.3032683e-17 
-6.5920423e-03 0.0000000e+00 6.0608781e-17 
-8.0138883e-03 0.0000000e+00 6.8184875e-17 
-9.6467361e-03 0.0000000e+00 7.5760976e-17 
-1.1514031e-02 0.0000000e+00 8.3337070e-17 
-1.3639218e-02 0.0000000e+00 9.0913171e-17 
-1.6207321e-02 0.0000000e+00 3.7877960e-08 
-1.9293899e-02 0.0000000e+00 7.5755921e-08 
-2.2758206e-02 0.0000000e+00 1.1363388e-07 
-2.6459500e-02 0.0000000e+00 1.5151184e-07 
-3.0257033e-02 0.0000000e+00 1.8938981e-07 
-3.4010060e-02 0.0000000e+00 2.2726776e-07 
-3.7577834e-02 0.0000000e+00 2.6514573e-07 
-4.0819608e-02 0.0000000e+00 3.0302368e-07 
-4.3594640e-02 0.0000000e+00 3.4090166e-07 
-4.5762181e-02 0.0000000e+00 3.7877962e-07 
-4.7181487e-02 0.0000000e+00 4.1665757e-07 
-4.7711812e-02 0.0000000e+00 4.5453552e-07 
-4.7717974e-02 0.0000000e+00 6.4392663e-07 
-4.8065417e-02 0.0000000e+00 8.3331770e-07 
-4.9364336e-02 0.0000000e+00 1.0227087e-06 
-5.2224930e-02 0.0000000e+00 1.2120998e-06 
-5.7257392e-02 0.0000000e+00 1.4014909e-06 
-6.5071918e-02 0.0000000e+00 1.5908820e-06 
-7.6278701e-02 0.0000000e+00 1.7802730e-06 
-9.1487952e-02 0.0000000e+00 1.9696640e-06 
-1.1130985e-01 0.0000000e+00 2.1590552e-06 
-1.3635460e-01 0.0000000e+00 2.3484463e-06 
-1.6723238e-01 0.0000000e+00 2.5378374e-06 
-2.0455341e-01 0.0000000e+00 2.7272283e-06 
-2.5232297e-01 0.0000000e+00 3.6363122e-06 
-3.1413862e-01 0.0000000e+00 4.5453958e-06 
-3.8999909e-01 0.0000000e+00 5.4544794e-06 
-4.7990310e-01 0.0000000e+00 6.3635630e-06 
-5.8384931e-01 0.0000000e+00 7.2726471e-06 
-7.0183641e-01 0.0000000e+00 8.1817307e-06 
-5.8386314e-01 0.0000000e+00 9.0908143e-06 
-4.7992814e-01 0.0000000e+00 9.9998979e-06 
-3.9003012e-01 0.0000000e+00 1.0908981e-05 
-3.1416783e-01 0.0000000e+00 1.1818065e-05 
-2.5233990e-01 0.0000000e+00 1.2727149e-05 
-2.0454507e-01 0.0000000e+00 1.3636233e-05 
-1.6718322e-01 0.0000000e+00 1.3825624e-05 
-1.3625222e-01 0.0000000e+00 1.4015015e-05 
-1.1114776e-01 0.0000000e+00 1.4204406e-05 
-9.1265507e-02 0.0000000e+00 1.4393797e-05 
-7.6001137e-02 0.0000000e+00 1.4583188e-05 
-6.4750321e-02 0.0000000e+00 1.4772580e-05 
-5.6908738e-02 0.0000000e+00 1.4961970e-05 
-5.1872052e-02 0.0000000e+00 1.5151361e-05 
-4.9035948e-02 0.0000000e+00 1.5340753e-05 
-4.7796097e-02 0.0000000e+00 1.5530144e-05 
-4.7548167e-02 0.0000000e+00 1.5719535e-05 
-4.7687840e-02 0.0000000e+00 1.5908925e-05 
-4.7357764e-02 0.0000000e+00 1.5946804e-05 
-4.6181437e-02 0.0000000e+00 1.5984682e-05 
-4.4275779e-02 0.0000000e+00 1.6022559e-05 
-4.1757710e-02 0.0000000e+00 1.6060438e-05 
-3.8744163e-02 0.0000000e+00 1.6098316e-05 
-3.5352051e-02 0.0000000e+00 1.6136193e-05 
-3.1698309e-02 0.0000000e+00 1.6174072e-05 
-2.7899854e-02 0.0000000e+00 1.6211949e-05 
-2.4073612e-02 0.0000000e+00 1.6249827e-05 
-2.0336507e-02 0.0000000e+00 1.6287706e-05 
-1.6805463e-02 0.0000000e+00 1.6325583e-05 
-1.3597403e-02 0.0000000e+00 1.6363461e-05 
0.0000000e+00 0.0000000e+00 0.0000000e+00 
-1.6948420e-03 0.0000000e+00 -1.6182291e-17 
-3.3662391e-03 0.0000000e+00 -3.2365248e-17 
-4.9907472e-03 0.0000000e+00 -4.8544772e-17 
-6.5449206e-03 0.0000000e+00 -6.4723925e-17 
-8.0053154e-03 0.0000000e+00 -8.0902433e-17 
-9.3484866e-03 0.0000000e+00 -9.7081636e-17 
-1.0550990e-02 0.0000000e+00 -1.1326106e-16 
-1.1589379e-02 0.0000000e+00 -1.2943735e-16 
-1.2440211e-02 0.0000000e+00 -1.4561472e-16 
-1.3080041e-02 0.0000000e+00 -1.6179254e-16 
-1.3485423e-02 0.0000000e+00 -1.7796694e-16 
-1.3632914e-02 0.0000000e+00 -1.9414509e-16 
-1.3621574e-02 0.0000000e+00 -3.7877960e-08 
-1.3659928e-02 0.0000000e+00 -7.5755921e-08 
-1.3888721e-02 0.0000000e+00 -1.1363389e-07 
-1.4448699e-02 0.0000000e+00 -1.5151184e-07 
-1.5480606e-02 0.0000000e+00 -1.8938981e-07 
-1.7125189e-02 0.0000000e+00 -2.2726776e-07 
-1.9523194e-02 0.0000000e+00 -2.6514573e-07 
-2.2815367e-02 0.0000000e+00 -3.0302368e-07 
-2.7142454e-02 0.0000000e+00 -3.4090166e-07 
-3.2645199e-02 0.0000000e+00 -3.7877962e-07 
-3.9464347e-02 0.0000000e+00 -4.1665757e-07 
-4.7740649e-02 0.0000000e+00 -4.5453552e-07 
-5.8245633e-02 0.0000000e+00 -6.4392663e-07 
-7.1250200e-02 0.0000000e+00 -8.3331770e-07 
-8.6144157e-02 0.0000000e+00 -1.0227087e-06 
-1.0231730e-01 0.0000000e+00 -1.2120998e-06 
-1.1915945e-01 0.0000000e+00 -1.4014909e-06 
-1.3606040e-01 0.0000000e+00 -1.5908820e-06 
-1.5240996e-01 0.0000000e+00 -1.7802730e-06 
-1.6759792e-01 0.0000000e+00 -1.9696640e-06 
-1.8101409e-01 0.0000000e+00 -2.1590552e-06 
-1.9204828e-01 0.0000000e+00 -2.3484463e-06 
-2.0009029e-01 0.0000000e+00 -2.5378374e-06 
-2.0452993e-01 0.0000000e+00 -2.7272283e-06 
-2.0675962e-01 0.0000000e+00 -3.6363122e-06 
-2.0857944e-01 0.0000000e+00 -4.5453958e-06 
-2.0999071e-01 0.0000000e+00 -5.4544794e-06 
-2.1099471e-01 0.0000000e+00 -6.3635630e-06 
-2.1159276e-01 0.0000000e+00 -7.2726471e-06 
-2.1178617e-01 0.0000000e+00 -8.1817307e-06 
-2.1157621e-01 0.0000000e+00 -9.0908143e-06 
-2.1096423e-01 0.0000000e+00 -9.9998979e-06 
-2.0995151e-01 0.0000000e+00 -1.0908981e-05 
-2.0853934e-01 0.0000000e+00 -1.1818065e-05 
-2.0672904e-01 0.0000000e+00 -1.2727149e-05 
-2.0452191e-01 0.0000000e+00 -1.3636233e-05 
-2.0012037e-01 0.0000000e+00 -1.3825624e-05 
-1.9212884e-01 0.0000000e+00 -1.4015015e-05 
-1.8115163e-01 0.0000000e+00 -1.4204406e-05 
-1.6779308e-01 0.0000000e+00 -1.4393797e-05 
-1.5265752e-01 0.0000000e+00 -1.4583188e-05 
-1.3634926e-01 0.0000000e+00 -1.4772580e-05 
-1.1947265e-01 0.0000000e+00 -1.4961970e-05 
-1.0263200e-01 0.0000000e+00 -1.5151361e-05 
-8.6431637e-02 0.0000000e+00 -1.5340753e-05 
-7.1475886e-02 0.0000000e+00 -1.5530144e-05 
-5.8369078e-02 0.0000000e+00 -1.5719535e-05 
-4.7715534e-02 0.0000000e+00 -1.5908925e-05 
-3.9236255e-02 0.0000000e+00 -1.5946804e-05 
-3.2171398e-02 0.0000000e+00 -1.5984682e-05 
-2.6404044e-02 0.0000000e+00 -1.6022559e-05 
-2.1817265e-02 0.0000000e+00 -1.6060438e-05 
-1.8294139e-02 0.0000000e+00 -1.6098316e-05 
-1.5717741e-02 0.0000000e+00 -1.6136193e-05 
-1.3971149e-02 0.0000000e+00 -1.6174072e-05 
-1.2937436e-02 0.0000000e+00 -1.6211949e-05 
-1.2499681e-02 0.0000000e+00 -1.6249827e-05 
-1.2540957e-02 0.0000000e+00 -1.6287706e-05 
-1.2944343e-02 0.0000000e+00 -1.6325583e-05 
-1.3592913e-02 0.0000000e+00 -1.6363461e-05 
-1.3638693e-02 0.0000000e+00 3.7996904e-03 
-1.3638168e-02 0.0000000e+00 6.2772282e-03 
-1.3637642e-02 0.0000000e+00 7.6220040e-03 
-1.3637117e-02 0.0000000e+00 8.0234073e-03 
-1.3636592e-02 0.0000000e+00 7.6708281e-03 
-1.3636067e-02 0.0000000e+00 6.7536556e-03 
-1.3635540e-02 0.0000000e+00 5.4612802e-03 
-1.3635015e-02 0.0000000e+00 3.9830916e-03 
-1.3634490e-02 0.0000000e+00 2.5084794e-03 
-1.3633965e-02 0.0000000e+00 1.2268336e-03 
-1.3633439e-02 0.0000000e+00 3.2754382e-04 
-4.7714215e-02 0.0000000e+00 -1.3170694e-03 
-4.7716618e-02 0.0000000e+00 -4.9202759e-03 
-4.7719024e-02 0.0000000e+00 -1.0051599e-02 
-4.7721427e-02 0.0000000e+00 -1.5953474e-02 
-4.7723830e-02 0.0000000e+00 -2.1868333e-02 
-4.7726233e-02 0.0000000e+00 -2.7038615e-02 
-4.7728635e-02 0.0000000e+00 -3.0706750e-02 
-4.7731038e-02 0.0000000e+00 -3.2115176e-02 
-4.7733441e-02 0.0000000e+00 -3.0506324e-02 
-4.7735844e-02 0.0000000e+00 -2.5122629e-02 
-4.7738247e-02 0.0000000e+00 -1.5206529e-02 
-2.0455146e-01 0.0000000e+00 6.8106599e-02 
-2.0454951e-01 0.0000000e+00 1.1183299e-01 
-2.0454754e-01 0.0000000e+00 1.3478036e-01 
-2.0454559e-01 0.0000000e+00 1.4054717e-01 
-2.0454364e-01 0.0000000e+00 1.3273190e-01 
-2.0454167e-01 0.0000000e+00 1.1493299e-01 
-2.0453972e-01 0.0000000e+00 9.0748921e-02 
-2.0453776e-01 0.0000000e+00 6.3778147e-02 
-2.0453580e-01 0.0000000e+00 3.7619129e-02 
-2.0453385e-01 0.0000000e+00 1.5870336e-02 
-2.0453189e-01 0.0000000e+00 2.1302295e-03 
-2.0454314e-01 0.0000000e+00 -6.8150364e-02 
-2.0454121e-01 0.0000000e+00 -1.1192645e-01 
-2.0453928e-01 0.0000000e+00 -1.3491307e-01 
-2.0453735e-01 0.0000000e+00 -1.4070871e-01 
-2.0453542e-01 0.0000000e+00 -1.3291182e-01 
-2.0453349e-01 0.0000000e+00 -1.1512086e-01 
-2.0453157e-01 0.0000000e+00 -9.0934291e-02 
-2.0452963e-01 0.0000000e+00 -6.3950591e-02 
-2.0452771e-01 0.0000000e+00 -3.7768211e-02 
-2.0452577e-01 0.0000000e+00 -1.5985616e-02 
-2.0452385e-01 0.0000000e+00 -2.2012691e-03 
-4.7690146e-02 0.0000000e+00 1.6466115e-03 
-4.7692455e-02 0.0000000e+00 5.5055590e-03 
-4.7694761e-02 0.0000000e+00 1.0835187e-02 
-4.7697071e-02 0.0000000e+00 1.6877927e-02 
-4.7699377e-02 0.0000000e+00 2.2876216e-02 
-4.7701687e-02 0.0000000e+00 2.8072489e-02 
-4.7703993e-02 0.0000000e+00 3.1709179e-02 
-4.7706302e-02 0.0000000e+00 3.3028718e-02 
-4.7708612e-02 0.0000000e+00 3.1273548e-02 
-4.7710918e-02 0.0000000e+00 2.5686095e-02 
-4.7713228e-02 0.0000000e+00 1.5508798e-02 
-1.3597028e-02 0.0000000e+00 -5.1505687e-03 
-1.3596654e-02 0.0000000e+00 -8.7472545e-03 
-1.3596280e-02 0.0000000e+00 -1.0963085e-02 
-1.3595906e-02 0.0000000e+00 -1.1987450e-02 
-1.3595532e-02 0.0000000e+00 -1.2009738e-02 
-1.3595157e-02 0.0000000e+00 -1.1219339e-02 
-1.3594783e-02 0.0000000e+00 -9.8056449e-03 
-1.3594409e-02 0.0000000e+00 -7.9580434e-03 
-1.3594035e-02 0.0000000e+00 -5.8659241e-03 
-1.3593661e-02 0.0000000e+00 -3.7186781e-03 
-1.3593286e-02 0.0000000e+00 -1.7056946e-03 
ADJOINT_ROTATION 3 212  float
0.0000000e+00 -2.2957129e-03 0.0000000e+00 
0.0000000e+00 -2.3426025e-03 0.0000000e+00 
0.0000000e+00 -2.4832708e-03 0.0000000e+00 
0.0000000e+00 -2.7177180e-03 0.0000000e+00 
0.0000000e+00 -3.0459440e-03 0.0000000e+00 
0.0000000e+00 -3.4679491e-03 0.0000000e+00 
0.0000000e+00 -3.9837328e-03 0.0000000e+00 
0.0000000e+00 -4.5932955e-03 0.0000000e+00 
0.0000000e+00 -5.2966373e-03 0.0000000e+00 
0.0000000e+00 -6.0937577e-03 0.0000000e+00 
0.0000000e+00 -6.9846571e-03 0.0000000e+00 
0.0000000e+00 -7.9693357e-03 0.0000000e+00 
0.0000000e+00 -9.0477923e-03 0.0000000e+00 
0.0000000e+00 -1.1403190e-02 0.0000000e+00 
0.0000000e+00 -1.3195604e-02 0.0000000e+00 
0.0000000e+00 -1.4425035e-02 0.0000000e+00 
0.0000000e+00 -1.5091483e-02 0.0000000e+00 
0.0000000e+00 -1.5194948e-02 0.0000000e+00 
0.0000000e+00 -1.4735430e-02 0.0000000e+00 
0.0000000e+00 -1.3712929e-02 0.0000000e+00 
0.0000000e+00 -1.2127444e-02 0.0000000e+00 
0.0000000e+00 -9.9789780e-03 0.0000000e+00 
0.0000000e+00 -7.2675273e-03 0.0000000e+00 
0.0000000e+00 -3.9930944e-03 0.0000000e+00 
0.0000000e+00 -1.5567837e-04 0.0000000e+00 
0.0000000e+00 -3.0041070e-04 0.0000000e+00 
0.0000000e+00 -2.8859270e-03 0.0000000e+00 
0.0000000e+00 -7.9122270e-03 0.0000000e+00 
0.0000000e+00 -1.5379311e-02 0.0000000e+00 
0.0000000e+00 -2.5287179e-02 0.0000000e+00 
0.0000000e+00 -3.7635829e-02 0.0000000e+00 
0.0000000e+00 -5.2425265e-02 0.0000000e+00 
0.0000000e+00 -6.9655485e-02 0.0000000e+00 
0.0000000e+00 -8.9326486e-02 0.0000000e+00 
0.0000000e+00 -1.1143827e-01 0.0000000e+00 
0.0000000e+00 -1.3599084e-01 0.0000000e+00 
0.0000000e+00 -1.6298421e-01 0.0000000e+00 
0.0000000e+00 -2.1917129e-01 0.0000000e+00 
0.0000000e+00 -2.7535316e-01 0.0000000e+00 
0.0000000e+00 -3.3152983e-01 0.0000000e+00 
0.0000000e+00 -3.8770127e-01 0.0000000e+00 
0.0000000e+00 -4.4386747e-01 0.0000000e+00 
0.0000000e+00 -5.0002849e-01 0.0000000e+00 
0.0000000e+00 4.4381571e-01 0.0000000e+00 
0.0000000e+00 3.8766512e-01 0.0000000e+00 
0.0000000e+00 3.3151972e-01 0.0000000e+00 
0.0000000e+00 2.7537957e-01 0.0000000e+00 
0.0000000e+00 2.1924463e-01 0.0000000e+00 
0.0000000e+00 1.6311491e-01 0.0000000e+00 
0.0000000e+00 1.3618281e-01 0.0000000e+00 
0.0000000e+00 1.1166802e-01 0.0000000e+00 
0.0000000e+00 8.9570545e-02 0.0000000e+00 
0.0000000e+00 6.9890365e-02 0.0000000e+00 
0.0000000e+00 5.2627489e-02 0.0000000e+00 
0.0000000e+00 3.7781920e-02 0.0000000e+00 
0.0000000e+00 2.5353653e-02 0.0000000e+00 
0.0000000e+00 1.5342692e-02 0.0000000e+00 
0.0000000e+00 7.7490336e-03 0.0000000e+00 
0.0000000e+00 2.5726797e-03 0.0000000e+00 
0.0000000e+00 -1.8637039e-04 0.0000000e+00 
0.0000000e+00 -5.2811642e-04 0.0000000e+00 
0.0000000e+00 3.0907521e-03 0.0000000e+00 
0.0000000e+00 6.2419246e-03 0.0000000e+00 
0.0000000e+00 8.9254007e-03 0.0000000e+00 
0.0000000e+00 1.1141182e-02 0.0000000e+00 
0.0000000e+00 1.2889266e-02 0.0000000e+00 
0.0000000e+00 1.4169655e-02 0.0000000e+00 
0.0000000e+00 1.4982347e-02 0.0000000e+00 
0.0000000e+00 1.5327344e-02 0.0000000e+00 
0.0000000e+00 1.5204644e-02 0.0000000e+00 
0.0000000e+00 1.4614249e-02 0.0000000e+00 
0.0000000e+00 1.3556157e-02 0.0000000e+00 
0.0000000e+00 1.2030370e-02 0.0000000e+00 
0.0000000e+00 -6.7949980e-03 0.0000000e+00 
0.0000000e+00 -6.7481082e-03 0.0000000e+00 
0.0000000e+00 -6.6074398e-03 0.0000000e+00 
0.0000000e+00 -6.3729929e-03 0.0000000e+00 
0.0000000e+00 -6.0447669e-03 0.0000000e+00 
0.0000000e+00 -5.6227618e-03 0.0000000e+00 
0.0000000e+00 -5.1069777e-03 0.0000000e+00 
0.0000000e+00 -4.4974149e-03 0.0000000e+00 
0.0000000e+00 -3.7940736e-03 0.0000000e+00 
0.0000000e+00 -2.9969530e-03 0.0000000e+00 
0.0000000e+00 -2.1060535e-03 0.0000000e+00 
0.0000000e+00 -1.1213754e-03 0.0000000e+00 
0.0000000e+00 -4.2918167e-05 0.0000000e+00 
0.0000000e+00 3.9801180e-05 0.0000000e+00 
0.0000000e+00 -4.4046249e-04 0.0000000e+00 
0.0000000e+00 -1.4837092e-03 0.0000000e+00 
0.0000000e+00 -3.0899388e-03 0.0000000e+00 
0.0000000e+00 -5.2591516e-03 0.0000000e+00 
0.0000000e+00 -7.9913475e-03 0.0000000e+00 
0.0000000e+00 -1.1286526e-02 0.0000000e+00 
0.0000000e+00 -1.5144688e-02 0.0000000e+00 
0.0000000e+00 -1.9565832e-02 0.0000000e+00 
0.0000000e+00 -2.4549959e-02 0.0000000e+00 
0.0000000e+00 -3.0097071e-02 0.0000000e+00 
0.0000000e+00 -3.6207166e-02 0.0000000e+00 
0.0000000e+00 -4.7425896e-02 0.0000000e+00 
0.0000000e+00 -5.6203846e-02 0.0000000e+00 
0.0000000e+00 -6.2541008e-02 0.0000000e+00 
0.0000000e+00 -6.6437386e-02 0.0000000e+00 
0.0000000e+00 -6.7892984e-02 0.0000000e+00 
0.0000000e+00 -6.6907801e-02 0.0000000e+00 
0.0000000e+00 -6.3481823e-02 0.0000000e+00 
0.0000000e+00 -5.7615072e-02 0.0000000e+00 
0.0000000e+00 -4.9307533e-02 0.0000000e+00 
0.0000000e+00 -3.8559210e-02 0.0000000e+00 
0.0000000e+00 -2.5370102e-02 0.0000000e+00 
0.0000000e+00 -9.7402111e-03 0.0000000e+00 
0.0000000e+00 -8.0981487e-03 0.0000000e+00 
0.0000000e+00 -6.4612995e-03 0.0000000e+00 
0.0000000e+00 -4.8296642e-03 0.0000000e+00 
0.0000000e+00 -3.2032433e-03 0.0000000e+00 
0.0000000e+00 -1.5820363e-03 0.0000000e+00 
0.0000000e+00 3.3956865e-05 0.0000000e+00 
0.0000000e+00 1.6447360e-03 0.0000000e+00 
0.0000000e+00 3.2503011e-03 0.0000000e+00 
0.0000000e+00 4.8506521e-03 0.0000000e+00 
0.0000000e+00 6.4457897e-03 0.0000000e+00 
0.0000000e+00 8.0357129e-03 0.0000000e+00 
0.0000000e+00 9.6204216e-03 0.0000000e+00 
0.0000000e+00 2.5189048e-02 0.0000000e+00 
0.0000000e+00 3.8340371e-02 0.0000000e+00 
0.0000000e+00 4.9074389e-02 0.0000000e+00 
0.0000000e+00 5.7391100e-02 0.0000000e+00 
0.0000000e+00 6.3290514e-02 0.0000000e+00 
0.0000000e+00 6.6772617e-02 0.0000000e+00 
0.0000000e+00 6.7837417e-02 0.0000000e+00 
0.0000000e+00 6.6484921e-02 0.0000000e+00 
0.0000000e+00 6.2715113e-02 0.0000000e+00 
0.0000000e+00 5.6528002e-02 0.0000000e+00 
0.0000000e+00 4.7923587e-02 0.0000000e+00 
0.0000000e+00 3.6901869e-02 0.0000000e+00 
0.0000000e+00 3.1010322e-02 0.0000000e+00 
0.0000000e+00 2.5586473e-02 0.0000000e+00 
0.0000000e+00 2.0630319e-02 0.0000000e+00 
0.0000000e+00 1.6141860e-02 0.0000000e+00 
0.0000000e+00 1.2121097e-02 0.0000000e+00 
0.0000000e+00 8.5680308e-03 0.0000000e+00 
0.0000000e+00 5.4826611e-03 0.0000000e+00 
0.0000000e+00 2.8649869e-03 0.0000000e+00 
0.0000000e+00 7.1500865e-04 0.0000000e+00 
0.0000000e+00 -9.6727355e-04 0.0000000e+00 
0.0000000e+00 -2.1818597e-03 0.0000000e+00 
0.0000000e+00 -2.9287499e-03 0.0000000e+00 
0.0000000e+00 -6.2140985e-03 0.0000000e+00 
0.0000000e+00 -3.7591839e-03 0.0000000e+00 
0.0000000e+00 -1.6830491e-03 0.0000000e+00 
0.0000000e+00 1.4306056e-05 0.0000000e+00 
0.0000000e+00 1.3328816e-03 0.0000000e+00 
0.0000000e+00 2.2726776e-03 0.0000000e+00 
0.0000000e+00 2.8336940e-03 0.0000000e+00 
0.0000000e+00 3.0159308e-03 0.0000000e+00 
0.0000000e+00 2.8193879e-03 0.0000000e+00 
0.0000000e+00 2.2440655e-03 0.0000000e+00 
0.0000000e+00 1.2899635e-03 0.0000000e+00 
0.0000000e+00 5.1732520e-03 0.0000000e+00 
0.0000000e+00 8.9870514e-03 0.0000000e+00 
0.0000000e+00 1.1285719e-02 0.0000000e+00 
0.0000000e+00 1.2069257e-02 0.0000000e+00 
0.0000000e+00 1.1337663e-02 0.0000000e+00 
0.0000000e+00 9.0909377e-03 0.0000000e+00 
0.0000000e+00 5.3290818e-03 0.0000000e+00 
0.0000000e+00 5.2094805e-05 0.0000000e+00 
0.0000000e+00 -6.7400234e-03 0.0000000e+00 
0.0000000e+00 -1.5047273e-02 0.0000000e+00 
0.0000000e+00 -2.4869652e-02 0.0000000e+00 
0.0000000e+00 -1.1063077e-01 0.0000000e+00 
0.0000000e+00 -6.5474272e-02 0.0000000e+00 
0.0000000e+00 -2.7514700e-02 0.0000000e+00 
0.0000000e+00 3.2479493e-03 0.0000000e+00 
0.0000000e+00 2.6813671e-02 0.0000000e+00 
0.0000000e+00 4.3182466e-02 0.0000000e+00 
0.0000000e+00 5.2354336e-02 0.0000000e+00 
0.0000000e+00 5.4329280e-02 0.0000000e+00 
0.0000000e+00 4.9107295e-02 0.0000000e+00 
0.0000000e+00 3.6688387e-02 0.0000000e+00 
0.0000000e+00 1.7072551e-02 0.0000000e+00 
0.0000000e+00 1.1074060e-01 0.0000000e+00 
0.0000000e+00 6.5563224e-02 0.0000000e+00 
0.0000000e+00 2.7582776e-02 0.0000000e+00 
0.0000000e+00 -3.2007468e-03 0.0000000e+00 
0.0000000e+00 -2.6787343e-02 0.0000000e+00 
0.0000000e+00 -4.3177012e-02 0.0000000e+00 
0.0000000e+00 -5.2369755e-02 0.0000000e+00 
0.0000000e+00 -5.4365572e-02 0.0000000e+00 
0.0000000e+00 -4.9164463e-02 0.0000000e+00 
0.0000000e+00 -3.6766429e-02 0.0000000e+00 
0.0000000e+00 -1.7171467e-02 0.0000000e+00 
0.0000000e+00 -5.7421718e-03 0.0000000e+00 
0.0000000e+00 -9.4410963e-03 0.0000000e+00 
0.0000000e+00 -1.1624889e-02 0.0000000e+00 
0.0000000e+00 -1.2293552e-02 0.0000000e+00 
0.0000000e+00 -1.1447083e-02 0.0000000e+00 
0.0000000e+00 -9.0854838e-03 0.0000000e+00 
0.0000000e+00 -5.2087526e-03 0.0000000e+00 
0.0000000e+00 1.8310944e-04 0.0000000e+00 
0.0000000e+00 7.0901024e-03 0.0000000e+00 
0.0000000e+00 1.5512227e-02 0.0000000e+00 
0.0000000e+00 2.5449483e-02 0.0000000e+00 
0.0000000e+00 8.7004881e-03 0.0000000e+00 
0.0000000e+00 5.7493867e-03 0.0000000e+00 