# vtk DataFile Version 4.0
vtk output
ASCII
DATASET UNSTRUCTURED_GRID
POINTS 212 float
0.0000000e+00 0.0000000e+00 0.0000000e+00 
0.0000000e+00 0.0000000e+00 2.5000000e-01 
0.0000000e+00 0.0000000e+00 5.0000000e-01 
0.0000000e+00 0.0000000e+00 7.5000000e-01 
0.0000000e+00 0.0000000e+00 1.0000000e+00 
0.0000000e+00 0.0000000e+00 1.2500000e+00 
0.0000000e+00 0.0000000e+00 1.5000000e+00 
0.0000000e+00 0.0000000e+00 1.7500000e+00 
0.0000000e+00 0.0000000e+00 2.0000000e+00 
0.0000000e+00 0.0000000e+00 2.2500000e+00 
0.0000000e+00 0.0000000e+00 2.5000000e+00 
0.0000000e+00 0.0000000e+00 2.7500000e+00 
0.0000000e+00 0.0000000e+00 3.0000000e+00 
0.0000000e+00 0.0000000e+00 3.2500000e+00 
0.0000000e+00 0.0000000e+00 3.5000000e+00 
0.0000000e+00 0.0000000e+00 3.7500000e+00 
0.0000000e+00 0.0000000e+00 4.0000000e+00 
0.0000000e+00 0.0000000e+00 4.2500000e+00 
0.0000000e+00 0.0000000e+00 4.5000000e+00 
0.0000000e+00 0.0000000e+00 4.7500000e+00 
0.0000000e+00 0.0000000e+00 5.0000000e+00 
0.0000000e+00 0.0000000e+00 5.2500000e+00 
0.0000000e+00 0.0000000e+00 5.5000000e+00 
0.0000000e+00 0.0000000e+00 5.7500000e+00 
0.0000000e+00 0.0000000e+00 6.0000000e+00 
0.0000000e+00 0.0000000e+00 6.2500000e+00 
0.0000000e+00 0.0000000e+00 6.5000000e+00 
0.0000000e+00 0.0000000e+00 6.7500000e+00 
0.0000000e+00 0.0000000e+00 7.0000000e+00 
0.0000000e+00 0.0000000e+00 7.2500000e+00 
0.0000000e+00 0.0000000e+00 7.5000000e+00 
0.0000000e+00 0.0000000e+00 7.7500000e+00 
0.0000000e+00 0.0000000e+00 8.0000000e+00 
0.0000000e+00 0.0000000e+00 8.2500000e+00 
0.0000000e+00 0.0000000e+00 8.5000000e+00 
0.0000000e+00 0.0000000e+00 8.7500000e+00 
0.0000000e+00 0.0000000e+00 9.0000000e+00 
0.0000000e+00 0.0000000e+00 9.2500000e+00 
0.0000000e+00 0.0000000e+00 9.5000000e+00 
0.0000000e+00 0.0000000e+00 9.7500000e+00 
0.0000000e+00 0.0000000e+00 1.0000000e+01 
0.0000000e+00 0.0000000e+00 1.0250000e+01 
0.0000000e+00 0.0000000e+00 1.0500000e+01 
0.0000000e+00 0.0000000e+00 1.0750000e+01 
0.0000000e+00 0.0000000e+00 1.1000000e+01 
0.0000000e+00 0.0000000e+00 1.1250000e+01 
0.0000000e+00 0.0000000e+00 1.1500000e+01 
0.0000000e+00 0.0000000e+00 1.1750000e+01 
0.0000000e+00 0.0000000e+00 1.2000000e+01 
0.0000000e+00 0.0000000e+00 1.2250000e+01 
0.0000000e+00 0.0000000e+00 1.2500000e+01 
0.0000000e+00 0.0000000e+00 1.2750000e+01 
0.0000000e+00 0.0000000e+00 1.3000000e+01 
0.0000000e+00 0.0000000e+00 1.3250000e+01 
0.0000000e+00 0.0000000e+00 1.3500000e+01 
0.0000000e+00 0.0000000e+00 1.3750000e+01 
0.0000000e+00 0.0000000e+00 1.4000000e+01 
0.0000000e+00 0.0000000e+00 1.4250000e+01 
0.0000000e+00 0.0000000e+00 1.4500000e+01 
0.0000000e+00 0.0000000e+00 1.4750000e+01 
0.0000000e+00 0.0000000e+00 1.5000000e+01 
0.0000000e+00 0.0000000e+00 1.5250000e+01 
0.0000000e+00 0.0000000e+00 1.5500000e+01 
0.0000000e+00 0.0000000e+00 1.5750000e+01 
0.0000000e+00 0.0000000e+00 1.6000000e+01 
0.0000000e+00 0.0000000e+00 1.6250000e+01 
0.0000000e+00 0.0000000e+00 1.6500000e+01 
0.0000000e+00 0.0000000e+00 1.6750000e+01 
0.0000000e+00 0.0000000e+00 1.7000000e+01 
0.0000000e+00 0.0000000e+00 1.7250000e+01 
0.0000000e+00 0.0000000e+00 1.7500000e+01 
0.0000000e+00 0.0000000e+00 1.7750000e+01 
0.0000000e+00 0.0000000e+00 1.8000000e+01 
5.0000000e-01 0.0000000e+00 3.0000000e+00 
5.0000000e-01 0.0000000e+00 6.0000000e+00 
5.0000000e-01 0.0000000e+00 9.0000000e+00 
5.0000000e-01 0.0000000e+00 1.2000000e+01 
5.0000000e-01 0.0000000e+00 1.5000000e+01 
5.0000000e-01 0.0000000e+00 1.8000000e+01 
1.0000000e+00 0.0000000e+00 3.0000000e+00 
1.0000000e+00 0.0000000e+00 6.0000000e+00 
1.0000000e+00 0.0000000e+00 9.0000000e+00 
1.0000000e+00 0.0000000e+00 1.2000000e+01 
1.0000000e+00 0.0000000e+00 1.5000000e+01 
1.0000000e+00 0.0000000e+00 1.8000000e+01 
1.5000000e+00 0.0000000e+00 3.0000000e+00 
1.5000000e+00 0.0000000e+00 6.0000000e+00 
1.5000000e+00 0.0000000e+00 9.0000000e+00 
1.5000000e+00 0.0000000e+00 1.2000000e+01 
1.5000000e+00 0.0000000e+00 1.5000000e+01 
1.5000000e+00 0.0000000e+00 1.8000000e+01 
2.0000000e+00 0.0000000e+00 3.0000000e+00 
2.0000000e+00 0.0000000e+00 6.0000000e+00 
2.0000000e+00 0.0000000e+00 9.0000000e+00 
2.0000000e+00 0.0000000e+00 1.2000000e+01 
2.0000000e+00 0.0000000e+00 1.5000000e+01 
2.0000000e+00 0.0000000e+00 1.8000000e+01 
2.5000000e+00 0.0000000e+00 3.0000000e+00 
2.5000000e+00 0.0000000e+00 6.0000000e+00 
2.5000000e+00 0.0000000e+00 9.0000000e+00 
2.5000000e+00 0.0000000e+00 1.2000000e+01 
2.5000000e+00 0.0000000e+00 1.5000000e+01 
2.5000000e+00 0.0000000e+00 1.8000000e+01 
3.0000000e+00 0.0000000e+00 3.0000000e+00 
3.0000000e+00 0.0000000e+00 6.0000000e+00 
3.0000000e+00 0.0000000e+00 9.0000000e+00 
3.0000000e+00 0.0000000e+00 1.2000000e+01 
3.0000000e+00 0.0000000e+00 1.5000000e+01 
3.0000000e+00 0.0000000e+00 1.8000000e+01 
3.5000000e+00 0.0000000e+00 3.0000000e+00 
3.5000000e+00 0.0000000e+00 6.0000000e+00 
3.5000000e+00 0.0000000e+00 9.0000000e+00 
3.5000000e+00 0.0000000e+00 1.2000000e+01 
3.5000000e+00 0.0000000e+00 1.5000000e+01 
3.5000000e+00 0.0000000e+00 1.8000000e+01 
4.0000000e+00 0.0000000e+00 3.0000000e+00 
4.0000000e+00 0.0000000e+00 6.0000000e+00 
4.0000000e+00 0.0000000e+00 9.0000000e+00 
4.0000000e+00 0.0000000e+00 1.2000000e+01 
4.0000000e+00 0.0000000e+00 1.5000000e+01 
4.0000000e+00 0.0000000e+00 1.8000000e+01 
4.5000000e+00 0.0000000e+00 3.0000000e+00 
4.5000000e+00 0.0000000e+00 6.0000000e+00 
4.5000000e+00 0.0000000e+00 9.0000000e+00 
4.5000000e+00 0.0000000e+00 1.2000000e+01 
4.5000000e+00 0.0000000e+00 1.5000000e+01 
4.5000000e+00 0.0000000e+00 1.8000000e+01 
5.0000000e+00 0.0000000e+00 3.0000000e+00 
5.0000000e+00 0.0000000e+00 6.0000000e+00 
5.0000000e+00 0.0000000e+00 9.0000000e+00 
5.0000000e+00 0.0000000e+00 1.2000000e+01 
5.0000000e+00 0.0000000e+00 1.5000000e+01 
5.0000000e+00 0.0000000e+00 1.8000000e+01 
5.5000000e+00 0.0000000e+00 3.0000000e+00 
5.5000000e+00 0.0000000e+00 6.0000000e+00 
5.5000000e+00 0.0000000e+00 9.0000000e+00 
5.5000000e+00 0.0000000e+00 1.2000000e+01 
5.5000000e+00 0.0000000e+00 1.5000000e+01 
5.5000000e+00 0.0000000e+00 1.8000000e+01 
6.0000000e+00 0.0000000e+00 0.0000000e+00 
6.0000000e+00 0.0000000e+00 2.5000000e-01 
6.0000000e+00 0.0000000e+00 5.0000000e-01 
6.0000000e+00 0.0000000e+00 7.5000000e-01 
6.0000000e+00 0.0000000e+00 1.0000000e+00 
6.0000000e+00 0.0000000e+00 1.2500000e+00 
6.0000000e+00 0.0000000e+00 1.5000000e+00 
6.0000000e+00 0.0000000e+00 1.7500000e+00 
6.0000000e+00 0.0000000e+00 2.0000000e+00 
6.0000000e+00 0.0000000e+00 2.2500000e+00 
6.0000000e+00 0.0000000e+00 2.5000000e+00 
6.0000000e+00 0.0000000e+00 2.7500000e+00 
6.0000000e+00 0.0000000e+00 3.0000000e+00 
6.0000000e+00 0.0000000e+00 3.2500000e+00 
6.0000000e+00 0.0000000e+00 3.5000000e+00 
6.0000000e+00 0.0000000e+00 3.7500000e+00 
6.0000000e+00 0.0000000e+00 4.0000000e+00 
6.0000000e+00 0.0000000e+00 4.2500000e+00 
6.0000000e+00 0.0000000e+00 4.5000000e+00 
6.0000000e+00 0.0000000e+00 4.7500000e+00 
6.0000000e+00 0.0000000e+00 5.0000000e+00 
6.0000000e+00 0.0000000e+00 5.2500000e+00 
6.0000000e+00 0.0000000e+00 5.5000000e+00 
6.0000000e+00 0.0000000e+00 5.7500000e+00 
6.0000000e+00 0.0000000e+00 6.0000000e+00 
6.0000000e+00 0.0000000e+00 6.2500000e+00 
6.0000000e+00 0.0000000e+00 6.5000000e+00 
6.0000000e+00 0.0000000e+00 6.7500000e+00 
6.0000000e+00 0.0000000e+00 7.0000000e+00 
6.0000000e+00 0.0000000e+00 7.2500000e+00 
6.0000000e+00 0.0000000e+00 7.5000000e+00 
6.0000000e+00 0.0000000e+00 7.7500000e+00 
6.0000000e+00 0.0000000e+00 8.0000000e+00 
6.0000000e+00 0.0000000e+00 8.2500000e+00 
6.0000000e+00 0.0000000e+00 8.5000000e+00 
6.0000000e+00 0.0000000e+00 8.7500000e+00 
6.0000000e+00 0.0000000e+00 9.0000000e+00 
6.0000000e+00 0.0000000e+00 9.2500000e+00 
6.0000000e+00 0.0000000e+00 9.5000000e+00 
6.0000000e+00 0.0000000e+00 9.7500000e+00 
6.0000000e+00 0.0000000e+00 1.0000000e+01 
6.0000000e+00 0.0000000e+00 1.0250000e+01 
6.0000000e+00 0.0000000e+00 1.0500000e+01 
6.0000000e+00 0.0000000e+00 1.0750000e+01 
6.0000000e+00 0.0000000e+00 1.1000000e+01 
6.0000000e+00 0.0000000e+00 1.1250000e+01 
6.0000000e+00 0.0000000e+00 1.1500000e+01 
6.0000000e+00 0.0000000e+00 1.1750000e+01 
6.0000000e+00 0.0000000e+00 1.2000000e+01 
6.0000000e+00 0.0000000e+00 1.2250000e+01 
6.0000000e+00 0.0000000e+00 1.2500000e+01 
6.0000000e+00 0.0000000e+00 1.2750000e+01 
6.0000000e+00 0.0000000e+00 1.3000000e+01 
6.0000000e+00 0.0000000e+00 1.3250000e+01 
6.0000000e+00 0.0000000e+00 1.3500000e+01 
6.0000000e+00 0.0000000e+00 1.3750000e+01 
6.0000000e+00 0.0000000e+00 1.4000000e+01 
6.0000000e+00 0.0000000e+00 1.4250000e+01 
6.0000000e+00 0.0000000e+00 1.4500000e+01 
6.0000000e+00 0.0000000e+00 1.4750000e+01 
6.0000000e+00 0.0000000e+00 1.5000000e+01 
6.0000000e+00 0.0000000e+00 1.5250000e+01 
6.0000000e+00 0.0000000e+00 1.5500000e+01 
6.0000000e+00 0.0000000e+00 1.5750000e+01 
6.0000000e+00 0.0000000e+00 1.6000000e+01 
6.0000000e+00 0.0000000e+00 1.6250000e+01 
6.0000000e+00 0.0000000e+00 1.6500000e+01 
6.0000000e+00 0.0000000e+00 1.6750000e+01 
6.0000000e+00 0.0000000e+00 1.7000000e+01 
6.0000000e+00 0.0000000e+00 1.7250000e+01 
6.0000000e+00 0.0000000e+00 1.7500000e+01 
6.0000000e+00 0.0000000e+00 1.7750000e+01 
6.0000000e+00 0.0000000e+00 1.8000000e+01 

CELLS 216 648
2 0 1
2 1 2
2 2 3
2 3 4
2 4 5
2 5 6
2 6 7
2 7 8
2 8 9
2 9 10
2 10 11
2 11 12
2 12 13
2 13 14
2 14 15
2 15 16
2 16 17
2 17 18
2 18 19
2 19 20
2 20 21
2 21 22
2 22 23
2 23 24
2 24 25
2 25 26
2 26 27
2 27 28
2 28 29
2 29 30
2 30 31
2 31 32
2 32 33
2 33 34
2 34 35
2 35 36
2 36 37
2 37 38
2 38 39
2 39 40
2 40 41
2 41 42
2 42 43
2 43 44
2 44 45
2 45 46
2 46 47
2 47 48
2 48 49
2 49 50
2 50 51
2 51 52
2 52 53
2 53 54
2 54 55
2 55 56
2 56 57
2 57 58
2 58 59
2 59 60
2 60 61
2 61 62
2 62 63
2 63 64
2 64 65
2 65 66
2 66 67
2 67 68
2 68 69
2 69 70
2 70 71
2 71 72
2 139 140
2 140 141
2 141 142
2 142 143
2 143 144
2 144 145
2 145 146
2 146 147
2 147 148
2 148 149
2 149 150
2 150 151
2 151 152
2 152 153
2 153 154
2 154 155
2 155 156
2 156 157
2 157 158
2 158 159
2 159 160
2 160 161
2 161 162
2 162 163
2 163 164
2 164 165
2 165 166
2 166 167
2 167 168
2 168 169
2 169 170
2 170 171
2 171 172
2 172 173
2 173 174
2 174 175
2 175 176
2 176 177
2 177 178
2 178 179
2 179 180
2 180 181
2 181 182
2 182 183
2 183 184
2 184 185
2 185 186
2 186 187
2 187 188
2 188 189
2 189 190
2 190 191
2 191 192
2 192 193
2 193 194
2 194 195
2 195 196
2 196 197
2 197 198
2 198 199
2 199 200
2 200 201
2 201 202
2 202 203
2 203 204
2 204 205
2 205 206
2 206 207
2 207 208
2 208 209
2 209 210
2 210 211
2 12 73
2 73 79
2 79 85
2 85 91
2 91 97
2 97 103
2 103 109
2 109 115
2 115 121
2 121 127
2 127 133
2 133 151
2 24 74
2 74 80
2 80 86
2 86 92
2 92 98
2 98 104
2 104 110
2 110 116
2 116 122
2 122 128
2 128 134
2 134 163
2 36 75
2 75 81
2 81 87
2 87 93
2 93 99
2 99 105
2 105 111
2 111 117
2 117 123
2 123 129
2 129 135
2 135 175
2 48 76
2 76 82
2 82 88
2 88 94
2 94 100
2 100 106
2 106 112
2 112 118
2 118 124
2 124 130
2 130 136
2 136 187
2 60 77
2 77 83
2 83 89
2 89 95
2 95 101
2 101 107
2 107 113
2 113 119
2 119 125
2 125 131
2 131 137
2 137 199
2 72 78
2 78 84
2 84 90
2 90 96
2 96 102
2 102 108
2 108 114
2 114 120
2 120 126
2 126 132
2 132 138
2 138 211

CELL_TYPES 216
3
3
3
3
3
3
3
3
3
3
3
3
3
3
3
3
3
3
3
3
3
3
3
3
3
3
3
3
3
3
3
3
3
3
3
3
3
3
3
3
3
3
3
3
3
3
3
3
3
3
3
3
3
3
3
3
3
3
3
3
3
3
3
3
3
3
3
3
3
3
3
3
3
3
3
3
3
3
3
3
3
3
3
3
3
3
3
3
3
3
3
3
3
3
3
3
3
3
3
3
3
3
3
3
3
3
3
3
3
3
3
3
3
3
3
3
3
3
3
3
3
3
3
3
3
3
3
3
3
3
3
3
3
3
3
3
3
3
3
3
3
3
3
3
3
3
3
3
3
3
3
3
3
3
3
3
3
3
3
3
3
3
3
3
3
3
3
3
3
3
3
3
3
3
3
3
3
3
3
3
3
3
3
3
3
3
3
3
3
3
3
3
3
3
3
3
3
3
3
3
3
3
3
3
3
3
3
3
3
3
3
3
3
3
3
3
POINT_DATA 212
FIELD FieldData 8
DISPLACEMENT 3 212  float
0.0000000e+00 0.0000000e+00 0.0000000e+00 
-1.0852113e-04 0.0000000e+00 -5.1572374e-06 
-2.1249345e-04 0.0000000e+00 -1.0279092e-05 
-3.0736820e-04 0.0000000e+00 -1.5365564e-05 
-3.8859659e-04 0.0000000e+00 -2.0416652e-05 
-4.5162981e-04 0.0000000e+00 -2.5432357e-05 
-4.9191911e-04 0.0000000e+00 -3.0412679e-05 
-5.0491560e-04 0.0000000e+00 -3.5357618e-05 
-4.8607061e-04 0.0000000e+00 -4.0267172e-05 
-4.3083527e-04 0.0000000e+00 -4.5141347e-05 
-3.3466084e-04 0.0000000e+00 -4.9980135e-05 
-1.9299849e-04 0.0000000e+00 -5.4783541e-05 
-1.2994382e-06 0.0000000e+00 -5.9551567e-05 
1.7124331e-04 0.0000000e+00 -6.3846317e-05 
2.6241009e-04 0.0000000e+00 -6.8105677e-05 
2.8720961e-04 0.0000000e+00 -7.2329662e-05 
2.6065056e-04 0.0000000e+00 -7.6518263e-05 
1.9774168e-04 0.0000000e+00 -8.0671482e-05 
1.1349167e-04 0.0000000e+00 -8.4789317e-05 
2.2909235e-05 0.0000000e+00 -8.8871762e-05 
-5.8996906e-05 0.0000000e+00 -9.2918832e-05 
-1.1721804e-04 0.0000000e+00 -9.6930518e-05 
-1.3674545e-04 0.0000000e+00 -1.0090682e-04 
-1.0257044e-04 0.0000000e+00 -1.0484774e-04 
3.1572105e-07 0.0000000e+00 -1.0875327e-04 
1.0784687e-04 0.0000000e+00 -1.1218553e-04 
1.5426257e-04 0.0000000e+00 -1.1558241e-04 
1.5203012e-04 0.0000000e+00 -1.1894391e-04 
1.1361680e-04 0.0000000e+00 -1.2227002e-04 
5.1489918e-05 0.0000000e+00 -1.2556075e-04 
-2.1883241e-05 0.0000000e+00 -1.2881609e-04 
-9.4035386e-05 0.0000000e+00 -1.3203606e-04 
-1.5249921e-04 0.0000000e+00 -1.3522063e-04 
-1.8480745e-04 0.0000000e+00 -1.3836983e-04 
-1.7849277e-04 0.0000000e+00 -1.4148364e-04 
-1.2108792e-04 0.0000000e+00 -1.4456207e-04 
-1.2557818e-07 0.0000000e+00 -1.4760513e-04 
1.1898922e-04 0.0000000e+00 -1.5017489e-04 
1.7152536e-04 0.0000000e+00 -1.5270928e-04 
1.7096098e-04 0.0000000e+00 -1.5520828e-04 
1.3077424e-04 0.0000000e+00 -1.5767191e-04 
6.4443251e-05 0.0000000e+00 -1.6010016e-04 
-1.4553814e-05 0.0000000e+00 -1.6249302e-04 
-9.2738825e-05 0.0000000e+00 -1.6485048e-04 
-1.5663363e-04 0.0000000e+00 -1.6717258e-04 
-1.9276008e-04 0.0000000e+00 -1.6945928e-04 
-1.8764006e-04 0.0000000e+00 -1.7171061e-04 
-1.2779540e-04 0.0000000e+00 -1.7392656e-04 
2.5203622e-07 0.0000000e+00 -1.7610710e-04 
1.3200750e-04 0.0000000e+00 -1.7781439e-04 
2.0162373e-04 0.0000000e+00 -1.7948629e-04 
2.2055006e-04 0.0000000e+00 -1.8112281e-04 
2.0023590e-04 0.0000000e+00 -1.8272395e-04 
1.5213055e-04 0.0000000e+00 -1.8428970e-04 
8.7683416e-05 0.0000000e+00 -1.8582007e-04 
1.8343833e-05 0.0000000e+00 -1.8731506e-04 
-4.4438828e-05 0.0000000e+00 -1.8877466e-04 
-8.9215217e-05 0.0000000e+00 -1.9019889e-04 
-1.0453596e-04 0.0000000e+00 -1.9158772e-04 
-7.8951707e-05 0.0000000e+00 -1.9294117e-04 
-1.0130971e-06 0.0000000e+00 -1.9425924e-04 
6.2007413e-05 0.0000000e+00 -1.9510403e-04 
4.8274047e-05 0.0000000e+00 -1.9591345e-04 
-2.2608854e-05 0.0000000e+00 -1.9668748e-04 
-1.3103693e-04 0.0000000e+00 -1.9742612e-04 
-2.5740580e-04 0.0000000e+00 -1.9812939e-04 
-3.8211112e-04 0.0000000e+00 -1.9879728e-04 
-4.8554855e-04 0.0000000e+00 -1.9942978e-04 
-5.4811372e-04 0.0000000e+00 -2.0002689e-04 
-5.5020227e-04 0.0000000e+00 -2.0058862e-04 
-4.7220979e-04 0.0000000e+00 -2.0111496e-04 
-2.9453202e-04 0.0000000e+00 -2.0160593e-04 
2.4354533e-06 0.0000000e+00 -2.0206152e-04 
-1.0828652e-06 0.0000000e+00 -7.4398314e-04 
2.6310087e-07 0.0000000e+00 -6.5387163e-04 
-1.0464848e-07 0.0000000e+00 -7.1958586e-04 
2.1003019e-07 0.0000000e+00 -7.6595310e-04 
-8.4424755e-07 0.0000000e+00 -6.7647157e-04 
2.0295445e-06 0.0000000e+00 -1.1521678e-03 
-8.6629211e-07 0.0000000e+00 -1.7269525e-03 
2.1048071e-07 0.0000000e+00 -1.5228575e-03 
-8.3718781e-08 0.0000000e+00 -1.6105501e-03 
1.6802416e-07 0.0000000e+00 -1.6715344e-03 
-6.7539804e-07 0.0000000e+00 -1.4939888e-03 
1.6236356e-06 0.0000000e+00 -2.3525073e-03 
-6.4971908e-07 0.0000000e+00 -2.7546717e-03 
1.5786054e-07 0.0000000e+00 -2.4619231e-03 
-6.2789084e-08 0.0000000e+00 -2.5667096e-03 
1.2601812e-07 0.0000000e+00 -2.6390629e-03 
-5.0654853e-07 0.0000000e+00 -2.3930231e-03 
1.2177267e-06 0.0000000e+00 -3.5492925e-03 
-4.3314606e-07 0.0000000e+00 -3.6297503e-03 
1.0524036e-07 0.0000000e+00 -3.2736773e-03 
-4.1859387e-08 0.0000000e+00 -3.3906742e-03 
8.4012086e-08 0.0000000e+00 -3.4711480e-03 
-3.3769902e-07 0.0000000e+00 -3.1761839e-03 
8.1181781e-07 0.0000000e+00 -4.5451322e-03 
-2.1657303e-07 0.0000000e+00 -4.2111948e-03 
5.2620184e-08 0.0000000e+00 -3.8171273e-03 
-2.0929688e-08 0.0000000e+00 -3.9414503e-03 
4.2006050e-08 0.0000000e+00 -4.0267962e-03 
-1.6884950e-07 0.0000000e+00 -3.7024776e-03 
4.0590891e-07 0.0000000e+00 -5.1990333e-03 
5.4929176e-15 0.0000000e+00 -4.4144094e-03 
8.7103219e-15 0.0000000e+00 -4.0076766e-03 
1.1311227e-14 0.0000000e+00 -4.1344417e-03 
1.3535497e-14 0.0000000e+00 -4.2214119e-03 
1.5263813e-14 0.0000000e+00 -3.8873083e-03 
1.6215811e-14 0.0000000e+00 -5.4263999e-03 
2.1657304e-07 0.0000000e+00 -4.2111948e-03 
-5.2620166e-08 0.0000000e+00 -3.8171273e-03 
2.0929710e-08 0.0000000e+00 -3.9414503e-03 
-4.2006022e-08 0.0000000e+00 -4.0267962e-03 
1.6884952e-07 0.0000000e+00 -3.7024776e-03 
-4.0590888e-07 0.0000000e+00 -5.1990333e-03 
4.3314608e-07 0.0000000e+00 -3.6297503e-03 
-1.0524034e-07 0.0000000e+00 -3.2736773e-03 
4.1859408e-08 0.0000000e+00 -3.3906742e-03 
-8.4012058e-08 0.0000000e+00 -3.4711480e-03 
3.3769905e-07 0.0000000e+00 -3.1761839e-03 
-8.1181776e-07 0.0000000e+00 -4.5451322e-03 
6.4971908e-07 0.0000000e+00 -2.7546717e-03 
-1.5786051e-07 0.0000000e+00 -2.4619231e-03 
6.2789105e-08 0.0000000e+00 -2.5667096e-03 
-1.2601809e-07 0.0000000e+00 -2.6390629e-03 
5.0654853e-07 0.0000000e+00 -2.3930231e-03 
-1.2177267e-06 0.0000000e+00 -3.5492925e-03 
8.6629211e-07 0.0000000e+00 -1.7269525e-03 
-2.1048069e-07 0.0000000e+00 -1.5228575e-03 
8.3718803e-08 0.0000000e+00 -1.6105501e-03 
-1.6802413e-07 0.0000000e+00 -1.6715344e-03 
6.7539810e-07 0.0000000e+00 -1.4939888e-03 
-1.6236355e-06 0.0000000e+00 -2.3525073e-03 
1.0828652e-06 0.0000000e+00 -7.4398314e-04 
-2.6310087e-07 0.0000000e+00 -6.5387163e-04 
1.0464851e-07 0.0000000e+00 -7.1958586e-04 
-2.1003017e-07 0.0000000e+00 -7.6595310e-04 
8.4424761e-07 0.0000000e+00 -6.7647157e-04 
-2.0295445e-06 0.0000000e+00 -1.1521678e-03 
0.0000000e+00 0.0000000e+00 0.0000000e+00 
1.0852113e-04 0.0000000e+00 -5.1572374e-06 
2.1249345e-04 0.0000000e+00 -1.0279092e-05 
3.0736820e-04 0.0000000e+00 -1.5365564e-05 
3.8859659e-04 0.0000000e+00 -2.0416652e-05 
4.5162981e-04 0.0000000e+00 -2.5432357e-05 
4.9191911e-04 0.0000000e+00 -3.0412679e-05 
5.0491560e-04 0.0000000e+00 -3.5357618e-05 
4.8607061e-04 0.0000000e+00 -4.0267172e-05 
4.3083527e-04 0.0000000e+00 -4.5141347e-05 
3.3466084e-04 0.0000000e+00 -4.9980135e-05 
1.9299849e-04 0.0000000e+00 -5.4783541e-05 
1.2994382e-06 0.0000000e+00 -5.9551567e-05 
-1.7124331e-04 0.0000000e+00 -6.3846317e-05 
-2.6241009e-04 0.0000000e+00 -6.8105677e-05 
-2.8720961e-04 0.0000000e+00 -7.2329662e-05 
-2.6065056e-04 0.0000000e+00 -7.6518263e-05 
-1.9774168e-04 0.0000000e+00 -8.0671482e-05 
-1.1349167e-04 0.0000000e+00 -8.4789317e-05 
-2.2909235e-05 0.0000000e+00 -8.8871762e-05 
5.8996906e-05 0.0000000e+00 -9.2918832e-05 
1.1721804e-04 0.0000000e+00 -9.6930518e-05 
1.3674545e-04 0.0000000e+00 -1.0090682e-04 
1.0257044e-04 0.0000000e+00 -1.0484774e-04 
-3.1572105e-07 0.0000000e+00 -1.0875327e-04 
-1.0784687e-04 0.0000000e+00 -1.1218553e-04 
-1.5426257e-04 0.0000000e+00 -1.1558241e-04 
-1.5203012e-04 0.0000000e+00 -1.1894391e-04 
-1.1361680e-04 0.0000000e+00 -1.2227002e-04 
-5.1489918e-05 0.0000000e+00 -1.2556075e-04 
2.1883241e-05 0.0000000e+00 -1.2881609e-04 
9.4035386e-05 0.0000000e+00 -1.3203606e-04 
1.5249921e-04 0.0000000e+00 -1.3522063e-04 
1.8480745e-04 0.0000000e+00 -1.3836983e-04 
1.7849277e-04 0.0000000e+00 -1.4148364e-04 
1.2108792e-04 0.0000000e+00 -1.4456207e-04 
1.2557820e-07 0.0000000e+00 -1.4760513e-04 
-1.1898922e-04 0.0000000e+00 -1.5017489e-04 
-1.7152536e-04 0.0000000e+00 -1.5270928e-04 
-1.7096098e-04 0.0000000e+00 -1.5520828e-04 
-1.3077424e-04 0.0000000e+00 -1.5767191e-04 
-6.4443251e-05 0.0000000e+00 -1.6010016e-04 
1.4553814e-05 0.0000000e+00 -1.6249302e-04 
9.2738825e-05 0.0000000e+00 -1.6485048e-04 
1.5663363e-04 0.0000000e+00 -1.6717258e-04 
1.9276008e-04 0.0000000e+00 -1.6945928e-04 
1.8764006e-04 0.0000000e+00 -1.7171061e-04 
1.2779540e-04 0.0000000e+00 -1.7392656e-04 
-2.5203619e-07 0.0000000e+00 -1.7610710e-04 
-1.3200750e-04 0.0000000e+00 -1.7781439e-04 
-2.0162373e-04 0.0000000e+00 -1.7948629e-04 
-2.2055006e-04 0.0000000e+00 -1.8112281e-04 
-2.0023590e-04 0.0000000e+00 -1.8272395e-04 
-1.5213055e-04 0.0000000e+00 -1.8428970e-04 
-8.7683416e-05 0.0000000e+00 -1.8582007e-04 
-1.8343833e-05 0.0000000e+00 -1.8731506e-04 
4.4438828e-05 0.0000000e+00 -1.8877466e-04 
8.9215217e-05 0.0000000e+00 -1.9019889e-04 
1.0453596e-04 0.0000000e+00 -1.9158772e-04 
7.8951707e-05 0.0000000e+00 -1.9294117e-04 
1.0130971e-06 0.0000000e+00 -1.9425924e-04 
-6.2007413e-05 0.0000000e+00 -1.9510403e-04 
-4.8274047e-05 0.0000000e+00 -1.9591345e-04 
2.2608854e-05 0.0000000e+00 -1.9668748e-04 
1.3103693e-04 0.0000000e+00 -1.9742612e-04 
2.5740580e-04 0.0000000e+00 -1.9812939e-04 
3.8211112e-04 0.0000000e+00 -1.9879728e-04 
4.8554855e-04 0.0000000e+00 -1.9942978e-04 
5.4811372e-04 0.0000000e+00 -2.0002689e-04 
5.5020227e-04 0.0000000e+00 -2.0058862e-04 
4.7220979e-04 0.0000000e+00 -2.0111496e-04 
2.9453202e-04 0.0000000e+00 -2.0160593e-04 
-2.4354533e-06 0.0000000e+00 -2.0206152e-04 
ROTATION 3 212  float
0.0000000e+00 -4.3711704e-04 0.0000000e+00 
0.0000000e+00 -4.2801944e-04 0.0000000e+00 
0.0000000e+00 -4.0072671e-04 0.0000000e+00 
0.0000000e+00 -3.5523879e-04 0.0000000e+00 
0.0000000e+00 -2.9155574e-04 0.0000000e+00 
0.0000000e+00 -2.0967750e-04 0.0000000e+00 
0.0000000e+00 -1.0960412e-04 0.0000000e+00 
0.0000000e+00 8.6644350e-06 0.0000000e+00 
0.0000000e+00 1.4512814e-04 0.0000000e+00 
0.0000000e+00 2.9978703e-04 0.0000000e+00 
0.0000000e+00 4.7264106e-04 0.0000000e+00 
0.0000000e+00 6.6369027e-04 0.0000000e+00 
0.0000000e+00 8.7293459e-04 0.0000000e+00 
0.0000000e+00 5.1741325e-04 0.0000000e+00 
0.0000000e+00 2.2192678e-04 0.0000000e+00 
0.0000000e+00 -1.3524869e-05 0.0000000e+00 
0.0000000e+00 -1.8894166e-04 0.0000000e+00 
0.0000000e+00 -3.0432362e-04 0.0000000e+00 
0.0000000e+00 -3.5967070e-04 0.0000000e+00 
0.0000000e+00 -3.5498297e-04 0.0000000e+00 
0.0000000e+00 -2.9026036e-04 0.0000000e+00 
0.0000000e+00 -1.6550290e-04 0.0000000e+00 
0.0000000e+00 1.9289393e-05 0.0000000e+00 
0.0000000e+00 2.6411653e-04 0.0000000e+00 
0.0000000e+00 5.6897855e-04 0.0000000e+00 
0.0000000e+00 2.9958217e-04 0.0000000e+00 
0.0000000e+00 8.0054968e-05 0.0000000e+00 
0.0000000e+00 -8.9603061e-05 0.0000000e+00 
0.0000000e+00 -2.0939192e-04 0.0000000e+00 
0.0000000e+00 -2.7931161e-04 0.0000000e+00 
0.0000000e+00 -2.9936212e-04 0.0000000e+00 
0.0000000e+00 -2.6954347e-04 0.0000000e+00 
0.0000000e+00 -1.8985565e-04 0.0000000e+00 
0.0000000e+00 -6.0298647e-05 0.0000000e+00 
0.0000000e+00 1.1912752e-04 0.0000000e+00 
0.0000000e+00 3.4842285e-04 0.0000000e+00 
0.0000000e+00 6.2758737e-04 0.0000000e+00 
0.0000000e+00 3.3431646e-04 0.0000000e+00 
0.0000000e+00 9.4958094e-05 0.0000000e+00 
0.0000000e+00 -9.0487687e-05 0.0000000e+00 
0.0000000e+00 -2.2202088e-04 0.0000000e+00 
0.0000000e+00 -2.9964151e-04 0.0000000e+00 
0.0000000e+00 -3.2334958e-04 0.0000000e+00 
0.0000000e+00 -2.9314504e-04 0.0000000e+00 
0.0000000e+00 -2.0902796e-04 0.0000000e+00 
0.0000000e+00 -7.0998292e-05 0.0000000e+00 
0.0000000e+00 1.2094395e-04 0.0000000e+00 
0.0000000e+00 3.6679878e-04 0.0000000e+00 
0.0000000e+00 6.6656613e-04 0.0000000e+00 
0.0000000e+00 3.9511046e-04 0.0000000e+00 
0.0000000e+00 1.6945224e-04 0.0000000e+00 
0.0000000e+00 -1.0408574e-05 0.0000000e+00 
0.0000000e+00 -1.4447194e-04 0.0000000e+00 
0.0000000e+00 -2.3273786e-04 0.0000000e+00 
0.0000000e+00 -2.7520634e-04 0.0000000e+00 
0.0000000e+00 -2.7187739e-04 0.0000000e+00 
0.0000000e+00 -2.2275100e-04 0.0000000e+00 
0.0000000e+00 -1.2782717e-04 0.0000000e+00 
0.0000000e+00 1.2894106e-05 0.0000000e+00 
0.0000000e+00 1.9941283e-04 0.0000000e+00 
0.0000000e+00 4.3172896e-04 0.0000000e+00 
0.0000000e+00 8.5504711e-05 0.0000000e+00 
0.0000000e+00 -1.8230212e-04 0.0000000e+00 
0.0000000e+00 -3.7169151e-04 0.0000000e+00 
0.0000000e+00 -4.8266345e-04 0.0000000e+00 
0.0000000e+00 -5.1521801e-04 0.0000000e+00 
0.0000000e+00 -4.6935509e-04 0.0000000e+00 
0.0000000e+00 -3.4507475e-04 0.0000000e+00 
0.0000000e+00 -1.4237697e-04 0.0000000e+00 
0.0000000e+00 1.3873824e-04 0.0000000e+00 
0.0000000e+00 4.9827091e-04 0.0000000e+00 
0.0000000e+00 9.3622092e-04 0.0000000e+00 
0.0000000e+00 1.4525885e-03 0.0000000e+00 
0.0000000e+00 1.7613965e-03 0.0000000e+00 
0.0000000e+00 1.5080998e-03 0.0000000e+00 
0.0000000e+00 1.5569405e-03 0.0000000e+00 
0.0000000e+00 1.5894228e-03 0.0000000e+00 
0.0000000e+00 1.3937252e-03 0.0000000e+00 
0.0000000e+00 2.2444413e-03 0.0000000e+00 
0.0000000e+00 2.0858853e-03 0.0000000e+00 
0.0000000e+00 1.8832478e-03 0.0000000e+00 
0.0000000e+00 1.9223203e-03 0.0000000e+00 
0.0000000e+00 1.9483062e-03 0.0000000e+00 
0.0000000e+00 1.7917481e-03 0.0000000e+00 
0.0000000e+00 2.4723210e-03 0.0000000e+00 
0.0000000e+00 1.9591951e-03 0.0000000e+00 
0.0000000e+00 1.8072171e-03 0.0000000e+00 
0.0000000e+00 1.8365216e-03 0.0000000e+00 
0.0000000e+00 1.8560109e-03 0.0000000e+00 
0.0000000e+00 1.7385923e-03 0.0000000e+00 
0.0000000e+00 2.2490220e-03 0.0000000e+00 
0.0000000e+00 1.4941212e-03 0.0000000e+00 
0.0000000e+00 1.3928025e-03 0.0000000e+00 
0.0000000e+00 1.4123388e-03 0.0000000e+00 
0.0000000e+00 1.4253317e-03 0.0000000e+00 
0.0000000e+00 1.3470526e-03 0.0000000e+00 
0.0000000e+00 1.6873392e-03 0.0000000e+00 
0.0000000e+00 8.0345792e-04 0.0000000e+00 
0.0000000e+00 7.5279857e-04 0.0000000e+00 
0.0000000e+00 7.6256669e-04 0.0000000e+00 
0.0000000e+00 7.6906319e-04 0.0000000e+00 
0.0000000e+00 7.2992366e-04 0.0000000e+00 
0.0000000e+00 9.0006692e-04 0.0000000e+00 
0.0000000e+00 -5.2825776e-16 0.0000000e+00 
0.0000000e+00 -3.7782675e-16 0.0000000e+00 
0.0000000e+00 -3.2185243e-16 0.0000000e+00 
0.0000000e+00 -2.6237971e-16 0.0000000e+00 
0.0000000e+00 -1.8366578e-16 0.0000000e+00 
0.0000000e+00 -1.2981296e-16 0.0000000e+00 
0.0000000e+00 -8.0345792e-04 0.0000000e+00 
0.0000000e+00 -7.5279857e-04 0.0000000e+00 
0.0000000e+00 -7.6256669e-04 0.0000000e+00 
0.0000000e+00 -7.6906319e-04 0.0000000e+00 
0.0000000e+00 -7.2992366e-04 0.0000000e+00 
0.0000000e+00 -9.0006692e-04 0.0000000e+00 
0.0000000e+00 -1.4941212e-03 0.0000000e+00 
0.0000000e+00 -1.3928025e-03 0.0000000e+00 
0.0000000e+00 -1.4123388e-03 0.0000000e+00 
0.0000000e+00 -1.4253317e-03 0.0000000e+00 
0.0000000e+00 -1.3470526e-03 0.0000000e+00 
0.0000000e+00 -1.6873392e-03 0.0000000e+00 
0.0000000e+00 -1.9591951e-03 0.0000000e+00 
0.0000000e+00 -1.8072171e-03 0.0000000e+00 
0.0000000e+00 -1.8365216e-03 0.0000000e+00 
0.0000000e+00 -1.8560109e-03 0.0000000e+00 
0.0000000e+00 -1.7385923e-03 0.0000000e+00 
0.0000000e+00 -2.2490220e-03 0.0000000e+00 
0.0000000e+00 -2.0858853e-03 0.0000000e+00 
0.0000000e+00 -1.8832478e-03 0.0000000e+00 
0.0000000e+00 -1.9223203e-03 0.0000000e+00 
0.0000000e+00 -1.9483062e-03 0.0000000e+00 
0.0000000e+00 -1.7917481e-03 0.0000000e+00 
0.0000000e+00 -2.4723210e-03 0.0000000e+00 
0.0000000e+00 -1.7613965e-03 0.0000000e+00 
0.0000000e+00 -1.5080998e-03 0.0000000e+00 
0.0000000e+00 -1.5569405e-03 0.0000000e+00 
0.0000000e+00 -1.5894228e-03 0.0000000e+00 
0.0000000e+00 -1.3937252e-03 0.0000000e+00 
0.0000000e+00 -2.2444413e-03 0.0000000e+00 
0.0000000e+00 4.3711704e-04 0.0000000e+00 
0.0000000e+00 4.2801944e-04 0.0000000e+00 
0.0000000e+00 4.0072671e-04 0.0000000e+00 
0.0000000e+00 3.5523879e-04 0.0000000e+00 
0.0000000e+00 2.9155574e-04 0.0000000e+00 
0.0000000e+00 2.0967750e-04 0.0000000e+00 
0.0000000e+00 1.0960412e-04 0.0000000e+00 
0.0000000e+00 -8.6644350e-06 0.0000000e+00 
0.0000000e+00 -1.4512814e-04 0.0000000e+00 
0.0000000e+00 -2.9978703e-04 0.0000000e+00 
0.0000000e+00 -4.7264106e-04 0.0000000e+00 
0.0000000e+00 -6.6369027e-04 0.0000000e+00 
0.0000000e+00 -8.7293459e-04 0.0000000e+00 
0.0000000e+00 -5.1741325e-04 0.0000000e+00 
0.0000000e+00 -2.2192678e-04 0.0000000e+00 
0.0000000e+00 1.3524869e-05 0.0000000e+00 
0.0000000e+00 1.8894166e-04 0.0000000e+00 
0.0000000e+00 3.0432362e-04 0.0000000e+00 
0.0000000e+00 3.5967070e-04 0.0000000e+00 
0.0000000e+00 3.5498297e-04 0.0000000e+00 
0.0000000e+00 2.9026036e-04 0.0000000e+00 
0.0000000e+00 1.6550290e-04 0.0000000e+00 
0.0000000e+00 -1.9289393e-05 0.0000000e+00 
0.0000000e+00 -2.6411653e-04 0.0000000e+00 
0.0000000e+00 -5.6897855e-04 0.0000000e+00 
0.0000000e+00 -2.9958217e-04 0.0000000e+00 
0.0000000e+00 -8.0054968e-05 0.0000000e+00 
0.0000000e+00 8.9603061e-05 0.0000000e+00 
0.0000000e+00 2.0939192e-04 0.0000000e+00 
0.0000000e+00 2.7931161e-04 0.0000000e+00 
0.0000000e+00 2.9936212e-04 0.0000000e+00 
0.0000000e+00 2.6954347e-04 0.0000000e+00 
0.0000000e+00 1.8985565e-04 0.0000000e+00 
0.0000000e+00 6.0298647e-05 0.0000000e+00 
0.0000000e+00 -1.1912752e-04 0.0000000e+00 
0.0000000e+00 -3.4842285e-04 0.0000000e+00 
0.0000000e+00 -6.2758737e-04 0.0000000e+00 
0.0000000e+00 -3.3431646e-04 0.0000000e+00 
0.0000000e+00 -9.4958094e-05 0.0000000e+00 
0.0000000e+00 9.0487687e-05 0.0000000e+00 
0.0000000e+00 2.2202088e-04 0.0000000e+00 
0.0000000e+00 2.9964151e-04 0.0000000e+00 
0.0000000e+00 3.2334958e-04 0.0000000e+00 
0.0000000e+00 2.9314504e-04 0.0000000e+00 
0.0000000e+00 2.0902796e-04 0.0000000e+00 
0.0000000e+00 7.0998292e-05 0.0000000e+00 
0.0000000e+00 -1.2094395e-04 0.0000000e+00 
0.0000000e+00 -3.6679878e-04 0.0000000e+00 
0.0000000e+00 -6.6656613e-04 0.0000000e+00 
0.0000000e+00 -3.9511046e-04 0.0000000e+00 
0.0000000e+00 -1.6945224e-04 0.0000000e+00 
0.0000000e+00 1.0408574e-05 0.0000000e+00 
0.0000000e+00 1.4447194e-04 0.0000000e+00 
0.0000000e+00 2.3273786e-04 0.0000000e+00 
0.0000000e+00 2.7520634e-04 0.0000000e+00 
0.0000000e+00 2.7187739e-04 0.0000000e+00 
0.0000000e+00 2.2275100e-04 0.0000000e+00 
0.0000000e+00 1.2782717e-04 0.0000000e+00 
0.0000000e+00 -1.2894106e-05 0.0000000e+00 
0.0000000e+00 -1.9941283e-04 0.0000000e+00 
0.0000000e+00 -4.3172896e-04 0.0000000e+00 
0.0000000e+00 -8.5504711e-05 0.0000000e+00 
0.0000000e+00 1.8230212e-04 0.0000000e+00 
0.0000000e+00 3.7169151e-04 0.0000000e+00 
0.0000000e+00 4.8266345e-04 0.0000000e+00 