# vtk DataFile Version 4.0
vtk output
ASCII
DATASET UNSTRUCTURED_GRID
POINTS 60 float
0.0000000e+00 0.0000000e+00 0.0000000e+00 
0.0000000e+00 2.0000000e+00 0.0000000e+00 
0.0000000e+00 4.0000000e+00 0.0000000e+00 
2.0000000e+00 4.0000000e+00 0.0000000e+00 
2.0000000e+00 2.0000000e+00 0.0000000e+00 
2.0000000e+00 0.0000000e+00 0.0000000e+00 
0.0000000e+00 2.0000000e-01 0.0000000e+00 
0.0000000e+00 4.0000001e-01 0.0000000e+00 
0.0000000e+00 6.0000002e-01 0.0000000e+00 
0.0000000e+00 8.0000001e-01 0.0000000e+00 
0.0000000e+00 1.0000000e+00 0.0000000e+00 
0.0000000e+00 1.2000000e+00 0.0000000e+00 
0.0000000e+00 1.4000000e+00 0.0000000e+00 
0.0000000e+00 1.6000000e+00 0.0000000e+00 
0.0000000e+00 1.8000000e+00 0.0000000e+00 
0.0000000e+00 2.2000000e+00 0.0000000e+00 
0.0000000e+00 2.4000001e+00 0.0000000e+00 
0.0000000e+00 2.5999999e+00 0.0000000e+00 
0.0000000e+00 2.8000000e+00 0.0000000e+00 
0.0000000e+00 3.0000000e+00 0.0000000e+00 
0.0000000e+00 3.2000000e+00 0.0000000e+00 
0.0000000e+00 3.4000001e+00 0.0000000e+00 
0.0000000e+00 3.5999999e+00 0.0000000e+00 
0.0000000e+00 3.8000000e+00 0.0000000e+00 
2.0000000e-01 4.0000000e+00 0.0000000e+00 
4.0000001e-01 4.0000000e+00 0.0000000e+00 
6.0000002e-01 4.0000000e+00 0.0000000e+00 
8.0000001e-01 4.0000000e+00 0.0000000e+00 
1.0000000e+00 4.0000000e+00 0.0000000e+00 
1.2000000e+00 4.0000000e+00 0.0000000e+00 
1.4000000e+00 4.0000000e+00 0.0000000e+00 
1.6000000e+00 4.0000000e+00 0.0000000e+00 
1.8000000e+00 4.0000000e+00 0.0000000e+00 
2.0000000e+00 3.8000000e+00 0.0000000e+00 
2.0000000e+00 3.5999999e+00 0.0000000e+00 
2.0000000e+00 3.4000001e+00 0.0000000e+00 
2.0000000e+00 3.2000000e+00 0.0000000e+00 
2.0000000e+00 3.0000000e+00 0.0000000e+00 
2.0000000e+00 2.8000000e+00 0.0000000e+00 
2.0000000e+00 2.5999999e+00 0.0000000e+00 
2.0000000e+00 2.4000001e+00 0.0000000e+00 
2.0000000e+00 2.2000000e+00 0.0000000e+00 
2.0000000e+00 1.8000000e+00 0.0000000e+00 
2.0000000e+00 1.6000000e+00 0.0000000e+00 
2.0000000e+00 1.4000000e+00 0.0000000e+00 
2.0000000e+00 1.2000000e+00 0.0000000e+00 
2.0000000e+00 1.0000000e+00 0.0000000e+00 
2.0000000e+00 8.0000001e-01 0.0000000e+00 
2.0000000e+00 6.0000002e-01 0.0000000e+00 
2.0000000e+00 4.0000001e-01 0.0000000e+00 
2.0000000e+00 2.0000000e-01 0.0000000e+00 
2.0000000e-01 2.0000000e+00 0.0000000e+00 
4.0000001e-01 2.0000000e+00 0.0000000e+00 
6.0000002e-01 2.0000000e+00 0.0000000e+00 
8.0000001e-01 2.0000000e+00 0.0000000e+00 
1.0000000e+00 2.0000000e+00 0.0000000e+00 
1.2000000e+00 2.0000000e+00 0.0000000e+00 
1.4000000e+00 2.0000000e+00 0.0000000e+00 
1.6000000e+00 2.0000000e+00 0.0000000e+00 
1.8000000e+00 2.0000000e+00 0.0000000e+00 

CELLS 60 180
2 0 6
2 6 7
2 7 8
2 8 9
2 9 10
2 10 11
2 11 12
2 12 13
2 13 14
2 14 1
2 1 15
2 15 16
2 16 17
2 17 18
2 18 19
2 19 20
2 20 21
2 21 22
2 22 23
2 23 2
2 2 24
2 24 25
2 25 26
2 26 27
2 27 28
2 28 29
2 29 30
2 30 31
2 31 32
2 32 3
2 3 33
2 33 34
2 34 35
2 35 36
2 36 37
2 37 38
2 38 39
2 39 40
2 40 41
2 41 4
2 4 42
2 42 43
2 43 44
2 44 45
2 45 46
2 46 47
2 47 48
2 48 49
2 49 50
2 50 5
2 1 51
2 51 52
2 52 53
2 53 54
2 54 55
2 55 56
2 56 57
2 57 58
2 58 59
2 59 4

CELL_TYPES 60
3
3
3
3
3
3
3
3
3
3
3
3
3
3
3
3
3
3
3
3
3
3
3
3
3
3
3
3
3
3
3
3
3
3
3
3
3
3
3
3
3
3
3
3
3
3
3
3
3
3
3
3
3
3
3
3
3
3
3
3
POINT_DATA 60
FIELD FieldData 6
DISPLACEMENT 3 60  float
0.0000000e+00 0.0000000e+00 0.0000000e+00 
-2.9466607e-06 -6.6368011e-05 0.0000000e+00 
3.6069912e-06 -9.9552017e-05 0.0000000e+00 
-3.6069912e-06 -9.9552017e-05 0.0000000e+00 
2.9466607e-06 -6.6368011e-05 0.0000000e+00 
0.0000000e+00 0.0000000e+00 0.0000000e+00 
-5.0326587e-05 -6.6368011e-06 0.0000000e+00 
-9.7620941e-05 -1.3273602e-05 0.0000000e+00 
-1.3885081e-04 -1.9910403e-05 0.0000000e+00 
-1.7098397e-04 -2.6547204e-05 0.0000000e+00 
-1.9098818e-04 -3.3184006e-05 0.0000000e+00 
-1.9583121e-04 -3.9820807e-05 0.0000000e+00 
-1.8248080e-04 -4.6457608e-05 0.0000000e+00 
-1.4790474e-04 -5.3094409e-05 0.0000000e+00 
-8.9070767e-05 -5.9731210e-05 0.0000000e+00 
6.2975851e-05 -6.9686408e-05 0.0000000e+00 
7.0225746e-05 -7.3004812e-05 0.0000000e+00 
3.5366320e-05 -7.6323209e-05 0.0000000e+00 
-2.5039117e-05 -7.9641613e-05 0.0000000e+00 
-9.4427262e-05 -8.2960010e-05 0.0000000e+00 
-1.5623482e-04 -8.6278415e-05 0.0000000e+00 
-1.9389846e-04 -8.9596811e-05 0.0000000e+00 
-1.9085492e-04 -9.2915216e-05 0.0000000e+00 
-1.3054087e-04 -9.6233613e-05 0.0000000e+00 
2.8855929e-06 -3.0990786e-04 0.0000000e+00 
2.1641947e-06 -5.4462906e-04 0.0000000e+00 
1.4427965e-06 -7.5038231e-04 0.0000000e+00 
7.2139824e-07 -8.8907237e-04 0.0000000e+00 
-4.5019949e-16 -9.3784207e-04 0.0000000e+00 
-7.2139824e-07 -8.8907237e-04 0.0000000e+00 
-1.4427965e-06 -7.5038231e-04 0.0000000e+00 
-2.1641947e-06 -5.4462906e-04 0.0000000e+00 
-2.8855929e-06 -3.0990786e-04 0.0000000e+00 
1.3054087e-04 -9.6233613e-05 0.0000000e+00 
1.9085492e-04 -9.2915216e-05 0.0000000e+00 
1.9389846e-04 -8.9596811e-05 0.0000000e+00 
1.5623482e-04 -8.6278415e-05 0.0000000e+00 
9.4427262e-05 -8.2960010e-05 0.0000000e+00 
2.5039117e-05 -7.9641613e-05 0.0000000e+00 
-3.5366320e-05 -7.6323209e-05 0.0000000e+00 
-7.0225746e-05 -7.3004812e-05 0.0000000e+00 
-6.2975851e-05 -6.9686408e-05 0.0000000e+00 
8.9070767e-05 -5.9731210e-05 0.0000000e+00 
1.4790474e-04 -5.3094409e-05 0.0000000e+00 
1.8248080e-04 -4.6457608e-05 0.0000000e+00 
1.9583121e-04 -3.9820807e-05 0.0000000e+00 
1.9098818e-04 -3.3184006e-05 0.0000000e+00 
1.7098397e-04 -2.6547204e-05 0.0000000e+00 
1.3885081e-04 -1.9910403e-05 0.0000000e+00 
9.7620941e-05 -1.3273602e-05 0.0000000e+00 
5.0326587e-05 -6.6368011e-06 0.0000000e+00 
-2.3573286e-06 -2.0849852e-04 0.0000000e+00 
-1.7679964e-06 -3.9015556e-04 0.0000000e+00 
-1.1786643e-06 -5.5800588e-04 0.0000000e+00 
-5.8933216e-07 -6.7395414e-04 0.0000000e+00 
-2.9633527e-16 -7.1514322e-04 0.0000000e+00 
5.8933216e-07 -6.7395414e-04 0.0000000e+00 
1.1786643e-06 -5.5800588e-04 0.0000000e+00 
1.7679964e-06 -3.9015556e-04 0.0000000e+00 
2.3573286e-06 -2.0849852e-04 0.0000000e+00 
REACTION 3 60  float
3.9560321e+02 1.9981682e+04 0.0000000e+00 
-1.4827991e+02 2.2728745e+01 0.0000000e+00 
-3.2709427e+02 1.3604703e+02 0.0000000e+00 
3.2709427e+02 1.3604703e+02 0.0000000e+00 
1.4827991e+02 2.2728745e+01 0.0000000e+00 
-3.9560321e+02 1.9981682e+04 0.0000000e+00 
1.4422251e-01 2.2242486e+00 0.0000000e+00 
2.8863227e-01 4.0328436e+00 0.0000000e+00 
4.3335515e-01 5.0101318e+00 0.0000000e+00 
5.7839358e-01 4.7404594e+00 0.0000000e+00 
7.2356522e-01 2.8081722e+00 0.0000000e+00 
8.6844158e-01 -1.2023824e+00 0.0000000e+00 
1.0122862e+00 -7.7068586e+00 0.0000000e+00 
1.1539928e+00 -1.7120909e+01 0.0000000e+00 
1.2920241e+00 -2.9860184e+01 0.0000000e+00 
-1.3930774e+00 3.2983383e+01 0.0000000e+00 
-1.0041039e+00 -8.3015718e+00 0.0000000e+00 
-6.0553825e-01 -1.8057623e+01 0.0000000e+00 
-2.1169303e-01 -8.6863699e+00 0.0000000e+00 
1.7860056e-01 7.4105897e+00 0.0000000e+00 
5.7195622e-01 1.7831661e+01 0.0000000e+00 
9.7039258e-01 1.0175248e+01 0.0000000e+00 
1.3612965e+00 -2.7960253e+01 0.0000000e+00 
1.7073847e+00 -1.0897639e+02 0.0000000e+00 
-8.2950966e+01 -5.4748785e-02 0.0000000e+00 
9.3057396e+01 3.4746282e-02 0.0000000e+00 
1.7096375e+02 1.8659131e-01 0.0000000e+00 
1.2515702e+02 3.8727006e-01 0.0000000e+00 
-0.0000000e+00 4.8144054e-01 0.0000000e+00 
-1.2515702e+02 3.8727006e-01 0.0000000e+00 
-1.7096375e+02 1.8659131e-01 0.0000000e+00 
-9.3057396e+01 3.4746282e-02 0.0000000e+00 
8.2950966e+01 -5.4748785e-02 0.0000000e+00 
-1.7073845e+00 -1.0897639e+02 0.0000000e+00 
-1.3612963e+00 -2.7960253e+01 0.0000000e+00 
-9.7039282e-01 1.0175248e+01 0.0000000e+00 
-5.7195663e-01 1.7831661e+01 0.0000000e+00 
-1.7860021e-01 7.4105897e+00 0.0000000e+00 
2.1169254e-01 -8.6863699e+00 0.0000000e+00 
6.0553890e-01 -1.8057623e+01 0.0000000e+00 
1.0041035e+00 -8.3015718e+00 0.0000000e+00 
1.3930774e+00 3.2983383e+01 0.0000000e+00 
-1.2920249e+00 -2.9860184e+01 0.0000000e+00 
-1.1539929e+00 -1.7120909e+01 0.0000000e+00 
-1.0122854e+00 -7.7068586e+00 0.0000000e+00 
-8.6844242e-01 -1.2023824e+00 0.0000000e+00 
-7.2356504e-01 2.8081722e+00 0.0000000e+00 
-5.7839340e-01 4.7404594e+00 0.0000000e+00 
-4.3335509e-01 5.0101318e+00 0.0000000e+00 
-2.8863215e-01 4.0328436e+00 0.0000000e+00 
-1.4422306e-01 2.2242486e+00 0.0000000e+00 
-9.6455414e+01 2.5865734e-01 0.0000000e+00 
3.4192554e+01 -7.0402853e-02 0.0000000e+00 
1.0851192e+02 -2.7859119e-01 0.0000000e+00 
8.6968338e+01 -3.3651599e-01 0.0000000e+00 
1.4324542e-11 -3.3713505e-01 0.0000000e+00 
-8.6968338e+01 -3.3651593e-01 0.0000000e+00 
-1.0851192e+02 -2.7859119e-01 0.0000000e+00 
-3.4192554e+01 -7.0402853e-02 0.0000000e+00 
9.6455414e+01 2.5865734e-01 0.0000000e+00 
ROTATION 3 60  float
0.0000000e+00 0.0000000e+00 2.5415979e-04 
0.0000000e+00 0.0000000e+00 -5.0389965e-04 
0.0000000e+00 0.0000000e+00 -8.8292931e-04 
0.0000000e+00 0.0000000e+00 8.8292931e-04 
0.0000000e+00 0.0000000e+00 5.0389965e-04 
0.0000000e+00 0.0000000e+00 -2.5415979e-04 
0.0000000e+00 0.0000000e+00 2.4657921e-04 
0.0000000e+00 0.0000000e+00 2.2383743e-04 
0.0000000e+00 0.0000000e+00 1.8593446e-04 
0.0000000e+00 0.0000000e+00 1.3287029e-04 
0.0000000e+00 0.0000000e+00 6.4644948e-05 
0.0000000e+00 0.0000000e+00 -1.8741588e-05 
0.0000000e+00 0.0000000e+00 -1.1728931e-04 
0.0000000e+00 0.0000000e+00 -2.3099822e-04 
0.0000000e+00 0.0000000e+00 -3.5986834e-04 
0.0000000e+00 0.0000000e+00 -1.6912827e-04 
0.0000000e+00 0.0000000e+00 8.2826584e-05 
0.0000000e+00 0.0000000e+00 2.5196490e-04 
0.0000000e+00 0.0000000e+00 3.3828671e-04 
0.0000000e+00 0.0000000e+00 3.4179201e-04 
0.0000000e+00 0.0000000e+00 2.6248078e-04 
0.0000000e+00 0.0000000e+00 1.0035302e-04 
0.0000000e+00 0.0000000e+00 -1.4459125e-04 
0.0000000e+00 0.0000000e+00 -4.7235203e-04 
0.0000000e+00 0.0000000e+00 -1.1634863e-03 
0.0000000e+00 0.0000000e+00 -1.1392814e-03 
0.0000000e+00 0.0000000e+00 -8.8650506e-04 
0.0000000e+00 0.0000000e+00 -4.8134776e-04 
0.0000000e+00 0.0000000e+00 -4.4348693e-17 
0.0000000e+00 0.0000000e+00 4.8134776e-04 
0.0000000e+00 0.0000000e+00 8.8650506e-04 
0.0000000e+00 0.0000000e+00 1.1392814e-03 
0.0000000e+00 0.0000000e+00 1.1634863e-03 
0.0000000e+00 0.0000000e+00 4.7235203e-04 
0.0000000e+00 0.0000000e+00 1.4459125e-04 
0.0000000e+00 0.0000000e+00 -1.0035302e-04 
0.0000000e+00 0.0000000e+00 -2.6248078e-04 
0.0000000e+00 0.0000000e+00 -3.4179201e-04 
0.0000000e+00 0.0000000e+00 -3.3828671e-04 
0.0000000e+00 0.0000000e+00 -2.5196490e-04 
0.0000000e+00 0.0000000e+00 -8.2826584e-05 
0.0000000e+00 0.0000000e+00 1.6912827e-04 
0.0000000e+00 0.0000000e+00 3.5986834e-04 
0.0000000e+00 0.0000000e+00 2.3099822e-04 
0.0000000e+00 0.0000000e+00 1.1728931e-04 
0.0000000e+00 0.0000000e+00 1.8741588e-05 
0.0000000e+00 0.0000000e+00 -6.4644948e-05 
0.0000000e+00 0.0000000e+00 -1.3287029e-04 
0.0000000e+00 0.0000000e+00 -1.8593446e-04 
0.0000000e+00 0.0000000e+00 -2.2383743e-04 
0.0000000e+00 0.0000000e+00 -2.4657921e-04 
0.0000000e+00 0.0000000e+00 -8.6026255e-04 
0.0000000e+00 0.0000000e+00 -9.1186358e-04 
0.0000000e+00 0.0000000e+00 -7.3489320e-04 
0.0000000e+00 0.0000000e+00 -4.0554182e-04 
0.0000000e+00 0.0000000e+00 -4.2870405e-17 
0.0000000e+00 0.0000000e+00 4.0554182e-04 
0.0000000e+00 0.0000000e+00 7.3489320e-04 
0.0000000e+00 0.0000000e+00 9.1186358e-04 
0.0000000e+00 0.0000000e+00 8.6026255e-04 
REACTION_MOMENT 3 60  float
0.0000000e+00 0.0000000e+00 -2.6489732e-01 
0.0000000e+00 0.0000000e+00 6.0153824e-01 
0.0000000e+00 0.0000000e+00 4.8230398e-01 
0.0000000e+00 0.0000000e+00 -4.8230398e-01 
0.0000000e+00 0.0000000e+00 -6.0153818e-01 
0.0000000e+00 0.0000000e+00 2.6489729e-01 
0.0000000e+00 0.0000000e+00 -5.1397479e-01 
0.0000000e+00 0.0000000e+00 -4.6650511e-01 
0.0000000e+00 0.0000000e+00 -3.8735825e-01 
0.0000000e+00 0.0000000e+00 -2.7649975e-01 
0.0000000e+00 0.0000000e+00 -1.3390428e-01 
0.0000000e+00 0.0000000e+00 4.0421091e-02 
0.0000000e+00 0.0000000e+00 2.4640737e-01 
0.0000000e+00 0.0000000e+00 4.8388740e-01 
0.0000000e+00 0.0000000e+00 7.5255305e-01 
0.0000000e+00 0.0000000e+00 1.7989725e-01 
0.0000000e+00 0.0000000e+00 -8.3148785e-02 
0.0000000e+00 0.0000000e+00 -2.5965235e-01 
0.0000000e+00 0.0000000e+00 -3.4947324e-01 
0.0000000e+00 0.0000000e+00 -3.5311520e-01 
0.0000000e+00 0.0000000e+00 -2.7060688e-01 
0.0000000e+00 0.0000000e+00 -1.0145646e-01 
0.0000000e+00 0.0000000e+00 1.5432028e-01 
0.0000000e+00 0.0000000e+00 4.9409813e-01 
0.0000000e+00 0.0000000e+00 2.3106596e-01 
0.0000000e+00 0.0000000e+00 2.2743236e-01 
0.0000000e+00 0.0000000e+00 1.8513168e-01 
0.0000000e+00 0.0000000e+00 1.0542040e-01 
0.0000000e+00 0.0000000e+00 -4.7293724e-11 
0.0000000e+00 0.0000000e+00 -1.0542040e-01 
0.0000000e+00 0.0000000e+00 -1.8513168e-01 
0.0000000e+00 0.0000000e+00 -2.2743236e-01 
0.0000000e+00 0.0000000e+00 -2.3106596e-01 
0.0000000e+00 0.0000000e+00 -4.9409813e-01 
0.0000000e+00 0.0000000e+00 -1.5432023e-01 
0.0000000e+00 0.0000000e+00 1.0145652e-01 
0.0000000e+00 0.0000000e+00 2.7060688e-01 
0.0000000e+00 0.0000000e+00 3.5311520e-01 
0.0000000e+00 0.0000000e+00 3.4947324e-01 
0.0000000e+00 0.0000000e+00 2.5965235e-01 
0.0000000e+00 0.0000000e+00 8.3148800e-02 
0.0000000e+00 0.0000000e+00 -1.7989726e-01 
0.0000000e+00 0.0000000e+00 -7.5255299e-01 
0.0000000e+00 0.0000000e+00 -4.8388743e-01 
0.0000000e+00 0.0000000e+00 -2.4640734e-01 
0.0000000e+00 0.0000000e+00 -4.0421065e-02 
0.0000000e+00 0.0000000e+00 1.3390423e-01 
0.0000000e+00 0.0000000e+00 2.7649972e-01 
0.0000000e+00 0.0000000e+00 3.8735828e-01 
0.0000000e+00 0.0000000e+00 4.6650514e-01 
0.0000000e+00 0.0000000e+00 5.1397479e-01 
0.0000000e+00 0.0000000e+00 -1.6976902e-01 
0.0000000e+00 0.0000000e+00 -1.8237756e-01 
0.0000000e+00 0.0000000e+00 -1.4367226e-01 
0.0000000e+00 0.0000000e+00 -7.6670334e-02 
0.0000000e+00 0.0000000e+00 -6.9662747e-09 
0.0000000e+00 0.0000000e+00 7.6670326e-02 
0.0000000e+00 0.0000000e+00 1.4367226e-01 
0.0000000e+00 0.0000000e+00 1.8237756e-01 
0.0000000e+00 0.0000000e+00 1.6976902e-01 
FORCE 3 60  float
-1.9981580e+04 4.0063141e+02 0.0000000e+00 
-9.3278896e+03 -2.1445505e+03 0.0000000e+00 
-5.8525518e+03 -3.4153374e+03 0.0000000e+00 
-5.8525518e+03 3.4153374e+03 0.0000000e+00 
-9.3278896e+03 2.1445505e+03 0.0000000e+00 
-1.9981580e+04 -4.0063141e+02 0.0000000e+00 
-1.9982695e+04 4.0055231e+02 0.0000000e+00 
-1.9985834e+04 4.0031494e+02 0.0000000e+00 
-1.9990369e+04 3.9991919e+02 0.0000000e+00 
-1.9995266e+04 3.9936487e+02 0.0000000e+00 
-1.9999068e+04 3.9865189e+02 0.0000000e+00 
-1.9999904e+04 3.9778024e+02 0.0000000e+00 
-1.9995488e+04 3.9675031e+02 0.0000000e+00 
-1.9983119e+04 3.9556290e+02 0.0000000e+00 
-1.9959680e+04 3.9421960e+02 0.0000000e+00 
-9.9835967e+03 2.1730376e+03 0.0000000e+00 
-9.9953906e+03 2.1743523e+03 0.0000000e+00 
-9.9818428e+03 2.1752349e+03 0.0000000e+00 
-9.9682832e+03 2.1756841e+03 0.0000000e+00 
-9.9676377e+03 2.1757024e+03 0.0000000e+00 
-9.9804316e+03 2.1752898e+03 0.0000000e+00 
-9.9947871e+03 2.1744438e+03 0.0000000e+00 
-9.9864277e+03 2.1731655e+03 0.0000000e+00 
-9.9186719e+03 2.1714678e+03 0.0000000e+00 
-1.7997227e+03 -8.0011572e+03 0.0000000e+00 
-1.8069370e+03 -6.0011382e+03 0.0000000e+00 
-1.9420151e+03 -4.0009246e+03 0.0000000e+00 
-2.0925256e+03 -2.0005255e+03 0.0000000e+00 
-2.1560225e+03 0.0000000e+00 0.0000000e+00 
-2.0925256e+03 2.0005255e+03 0.0000000e+00 
-1.9420151e+03 4.0009246e+03 0.0000000e+00 
-1.8069370e+03 6.0011382e+03 0.0000000e+00 
-1.7997227e+03 8.0011572e+03 0.0000000e+00 
-9.9186719e+03 -2.1714678e+03 0.0000000e+00 
-9.9864277e+03 -2.1731655e+03 0.0000000e+00 
-9.9947871e+03 -2.1744438e+03 0.0000000e+00 
-9.9804316e+03 -2.1752898e+03 0.0000000e+00 
-9.9676377e+03 -2.1757024e+03 0.0000000e+00 
-9.9682832e+03 -2.1756841e+03 0.0000000e+00 
-9.9818428e+03 -2.1752349e+03 0.0000000e+00 
-9.9953906e+03 -2.1743523e+03 0.0000000e+00 
-9.9835967e+03 -2.1730376e+03 0.0000000e+00 
-1.9959680e+04 -3.9421960e+02 0.0000000e+00 
-1.9983119e+04 -3.9556290e+02 0.0000000e+00 
-1.9995488e+04 -3.9675031e+02 0.0000000e+00 
-1.9999904e+04 -3.9778024e+02 0.0000000e+00 
-1.9999068e+04 -3.9865189e+02 0.0000000e+00 
-1.9995266e+04 -3.9936487e+02 0.0000000e+00 
-1.9990369e+04 -3.9991919e+02 0.0000000e+00 
-1.9985834e+04 -4.0031494e+02 0.0000000e+00 
-1.9982695e+04 -4.0055231e+02 0.0000000e+00 
1.9763445e+03 -7.9991479e+03 0.0000000e+00 
2.0063761e+03 -5.9990864e+03 0.0000000e+00 
1.9327145e+03 -3.9992793e+03 0.0000000e+00 
1.8329791e+03 -1.9996149e+03 0.0000000e+00 
1.7887284e+03 3.4972203e-08 0.0000000e+00 
1.8329791e+03 1.9996149e+03 0.0000000e+00 
1.9327145e+03 3.9992793e+03 0.0000000e+00 
2.0063761e+03 5.9990864e+03 0.0000000e+00 
1.9763445e+03 7.9991479e+03 0.0000000e+00 
MOMENT 3 60  float
0.0000000e+00 0.0000000e+00 3.1176985e+01 
0.0000000e+00 0.0000000e+00 3.4163919e+02 
0.0000000e+00 0.0000000e+00 1.9343945e+03 
0.0000000e+00 0.0000000e+00 1.9343945e+03 
0.0000000e+00 0.0000000e+00 3.4163919e+02 
0.0000000e+00 0.0000000e+00 3.1176985e+01 
0.0000000e+00 0.0000000e+00 7.9595528e+01 
0.0000000e+00 0.0000000e+00 1.5919107e+02 
0.0000000e+00 0.0000000e+00 2.3878659e+02 
0.0000000e+00 0.0000000e+00 3.1838214e+02 
0.0000000e+00 0.0000000e+00 3.9797766e+02 
0.0000000e+00 0.0000000e+00 4.7757318e+02 
0.0000000e+00 0.0000000e+00 5.5716870e+02 
0.0000000e+00 0.0000000e+00 6.3676428e+02 
0.0000000e+00 0.0000000e+00 7.1635980e+02 
0.0000000e+00 0.0000000e+00 -1.5401494e+03 
0.0000000e+00 0.0000000e+00 -1.1053646e+03 
0.0000000e+00 0.0000000e+00 -6.7057983e+02 
0.0000000e+00 0.0000000e+00 -2.3579506e+02 
0.0000000e+00 0.0000000e+00 1.9898972e+02 
0.0000000e+00 0.0000000e+00 6.3377448e+02 
0.0000000e+00 0.0000000e+00 1.0685593e+03 
0.0000000e+00 0.0000000e+00 1.5033441e+03 
0.0000000e+00 0.0000000e+00 1.9381288e+03 
0.0000000e+00 0.0000000e+00 6.5140662e+02 
0.0000000e+00 0.0000000e+00 -7.4859149e+02 
0.0000000e+00 0.0000000e+00 -1.7485905e+03 
0.0000000e+00 0.0000000e+00 -2.3485901e+03 
0.0000000e+00 0.0000000e+00 -2.5485901e+03 
0.0000000e+00 0.0000000e+00 -2.3485901e+03 
0.0000000e+00 0.0000000e+00 -1.7485905e+03 
0.0000000e+00 0.0000000e+00 -7.4859149e+02 
0.0000000e+00 0.0000000e+00 6.5140662e+02 
0.0000000e+00 0.0000000e+00 1.9381288e+03 
0.0000000e+00 0.0000000e+00 1.5033441e+03 
0.0000000e+00 0.0000000e+00 1.0685593e+03 
0.0000000e+00 0.0000000e+00 6.3377448e+02 
0.0000000e+00 0.0000000e+00 1.9898972e+02 
0.0000000e+00 0.0000000e+00 -2.3579506e+02 
0.0000000e+00 0.0000000e+00 -6.7057983e+02 
0.0000000e+00 0.0000000e+00 -1.1053646e+03 
0.0000000e+00 0.0000000e+00 -1.5401494e+03 
0.0000000e+00 0.0000000e+00 7.1635980e+02 
0.0000000e+00 0.0000000e+00 6.3676428e+02 
0.0000000e+00 0.0000000e+00 5.5716870e+02 
0.0000000e+00 0.0000000e+00 4.7757318e+02 
0.0000000e+00 0.0000000e+00 3.9797766e+02 
0.0000000e+00 0.0000000e+00 3.1838214e+02 
0.0000000e+00 0.0000000e+00 2.3878659e+02 
0.0000000e+00 0.0000000e+00 1.5919107e+02 
0.0000000e+00 0.0000000e+00 7.9595528e+01 
0.0000000e+00 0.0000000e+00 1.0493895e+03 
0.0000000e+00 0.0000000e+00 -3.5061124e+02 
0.0000000e+00 0.0000000e+00 -1.3506119e+03 
0.0000000e+00 0.0000000e+00 -1.9506125e+03 
0.0000000e+00 0.0000000e+00 -2.1506128e+03 
0.0000000e+00 0.0000000e+00 -1.9506125e+03 
0.0000000e+00 0.0000000e+00 -1.3506119e+03 
0.0000000e+00 0.0000000e+00 -3.5061124e+02 
0.0000000e+00 0.0000000e+00 1.0493895e+03 
CELL_DATA 60
FIELD FieldData 2
FORCE 3 60  float
-1.9981580e+04 4.0063141e+02 0.0000000e+00 
-1.9983811e+04 4.0047321e+02 0.0000000e+00 
-1.9987855e+04 4.0015668e+02 0.0000000e+00 
-1.9992885e+04 3.9968170e+02 0.0000000e+00 
-1.9997648e+04 3.9904807e+02 0.0000000e+00 
-2.0000486e+04 3.9825571e+02 0.0000000e+00 
-1.9999320e+04 3.9730478e+02 0.0000000e+00 
-1.9991656e+04 3.9619583e+02 0.0000000e+00 
-1.9974584e+04 3.9492999e+02 0.0000000e+00 
-1.9944777e+04 3.9350925e+02 0.0000000e+00 
-9.9674238e+03 2.1722727e+03 0.0000000e+00 
-9.9997695e+03 2.1738025e+03 0.0000000e+00 
-9.9910107e+03 2.1749023e+03 0.0000000e+00 
-9.9726748e+03 2.1755674e+03 0.0000000e+00 
-9.9638916e+03 2.1758008e+03 0.0000000e+00 
-9.9713838e+03 2.1756040e+03 0.0000000e+00 
-9.9894785e+03 2.1749753e+03 0.0000000e+00 
-1.0000096e+04 2.1739124e+03 0.0000000e+00 
-9.9727588e+03 2.1724185e+03 0.0000000e+00 
-9.8645850e+03 2.1705171e+03 0.0000000e+00 
-1.8405728e+03 -9.0011172e+03 0.0000000e+00 
-1.7588726e+03 -7.0011968e+03 0.0000000e+00 
-1.8550015e+03 -5.0010796e+03 0.0000000e+00 
-2.0290288e+03 -3.0007693e+03 0.0000000e+00 
-2.1560225e+03 -1.0002815e+03 0.0000000e+00 
-2.1560225e+03 1.0002815e+03 0.0000000e+00 
-2.0290288e+03 3.0007693e+03 0.0000000e+00 
-1.8550015e+03 5.0010796e+03 0.0000000e+00 
-1.7588726e+03 7.0011968e+03 0.0000000e+00 
-1.8405728e+03 9.0011172e+03 0.0000000e+00 
-9.8645850e+03 -2.1705171e+03 0.0000000e+00 
-9.9727588e+03 -2.1724185e+03 0.0000000e+00 
-1.0000096e+04 -2.1739124e+03 0.0000000e+00 
-9.9894785e+03 -2.1749753e+03 0.0000000e+00 
-9.9713838e+03 -2.1756040e+03 0.0000000e+00 
-9.9638916e+03 -2.1758008e+03 0.0000000e+00 
-9.9726748e+03 -2.1755674e+03 0.0000000e+00 
-9.9910107e+03 -2.1749023e+03 0.0000000e+00 
-9.9997695e+03 -2.1738025e+03 0.0000000e+00 
-9.9674238e+03 -2.1722727e+03 0.0000000e+00 
-1.9944777e+04 -3.9350925e+02 0.0000000e+00 
-1.9974584e+04 -3.9492999e+02 0.0000000e+00 
-1.9991656e+04 -3.9619583e+02 0.0000000e+00 
-1.9999320e+04 -3.9730478e+02 0.0000000e+00 
-2.0000486e+04 -3.9825571e+02 0.0000000e+00 
-1.9997648e+04 -3.9904807e+02 0.0000000e+00 
-1.9992885e+04 -3.9968170e+02 0.0000000e+00 
-1.9987855e+04 -4.0015668e+02 0.0000000e+00 
-1.9983811e+04 -4.0047321e+02 0.0000000e+00 
-1.9981580e+04 -4.0063141e+02 0.0000000e+00 
1.9281356e+03 -8.9992559e+03 0.0000000e+00 
2.0245532e+03 -6.9990400e+03 0.0000000e+00 
1.9881990e+03 -4.9991323e+03 0.0000000e+00 
1.8772300e+03 -2.9994263e+03 0.0000000e+00 
1.7887284e+03 -9.9980316e+02 0.0000000e+00 
1.7887284e+03 9.9980316e+02 0.0000000e+00 
1.8772300e+03 2.9994263e+03 0.0000000e+00 
1.9881990e+03 4.9991323e+03 0.0000000e+00 
2.0245532e+03 6.9990400e+03 0.0000000e+00 
1.9281356e+03 8.9992559e+03 0.0000000e+00 
MOMENT 3 60  float
0.0000000e+00 0.0000000e+00 3.9796913e+01 
0.0000000e+00 0.0000000e+00 1.1939075e+02 
0.0000000e+00 0.0000000e+00 1.9898457e+02 
0.0000000e+00 0.0000000e+00 2.7857840e+02 
0.0000000e+00 0.0000000e+00 3.5817221e+02 
0.0000000e+00 0.0000000e+00 4.3776605e+02 
0.0000000e+00 0.0000000e+00 5.1735986e+02 
0.0000000e+00 0.0000000e+00 5.9695374e+02 
0.0000000e+00 0.0000000e+00 6.7654755e+02 
0.0000000e+00 0.0000000e+00 7.5614142e+02 
0.0000000e+00 0.0000000e+00 -1.7575231e+03 
0.0000000e+00 0.0000000e+00 -1.3227429e+03 
0.0000000e+00 0.0000000e+00 -8.8796277e+02 
0.0000000e+00 0.0000000e+00 -4.5318262e+02 
0.0000000e+00 0.0000000e+00 -1.8402483e+01 
0.0000000e+00 0.0000000e+00 4.1637766e+02 
0.0000000e+00 0.0000000e+00 8.5115778e+02 
0.0000000e+00 0.0000000e+00 1.2859379e+03 
0.0000000e+00 0.0000000e+00 1.7207181e+03 
0.0000000e+00 0.0000000e+00 2.1554985e+03 
0.0000000e+00 0.0000000e+00 1.4729200e+03 
0.0000000e+00 0.0000000e+00 -1.2707546e+02 
0.0000000e+00 0.0000000e+00 -1.3270720e+03 
0.0000000e+00 0.0000000e+00 -2.1270693e+03 
0.0000000e+00 0.0000000e+00 -2.5270676e+03 
0.0000000e+00 0.0000000e+00 -2.5270676e+03 
0.0000000e+00 0.0000000e+00 -2.1270693e+03 
0.0000000e+00 0.0000000e+00 -1.3270720e+03 
0.0000000e+00 0.0000000e+00 -1.2707546e+02 
0.0000000e+00 0.0000000e+00 1.4729200e+03 
0.0000000e+00 0.0000000e+00 2.1554985e+03 
0.0000000e+00 0.0000000e+00 1.7207181e+03 
0.0000000e+00 0.0000000e+00 1.2859379e+03 
0.0000000e+00 0.0000000e+00 8.5115778e+02 
0.0000000e+00 0.0000000e+00 4.1637766e+02 
0.0000000e+00 0.0000000e+00 -1.8402483e+01 
0.0000000e+00 0.0000000e+00 -4.5318262e+02 
0.0000000e+00 0.0000000e+00 -8.8796277e+02 
0.0000000e+00 0.0000000e+00 -1.3227429e+03 
0.0000000e+00 0.0000000e+00 -1.7575231e+03 
0.0000000e+00 0.0000000e+00 7.5614142e+02 
0.0000000e+00 0.0000000e+00 6.7654755e+02 
0.0000000e+00 0.0000000e+00 5.9695374e+02 
0.0000000e+00 0.0000000e+00 5.1735986e+02 
0.0000000e+00 0.0000000e+00 4.3776605e+02 
0.0000000e+00 0.0000000e+00 3.5817221e+02 
0.0000000e+00 0.0000000e+00 2.7857840e+02 
0.0000000e+00 0.0000000e+00 1.9898457e+02 
0.0000000e+00 0.0000000e+00 1.1939075e+02 
0.0000000e+00 0.0000000e+00 3.9796913e+01 
0.0000000e+00 0.0000000e+00 1.8709109e+03 
0.0000000e+00 0.0000000e+00 2.7090622e+02 
0.0000000e+00 0.0000000e+00 -9.2909741e+02 
0.0000000e+00 0.0000000e+00 -1.7290995e+03 
0.0000000e+00 0.0000000e+00 -2.1291003e+03 
0.0000000e+00 0.0000000e+00 -2.1291003e+03 
0.0000000e+00 0.0000000e+00 -1.7290995e+03 
0.0000000e+00 0.0000000e+00 -9.2909741e+02 
0.0000000e+00 0.0000000e+00 2.7090622e+02 
0.0000000e+00 0.0000000e+00 1.8709109e+03 
