# vtk DataFile Version 4.0
vtk output
ASCII
DATASET UNSTRUCTURED_GRID
POINTS 212 float
0.0000000e+00 0.0000000e+00 0.0000000e+00 
0.0000000e+00 0.0000000e+00 2.5000000e-01 
0.0000000e+00 0.0000000e+00 5.0000000e-01 
0.0000000e+00 0.0000000e+00 7.5000000e-01 
0.0000000e+00 0.0000000e+00 1.0000000e+00 
0.0000000e+00 0.0000000e+00 1.2500000e+00 
0.0000000e+00 0.0000000e+00 1.5000000e+00 
0.0000000e+00 0.0000000e+00 1.7500000e+00 
0.0000000e+00 0.0000000e+00 2.0000000e+00 
0.0000000e+00 0.0000000e+00 2.2500000e+00 
0.0000000e+00 0.0000000e+00 2.5000000e+00 
0.0000000e+00 0.0000000e+00 2.7500000e+00 
0.0000000e+00 0.0000000e+00 3.0000000e+00 
0.0000000e+00 0.0000000e+00 3.2500000e+00 
0.0000000e+00 0.0000000e+00 3.5000000e+00 
0.0000000e+00 0.0000000e+00 3.7500000e+00 
0.0000000e+00 0.0000000e+00 4.0000000e+00 
0.0000000e+00 0.0000000e+00 4.2500000e+00 
0.0000000e+00 0.0000000e+00 4.5000000e+00 
0.0000000e+00 0.0000000e+00 4.7500000e+00 
0.0000000e+00 0.0000000e+00 5.0000000e+00 
0.0000000e+00 0.0000000e+00 5.2500000e+00 
0.0000000e+00 0.0000000e+00 5.5000000e+00 
0.0000000e+00 0.0000000e+00 5.7500000e+00 
0.0000000e+00 0.0000000e+00 6.0000000e+00 
0.0000000e+00 0.0000000e+00 6.2500000e+00 
0.0000000e+00 0.0000000e+00 6.5000000e+00 
0.0000000e+00 0.0000000e+00 6.7500000e+00 
0.0000000e+00 0.0000000e+00 7.0000000e+00 
0.0000000e+00 0.0000000e+00 7.2500000e+00 
0.0000000e+00 0.0000000e+00 7.5000000e+00 
0.0000000e+00 0.0000000e+00 7.7500000e+00 
0.0000000e+00 0.0000000e+00 8.0000000e+00 
0.0000000e+00 0.0000000e+00 8.2500000e+00 
0.0000000e+00 0.0000000e+00 8.5000000e+00 
0.0000000e+00 0.0000000e+00 8.7500000e+00 
0.0000000e+00 0.0000000e+00 9.0000000e+00 
0.0000000e+00 0.0000000e+00 9.2500000e+00 
0.0000000e+00 0.0000000e+00 9.5000000e+00 
0.0000000e+00 0.0000000e+00 9.7500000e+00 
0.0000000e+00 0.0000000e+00 1.0000000e+01 
0.0000000e+00 0.0000000e+00 1.0250000e+01 
0.0000000e+00 0.0000000e+00 1.0500000e+01 
0.0000000e+00 0.0000000e+00 1.0750000e+01 
0.0000000e+00 0.0000000e+00 1.1000000e+01 
0.0000000e+00 0.0000000e+00 1.1250000e+01 
0.0000000e+00 0.0000000e+00 1.1500000e+01 
0.0000000e+00 0.0000000e+00 1.1750000e+01 
0.0000000e+00 0.0000000e+00 1.2000000e+01 
0.0000000e+00 0.0000000e+00 1.2250000e+01 
0.0000000e+00 0.0000000e+00 1.2500000e+01 
0.0000000e+00 0.0000000e+00 1.2750000e+01 
0.0000000e+00 0.0000000e+00 1.3000000e+01 
0.0000000e+00 0.0000000e+00 1.3250000e+01 
0.0000000e+00 0.0000000e+00 1.3500000e+01 
0.0000000e+00 0.0000000e+00 1.3750000e+01 
0.0000000e+00 0.0000000e+00 1.4000000e+01 
0.0000000e+00 0.0000000e+00 1.4250000e+01 
0.0000000e+00 0.0000000e+00 1.4500000e+01 
0.0000000e+00 0.0000000e+00 1.4750000e+01 
0.0000000e+00 0.0000000e+00 1.5000000e+01 
0.0000000e+00 0.0000000e+00 1.5250000e+01 
0.0000000e+00 0.0000000e+00 1.5500000e+01 
0.0000000e+00 0.0000000e+00 1.5750000e+01 
0.0000000e+00 0.0000000e+00 1.6000000e+01 
0.0000000e+00 0.0000000e+00 1.6250000e+01 
0.0000000e+00 0.0000000e+00 1.6500000e+01 
0.0000000e+00 0.0000000e+00 1.6750000e+01 
0.0000000e+00 0.0000000e+00 1.7000000e+01 
0.0000000e+00 0.0000000e+00 1.7250000e+01 
0.0000000e+00 0.0000000e+00 1.7500000e+01 
0.0000000e+00 0.0000000e+00 1.7750000e+01 
0.0000000e+00 0.0000000e+00 1.8000000e+01 
5.0000000e-01 0.0000000e+00 3.0000000e+00 
5.0000000e-01 0.0000000e+00 6.0000000e+00 
5.0000000e-01 0.0000000e+00 9.0000000e+00 
5.0000000e-01 0.0000000e+00 1.2000000e+01 
5.0000000e-01 0.0000000e+00 1.5000000e+01 
5.0000000e-01 0.0000000e+00 1.8000000e+01 
1.0000000e+00 0.0000000e+00 3.0000000e+00 
1.0000000e+00 0.0000000e+00 6.0000000e+00 
1.0000000e+00 0.0000000e+00 9.0000000e+00 
1.0000000e+00 0.0000000e+00 1.2000000e+01 
1.0000000e+00 0.0000000e+00 1.5000000e+01 
1.0000000e+00 0.0000000e+00 1.8000000e+01 
1.5000000e+00 0.0000000e+00 3.0000000e+00 
1.5000000e+00 0.0000000e+00 6.0000000e+00 
1.5000000e+00 0.0000000e+00 9.0000000e+00 
1.5000000e+00 0.0000000e+00 1.2000000e+01 
1.5000000e+00 0.0000000e+00 1.5000000e+01 
1.5000000e+00 0.0000000e+00 1.8000000e+01 
2.0000000e+00 0.0000000e+00 3.0000000e+00 
2.0000000e+00 0.0000000e+00 6.0000000e+00 
2.0000000e+00 0.0000000e+00 9.0000000e+00 
2.0000000e+00 0.0000000e+00 1.2000000e+01 
2.0000000e+00 0.0000000e+00 1.5000000e+01 
2.0000000e+00 0.0000000e+00 1.8000000e+01 
2.5000000e+00 0.0000000e+00 3.0000000e+00 
2.5000000e+00 0.0000000e+00 6.0000000e+00 
2.5000000e+00 0.0000000e+00 9.0000000e+00 
2.5000000e+00 0.0000000e+00 1.2000000e+01 
2.5000000e+00 0.0000000e+00 1.5000000e+01 
2.5000000e+00 0.0000000e+00 1.8000000e+01 
3.0000000e+00 0.0000000e+00 3.0000000e+00 
3.0000000e+00 0.0000000e+00 6.0000000e+00 
3.0000000e+00 0.0000000e+00 9.0000000e+00 
3.0000000e+00 0.0000000e+00 1.2000000e+01 
3.0000000e+00 0.0000000e+00 1.5000000e+01 
3.0000000e+00 0.0000000e+00 1.8000000e+01 
3.5000000e+00 0.0000000e+00 3.0000000e+00 
3.5000000e+00 0.0000000e+00 6.0000000e+00 
3.5000000e+00 0.0000000e+00 9.0000000e+00 
3.5000000e+00 0.0000000e+00 1.2000000e+01 
3.5000000e+00 0.0000000e+00 1.5000000e+01 
3.5000000e+00 0.0000000e+00 1.8000000e+01 
4.0000000e+00 0.0000000e+00 3.0000000e+00 
4.0000000e+00 0.0000000e+00 6.0000000e+00 
4.0000000e+00 0.0000000e+00 9.0000000e+00 
4.0000000e+00 0.0000000e+00 1.2000000e+01 
4.0000000e+00 0.0000000e+00 1.5000000e+01 
4.0000000e+00 0.0000000e+00 1.8000000e+01 
4.5000000e+00 0.0000000e+00 3.0000000e+00 
4.5000000e+00 0.0000000e+00 6.0000000e+00 
4.5000000e+00 0.0000000e+00 9.0000000e+00 
4.5000000e+00 0.0000000e+00 1.2000000e+01 
4.5000000e+00 0.0000000e+00 1.5000000e+01 
4.5000000e+00 0.0000000e+00 1.8000000e+01 
5.0000000e+00 0.0000000e+00 3.0000000e+00 
5.0000000e+00 0.0000000e+00 6.0000000e+00 
5.0000000e+00 0.0000000e+00 9.0000000e+00 
5.0000000e+00 0.0000000e+00 1.2000000e+01 
5.0000000e+00 0.0000000e+00 1.5000000e+01 
5.0000000e+00 0.0000000e+00 1.8000000e+01 
5.5000000e+00 0.0000000e+00 3.0000000e+00 
5.5000000e+00 0.0000000e+00 6.0000000e+00 
5.5000000e+00 0.0000000e+00 9.0000000e+00 
5.5000000e+00 0.0000000e+00 1.2000000e+01 
5.5000000e+00 0.0000000e+00 1.5000000e+01 
5.5000000e+00 0.0000000e+00 1.8000000e+01 
6.0000000e+00 0.0000000e+00 0.0000000e+00 
6.0000000e+00 0.0000000e+00 2.5000000e-01 
6.0000000e+00 0.0000000e+00 5.0000000e-01 
6.0000000e+00 0.0000000e+00 7.5000000e-01 
6.0000000e+00 0.0000000e+00 1.0000000e+00 
6.0000000e+00 0.0000000e+00 1.2500000e+00 
6.0000000e+00 0.0000000e+00 1.5000000e+00 
6.0000000e+00 0.0000000e+00 1.7500000e+00 
6.0000000e+00 0.0000000e+00 2.0000000e+00 
6.0000000e+00 0.0000000e+00 2.2500000e+00 
6.0000000e+00 0.0000000e+00 2.5000000e+00 
6.0000000e+00 0.0000000e+00 2.7500000e+00 
6.0000000e+00 0.0000000e+00 3.0000000e+00 
6.0000000e+00 0.0000000e+00 3.2500000e+00 
6.0000000e+00 0.0000000e+00 3.5000000e+00 
6.0000000e+00 0.0000000e+00 3.7500000e+00 
6.0000000e+00 0.0000000e+00 4.0000000e+00 
6.0000000e+00 0.0000000e+00 4.2500000e+00 
6.0000000e+00 0.0000000e+00 4.5000000e+00 
6.0000000e+00 0.0000000e+00 4.7500000e+00 
6.0000000e+00 0.0000000e+00 5.0000000e+00 
6.0000000e+00 0.0000000e+00 5.2500000e+00 
6.0000000e+00 0.0000000e+00 5.5000000e+00 
6.0000000e+00 0.0000000e+00 5.7500000e+00 
6.0000000e+00 0.0000000e+00 6.0000000e+00 
6.0000000e+00 0.0000000e+00 6.2500000e+00 
6.0000000e+00 0.0000000e+00 6.5000000e+00 
6.0000000e+00 0.0000000e+00 6.7500000e+00 
6.0000000e+00 0.0000000e+00 7.0000000e+00 
6.0000000e+00 0.0000000e+00 7.2500000e+00 
6.0000000e+00 0.0000000e+00 7.5000000e+00 
6.0000000e+00 0.0000000e+00 7.7500000e+00 
6.0000000e+00 0.0000000e+00 8.0000000e+00 
6.0000000e+00 0.0000000e+00 8.2500000e+00 
6.0000000e+00 0.0000000e+00 8.5000000e+00 
6.0000000e+00 0.0000000e+00 8.7500000e+00 
6.0000000e+00 0.0000000e+00 9.0000000e+00 
6.0000000e+00 0.0000000e+00 9.2500000e+00 
6.0000000e+00 0.0000000e+00 9.5000000e+00 
6.0000000e+00 0.0000000e+00 9.7500000e+00 
6.0000000e+00 0.0000000e+00 1.0000000e+01 
6.0000000e+00 0.0000000e+00 1.0250000e+01 
6.0000000e+00 0.0000000e+00 1.0500000e+01 
6.0000000e+00 0.0000000e+00 1.0750000e+01 
6.0000000e+00 0.0000000e+00 1.1000000e+01 
6.0000000e+00 0.0000000e+00 1.1250000e+01 
6.0000000e+00 0.0000000e+00 1.1500000e+01 
6.0000000e+00 0.0000000e+00 1.1750000e+01 
6.0000000e+00 0.0000000e+00 1.2000000e+01 
6.0000000e+00 0.0000000e+00 1.2250000e+01 
6.0000000e+00 0.0000000e+00 1.2500000e+01 
6.0000000e+00 0.0000000e+00 1.2750000e+01 
6.0000000e+00 0.0000000e+00 1.3000000e+01 
6.0000000e+00 0.0000000e+00 1.3250000e+01 
6.0000000e+00 0.0000000e+00 1.3500000e+01 
6.0000000e+00 0.0000000e+00 1.3750000e+01 
6.0000000e+00 0.0000000e+00 1.4000000e+01 
6.0000000e+00 0.0000000e+00 1.4250000e+01 
6.0000000e+00 0.0000000e+00 1.4500000e+01 
6.0000000e+00 0.0000000e+00 1.4750000e+01 
6.0000000e+00 0.0000000e+00 1.5000000e+01 
6.0000000e+00 0.0000000e+00 1.5250000e+01 
6.0000000e+00 0.0000000e+00 1.5500000e+01 
6.0000000e+00 0.0000000e+00 1.5750000e+01 
6.0000000e+00 0.0000000e+00 1.6000000e+01 
6.0000000e+00 0.0000000e+00 1.6250000e+01 
6.0000000e+00 0.0000000e+00 1.6500000e+01 
6.0000000e+00 0.0000000e+00 1.6750000e+01 
6.0000000e+00 0.0000000e+00 1.7000000e+01 
6.0000000e+00 0.0000000e+00 1.7250000e+01 
6.0000000e+00 0.0000000e+00 1.7500000e+01 
6.0000000e+00 0.0000000e+00 1.7750000e+01 
6.0000000e+00 0.0000000e+00 1.8000000e+01 

CELLS 216 648
2 0 1
2 1 2
2 2 3
2 3 4
2 4 5
2 5 6
2 6 7
2 7 8
2 8 9
2 9 10
2 10 11
2 11 12
2 12 13
2 13 14
2 14 15
2 15 16
2 16 17
2 17 18
2 18 19
2 19 20
2 20 21
2 21 22
2 22 23
2 23 24
2 24 25
2 25 26
2 26 27
2 27 28
2 28 29
2 29 30
2 30 31
2 31 32
2 32 33
2 33 34
2 34 35
2 35 36
2 36 37
2 37 38
2 38 39
2 39 40
2 40 41
2 41 42
2 42 43
2 43 44
2 44 45
2 45 46
2 46 47
2 47 48
2 48 49
2 49 50
2 50 51
2 51 52
2 52 53
2 53 54
2 54 55
2 55 56
2 56 57
2 57 58
2 58 59
2 59 60
2 60 61
2 61 62
2 62 63
2 63 64
2 64 65
2 65 66
2 66 67
2 67 68
2 68 69
2 69 70
2 70 71
2 71 72
2 139 140
2 140 141
2 141 142
2 142 143
2 143 144
2 144 145
2 145 146
2 146 147
2 147 148
2 148 149
2 149 150
2 150 151
2 151 152
2 152 153
2 153 154
2 154 155
2 155 156
2 156 157
2 157 158
2 158 159
2 159 160
2 160 161
2 161 162
2 162 163
2 163 164
2 164 165
2 165 166
2 166 167
2 167 168
2 168 169
2 169 170
2 170 171
2 171 172
2 172 173
2 173 174
2 174 175
2 175 176
2 176 177
2 177 178
2 178 179
2 179 180
2 180 181
2 181 182
2 182 183
2 183 184
2 184 185
2 185 186
2 186 187
2 187 188
2 188 189
2 189 190
2 190 191
2 191 192
2 192 193
2 193 194
2 194 195
2 195 196
2 196 197
2 197 198
2 198 199
2 199 200
2 200 201
2 201 202
2 202 203
2 203 204
2 204 205
2 205 206
2 206 207
2 207 208
2 208 209
2 209 210
2 210 211
2 12 73
2 73 79
2 79 85
2 85 91
2 91 97
2 97 103
2 103 109
2 109 115
2 115 121
2 121 127
2 127 133
2 133 151
2 24 74
2 74 80
2 80 86
2 86 92
2 92 98
2 98 104
2 104 110
2 110 116
2 116 122
2 122 128
2 128 134
2 134 163
2 36 75
2 75 81
2 81 87
2 87 93
2 93 99
2 99 105
2 105 111
2 111 117
2 117 123
2 123 129
2 129 135
2 135 175
2 48 76
2 76 82
2 82 88
2 88 94
2 94 100
2 100 106
2 106 112
2 112 118
2 118 124
2 124 130
2 130 136
2 136 187
2 60 77
2 77 83
2 83 89
2 89 95
2 95 101
2 101 107
2 107 113
2 113 119
2 119 125
2 125 131
2 131 137
2 137 199
2 72 78
2 78 84
2 84 90
2 90 96
2 96 102
2 102 108
2 108 114
2 114 120
2 120 126
2 126 132
2 132 138
2 138 211

CELL_TYPES 216
3
3
3
3
3
3
3
3
3
3
3
3
3
3
3
3
3
3
3
3
3
3
3
3
3
3
3
3
3
3
3
3
3
3
3
3
3
3
3
3
3
3
3
3
3
3
3
3
3
3
3
3
3
3
3
3
3
3
3
3
3
3
3
3
3
3
3
3
3
3
3
3
3
3
3
3
3
3
3
3
3
3
3
3
3
3
3
3
3
3
3
3
3
3
3
3
3
3
3
3
3
3
3
3
3
3
3
3
3
3
3
3
3
3
3
3
3
3
3
3
3
3
3
3
3
3
3
3
3
3
3
3
3
3
3
3
3
3
3
3
3
3
3
3
3
3
3
3
3
3
3
3
3
3
3
3
3
3
3
3
3
3
3
3
3
3
3
3
3
3
3
3
3
3
3
3
3
3
3
3
3
3
3
3
3
3
3
3
3
3
3
3
3
3
3
3
3
3
3
3
3
3
3
3
3
3
3
3
3
3
3
3
3
3
3
3
POINT_DATA 212
FIELD FieldData 8
DISPLACEMENT 3 212  float
0.0000000e+00 0.0000000e+00 0.0000000e+00 
-5.3268042e-04 0.0000000e+00 -3.1099615e-05 
-1.0430379e-03 0.0000000e+00 -6.1983912e-05 
-1.5087491e-03 0.0000000e+00 -9.2652881e-05 
-1.9074910e-03 0.0000000e+00 -1.2310654e-04 
-2.2169407e-03 0.0000000e+00 -1.5334487e-04 
-2.4147751e-03 0.0000000e+00 -1.8336788e-04 
-2.4786710e-03 0.0000000e+00 -2.1317556e-04 
-2.3863055e-03 0.0000000e+00 -2.4276794e-04 
-2.1153551e-03 0.0000000e+00 -2.7214500e-04 
-1.6434974e-03 0.0000000e+00 -3.0130672e-04 
-9.4840873e-04 0.0000000e+00 -3.3025313e-04 
-7.7663090e-06 0.0000000e+00 -3.5898419e-04 
8.3892327e-04 0.0000000e+00 -3.8488262e-04 
1.2863621e-03 0.0000000e+00 -4.1056570e-04 
1.4081860e-03 0.0000000e+00 -4.3603344e-04 
1.2780314e-03 0.0000000e+00 -4.6128590e-04 
9.6953398e-04 0.0000000e+00 -4.8632300e-04 
5.5632996e-04 0.0000000e+00 -5.1114481e-04 
1.1205540e-04 0.0000000e+00 -5.3575129e-04 
-2.8965372e-04 0.0000000e+00 -5.6014245e-04 
-5.7516131e-04 0.0000000e+00 -5.8431830e-04 
-6.7083136e-04 0.0000000e+00 -6.0827879e-04 
-5.0302781e-04 0.0000000e+00 -6.3202396e-04 
1.8853779e-06 0.0000000e+00 -6.5555389e-04 
5.2955095e-04 0.0000000e+00 -6.7625107e-04 
7.5730705e-04 0.0000000e+00 -6.9673290e-04 
7.4633269e-04 0.0000000e+00 -7.1699946e-04 
5.5780716e-04 0.0000000e+00 -7.3705072e-04 
2.5290941e-04 0.0000000e+00 -7.5688661e-04 
-1.0718137e-04 0.0000000e+00 -7.7650719e-04 
-4.6128605e-04 0.0000000e+00 -7.9591246e-04 
-7.4822555e-04 0.0000000e+00 -8.1510242e-04 
-9.0682070e-04 0.0000000e+00 -8.3407701e-04 
-8.7589241e-04 0.0000000e+00 -8.5283635e-04 
-5.9426151e-04 0.0000000e+00 -8.7138033e-04 
-7.4898378e-07 0.0000000e+00 -8.8970899e-04 
5.8372499e-04 0.0000000e+00 -9.0520497e-04 
8.4153929e-04 0.0000000e+00 -9.2048559e-04 
8.3882170e-04 0.0000000e+00 -9.3555095e-04 
6.4169988e-04 0.0000000e+00 -9.5040095e-04 
3.1630162e-04 0.0000000e+00 -9.6503564e-04 
-7.1245326e-05 0.0000000e+00 -9.7945507e-04 
-4.5481321e-04 0.0000000e+00 -9.9365902e-04 
-7.6827430e-04 0.0000000e+00 -1.0076478e-03 
-9.4550085e-04 0.0000000e+00 -1.0214212e-03 
-9.2036504e-04 0.0000000e+00 -1.0349794e-03 
-6.2673923e-04 0.0000000e+00 -1.0483221e-03 
1.5043677e-06 0.0000000e+00 -1.0614495e-03 
6.4790237e-04 0.0000000e+00 -1.0717442e-03 
9.8936493e-04 0.0000000e+00 -1.0818237e-03 
1.0820802e-03 0.0000000e+00 -1.0916878e-03 
9.8223658e-04 0.0000000e+00 -1.1013367e-03 
7.4602204e-04 0.0000000e+00 -1.1107702e-03 
4.2962490e-04 0.0000000e+00 -1.1199883e-03 
8.9233356e-05 0.0000000e+00 -1.1289911e-03 
-2.1896440e-04 0.0000000e+00 -1.1377786e-03 
-4.3878017e-04 0.0000000e+00 -1.1463509e-03 
-5.1402574e-04 0.0000000e+00 -1.1547077e-03 
-3.8851294e-04 0.0000000e+00 -1.1628493e-03 
-6.0535112e-06 0.0000000e+00 -1.1707755e-03 
3.0327495e-04 0.0000000e+00 -1.1758691e-03 
2.3605915e-04 0.0000000e+00 -1.1807473e-03 
-1.1151643e-04 0.0000000e+00 -1.1854102e-03 
-6.4326730e-04 0.0000000e+00 -1.1898578e-03 
-1.2630089e-03 0.0000000e+00 -1.1940901e-03 
-1.8745568e-03 0.0000000e+00 -1.1981070e-03 
-2.3817262e-03 0.0000000e+00 -1.2019087e-03 
-2.6883332e-03 0.0000000e+00 -1.2054950e-03 
-2.6981926e-03 0.0000000e+00 -1.2088659e-03 
-2.3151203e-03 0.0000000e+00 -1.2120216e-03 
-1.4429317e-03 0.0000000e+00 -1.2149620e-03 
1.4557695e-05 0.0000000e+00 -1.2176870e-03 
-6.4719238e-06 0.0000000e+00 -3.7172169e-03 
1.5711481e-06 0.0000000e+00 -3.3302337e-03 
-6.2415313e-07 0.0000000e+00 -3.6960829e-03 
1.2536398e-06 0.0000000e+00 -3.9553624e-03 
-5.0445929e-06 0.0000000e+00 -3.5368113e-03 
1.2131412e-05 0.0000000e+00 -5.8800448e-03 
-5.1775392e-06 0.0000000e+00 -8.5400520e-03 
1.2569185e-06 0.0000000e+00 -7.5937980e-03 
-4.9932254e-07 0.0000000e+00 -8.0673965e-03 
1.0029119e-06 0.0000000e+00 -8.3982991e-03 
-4.0356745e-06 0.0000000e+00 -7.5478489e-03 
9.7051297e-06 0.0000000e+00 -1.1769891e-02 
-3.8831545e-06 0.0000000e+00 -1.3582374e-02 
9.4268887e-07 0.0000000e+00 -1.2201132e-02 
-3.7449189e-07 0.0000000e+00 -1.2758536e-02 
7.5218384e-07 0.0000000e+00 -1.3145146e-02 
-3.0267556e-06 0.0000000e+00 -1.1958773e-02 
7.2788475e-06 0.0000000e+00 -1.7642112e-02 
-2.5887696e-06 0.0000000e+00 -1.7875763e-02 
6.2845925e-07 0.0000000e+00 -1.6183816e-02 
-2.4966127e-07 0.0000000e+00 -1.6801080e-02 
5.0145593e-07 0.0000000e+00 -1.7227480e-02 
-2.0178372e-06 0.0000000e+00 -1.5801163e-02 
4.8525649e-06 0.0000000e+00 -2.2528285e-02 
-1.2943848e-06 0.0000000e+00 -2.0728489e-02 
3.1422962e-07 0.0000000e+00 -1.8850118e-02 
-1.2483063e-07 0.0000000e+00 -1.9503299e-02 
2.5072796e-07 0.0000000e+00 -1.9953573e-02 
-1.0089186e-06 0.0000000e+00 -1.8383291e-02 
2.4262824e-06 0.0000000e+00 -2.5736680e-02 
-4.1743613e-15 0.0000000e+00 -2.1725513e-02 
-5.0432003e-15 0.0000000e+00 -1.9785000e-02 
-4.1045874e-15 0.0000000e+00 -2.0450154e-02 
-2.4707206e-15 0.0000000e+00 -2.0908387e-02 
-1.4917125e-15 0.0000000e+00 -1.9290114e-02 
-1.6028481e-15 0.0000000e+00 -2.6852261e-02 
1.2943848e-06 0.0000000e+00 -2.0728489e-02 
-3.1422965e-07 0.0000000e+00 -1.8850118e-02 
1.2483062e-07 0.0000000e+00 -1.9503299e-02 
-2.5072796e-07 0.0000000e+00 -1.9953573e-02 
1.0089186e-06 0.0000000e+00 -1.8383291e-02 
-2.4262824e-06 0.0000000e+00 -2.5736680e-02 
2.5887696e-06 0.0000000e+00 -1.7875763e-02 
-6.2845925e-07 0.0000000e+00 -1.6183816e-02 
2.4966124e-07 0.0000000e+00 -1.6801080e-02 
-5.0145593e-07 0.0000000e+00 -1.7227480e-02 
2.0178372e-06 0.0000000e+00 -1.5801163e-02 
-4.8525649e-06 0.0000000e+00 -2.2528285e-02 
3.8831545e-06 0.0000000e+00 -1.3582374e-02 
-9.4268893e-07 0.0000000e+00 -1.2201132e-02 
3.7449189e-07 0.0000000e+00 -1.2758536e-02 
-7.5218384e-07 0.0000000e+00 -1.3145146e-02 
3.0267556e-06 0.0000000e+00 -1.1958773e-02 
-7.2788475e-06 0.0000000e+00 -1.7642112e-02 
5.1775392e-06 0.0000000e+00 -8.5400520e-03 
-1.2569185e-06 0.0000000e+00 -7.5937980e-03 
4.9932248e-07 0.0000000e+00 -8.0673965e-03 
-1.0029119e-06 0.0000000e+00 -8.3982991e-03 
4.0356745e-06 0.0000000e+00 -7.5478489e-03 
-9.7051297e-06 0.0000000e+00 -1.1769891e-02 
6.4719238e-06 0.0000000e+00 -3.7172169e-03 
-1.5711482e-06 0.0000000e+00 -3.3302337e-03 
6.2415313e-07 0.0000000e+00 -3.6960829e-03 
-1.2536398e-06 0.0000000e+00 -3.9553624e-03 
5.0445929e-06 0.0000000e+00 -3.5368113e-03 
-1.2131412e-05 0.0000000e+00 -5.8800448e-03 
0.0000000e+00 0.0000000e+00 0.0000000e+00 
5.3268042e-04 0.0000000e+00 -3.1099615e-05 
1.0430379e-03 0.0000000e+00 -6.1983912e-05 
1.5087491e-03 0.0000000e+00 -9.2652881e-05 
1.9074910e-03 0.0000000e+00 -1.2310654e-04 
2.2169407e-03 0.0000000e+00 -1.5334487e-04 
2.4147751e-03 0.0000000e+00 -1.8336788e-04 
2.4786710e-03 0.0000000e+00 -2.1317556e-04 
2.3863055e-03 0.0000000e+00 -2.4276794e-04 
2.1153551e-03 0.0000000e+00 -2.7214500e-04 
1.6434974e-03 0.0000000e+00 -3.0130672e-04 
9.4840873e-04 0.0000000e+00 -3.3025313e-04 
7.7663090e-06 0.0000000e+00 -3.5898419e-04 
-8.3892327e-04 0.0000000e+00 -3.8488262e-04 
-1.2863621e-03 0.0000000e+00 -4.1056570e-04 
-1.4081860e-03 0.0000000e+00 -4.3603344e-04 
-1.2780314e-03 0.0000000e+00 -4.6128590e-04 
-9.6953398e-04 0.0000000e+00 -4.8632300e-04 
-5.5632996e-04 0.0000000e+00 -5.1114481e-04 
-1.1205540e-04 0.0000000e+00 -5.3575129e-04 
2.8965372e-04 0.0000000e+00 -5.6014245e-04 
5.7516131e-04 0.0000000e+00 -5.8431830e-04 
6.7083136e-04 0.0000000e+00 -6.0827879e-04 
5.0302781e-04 0.0000000e+00 -6.3202396e-04 
-1.8853779e-06 0.0000000e+00 -6.5555389e-04 
-5.2955095e-04 0.0000000e+00 -6.7625107e-04 
-7.5730705e-04 0.0000000e+00 -6.9673290e-04 
-7.4633269e-04 0.0000000e+00 -7.1699946e-04 
-5.5780716e-04 0.0000000e+00 -7.3705072e-04 
-2.5290941e-04 0.0000000e+00 -7.5688661e-04 
1.0718137e-04 0.0000000e+00 -7.7650719e-04 
4.6128605e-04 0.0000000e+00 -7.9591246e-04 
7.4822555e-04 0.0000000e+00 -8.1510242e-04 
9.0682070e-04 0.0000000e+00 -8.3407701e-04 
8.7589241e-04 0.0000000e+00 -8.5283635e-04 
5.9426151e-04 0.0000000e+00 -8.7138033e-04 
7.4898378e-07 0.0000000e+00 -8.8970899e-04 
-5.8372499e-04 0.0000000e+00 -9.0520497e-04 
-8.4153929e-04 0.0000000e+00 -9.2048559e-04 
-8.3882170e-04 0.0000000e+00 -9.3555095e-04 
-6.4169988e-04 0.0000000e+00 -9.5040095e-04 
-3.1630162e-04 0.0000000e+00 -9.6503564e-04 
7.1245326e-05 0.0000000e+00 -9.7945507e-04 
4.5481321e-04 0.0000000e+00 -9.9365902e-04 
7.6827430e-04 0.0000000e+00 -1.0076478e-03 
9.4550085e-04 0.0000000e+00 -1.0214212e-03 
9.2036504e-04 0.0000000e+00 -1.0349794e-03 
6.2673923e-04 0.0000000e+00 -1.0483221e-03 
-1.5043677e-06 0.0000000e+00 -1.0614495e-03 
-6.4790237e-04 0.0000000e+00 -1.0717442e-03 
-9.8936493e-04 0.0000000e+00 -1.0818237e-03 
-1.0820802e-03 0.0000000e+00 -1.0916878e-03 
-9.8223658e-04 0.0000000e+00 -1.1013367e-03 
-7.4602204e-04 0.0000000e+00 -1.1107702e-03 
-4.2962490e-04 0.0000000e+00 -1.1199883e-03 
-8.9233356e-05 0.0000000e+00 -1.1289911e-03 
2.1896440e-04 0.0000000e+00 -1.1377786e-03 
4.3878017e-04 0.0000000e+00 -1.1463509e-03 
5.1402574e-04 0.0000000e+00 -1.1547077e-03 
3.8851294e-04 0.0000000e+00 -1.1628493e-03 
6.0535112e-06 0.0000000e+00 -1.1707755e-03 
-3.0327495e-04 0.0000000e+00 -1.1758691e-03 
-2.3605915e-04 0.0000000e+00 -1.1807473e-03 
1.1151643e-04 0.0000000e+00 -1.1854102e-03 
6.4326730e-04 0.0000000e+00 -1.1898578e-03 
1.2630089e-03 0.0000000e+00 -1.1940901e-03 
1.8745568e-03 0.0000000e+00 -1.1981070e-03 
2.3817262e-03 0.0000000e+00 -1.2019087e-03 
2.6883332e-03 0.0000000e+00 -1.2054950e-03 
2.6981926e-03 0.0000000e+00 -1.2088659e-03 
2.3151203e-03 0.0000000e+00 -1.2120216e-03 
1.4429317e-03 0.0000000e+00 -1.2149620e-03 
-1.4557695e-05 0.0000000e+00 -1.2176870e-03 
ROTATION 3 212  float
0.0000000e+00 -2.1456038e-03 0.0000000e+00 
0.0000000e+00 -2.1009578e-03 0.0000000e+00 
0.0000000e+00 -1.9670192e-03 0.0000000e+00 
0.0000000e+00 -1.7437885e-03 0.0000000e+00 
0.0000000e+00 -1.4312655e-03 0.0000000e+00 
0.0000000e+00 -1.0294502e-03 0.0000000e+00 
0.0000000e+00 -5.3834252e-04 0.0000000e+00 
0.0000000e+00 4.2057378e-05 0.0000000e+00 
0.0000000e+00 7.1174960e-04 0.0000000e+00 
0.0000000e+00 1.4707341e-03 0.0000000e+00 
0.0000000e+00 2.3190109e-03 0.0000000e+00 
0.0000000e+00 3.2565801e-03 0.0000000e+00 
0.0000000e+00 4.2834412e-03 0.0000000e+00 
0.0000000e+00 2.5391660e-03 0.0000000e+00 
0.0000000e+00 1.0894348e-03 0.0000000e+00 
0.0000000e+00 -6.5752080e-05 0.0000000e+00 
0.0000000e+00 -9.2639483e-04 0.0000000e+00 
0.0000000e+00 -1.4924934e-03 0.0000000e+00 
0.0000000e+00 -1.7640479e-03 0.0000000e+00 
0.0000000e+00 -1.7410581e-03 0.0000000e+00 
0.0000000e+00 -1.4235241e-03 0.0000000e+00 
0.0000000e+00 -8.1144599e-04 0.0000000e+00 
0.0000000e+00 9.5176307e-05 0.0000000e+00 
0.0000000e+00 1.2963428e-03 0.0000000e+00 
0.0000000e+00 2.7920534e-03 0.0000000e+00 
0.0000000e+00 1.4700572e-03 0.0000000e+00 
0.0000000e+00 3.9277744e-04 0.0000000e+00 
0.0000000e+00 -4.3978589e-04 0.0000000e+00 
0.0000000e+00 -1.0276327e-03 0.0000000e+00 
0.0000000e+00 -1.3707631e-03 0.0000000e+00 
0.0000000e+00 -1.4691770e-03 0.0000000e+00 
0.0000000e+00 -1.3228743e-03 0.0000000e+00 
0.0000000e+00 -9.3185535e-04 0.0000000e+00 
0.0000000e+00 -2.9611978e-04 0.0000000e+00 
0.0000000e+00 5.8433221e-04 0.0000000e+00 
0.0000000e+00 1.7095007e-03 0.0000000e+00 
0.0000000e+00 3.0793857e-03 0.0000000e+00 
0.0000000e+00 1.6404914e-03 0.0000000e+00 
0.0000000e+00 4.6610821e-04 0.0000000e+00 
0.0000000e+00 -4.4376406e-04 0.0000000e+00 
0.0000000e+00 -1.0891253e-03 0.0000000e+00 
0.0000000e+00 -1.4699756e-03 0.0000000e+00 
0.0000000e+00 -1.5863149e-03 0.0000000e+00 
0.0000000e+00 -1.4381431e-03 0.0000000e+00 
0.0000000e+00 -1.0254604e-03 0.0000000e+00 
0.0000000e+00 -3.4826668e-04 0.0000000e+00 
0.0000000e+00 5.9343799e-04 0.0000000e+00 
0.0000000e+00 1.7996537e-03 0.0000000e+00 
0.0000000e+00 3.2703804e-03 0.0000000e+00 
0.0000000e+00 1.9382623e-03 0.0000000e+00 
0.0000000e+00 8.3089696e-04 0.0000000e+00 
0.0000000e+00 -5.1715528e-05 0.0000000e+00 
0.0000000e+00 -7.0957519e-04 0.0000000e+00 
0.0000000e+00 -1.1426820e-03 0.0000000e+00 
0.0000000e+00 -1.3510361e-03 0.0000000e+00 
0.0000000e+00 -1.3346374e-03 0.0000000e+00 
0.0000000e+00 -1.0934859e-03 0.0000000e+00 
0.0000000e+00 -6.2758150e-04 0.0000000e+00 
0.0000000e+00 6.3075684e-05 0.0000000e+00 
0.0000000e+00 9.7848568e-04 0.0000000e+00 
0.0000000e+00 2.1186485e-03 0.0000000e+00 
0.0000000e+00 4.2010233e-04 0.0000000e+00 
0.0000000e+00 -8.9370582e-04 0.0000000e+00 
0.0000000e+00 -1.8227758e-03 0.0000000e+00 
0.0000000e+00 -2.3671079e-03 0.0000000e+00 
0.0000000e+00 -2.5267019e-03 0.0000000e+00 
0.0000000e+00 -2.3015579e-03 0.0000000e+00 
0.0000000e+00 -1.6916757e-03 0.0000000e+00 
0.0000000e+00 -6.9705560e-04 0.0000000e+00 
0.0000000e+00 6.8230252e-04 0.0000000e+00 
0.0000000e+00 2.4463988e-03 0.0000000e+00 
0.0000000e+00 4.5952331e-03 0.0000000e+00 
0.0000000e+00 7.1288054e-03 0.0000000e+00 
0.0000000e+00 8.6422209e-03 0.0000000e+00 
0.0000000e+00 7.3993974e-03 0.0000000e+00 
0.0000000e+00 7.6388409e-03 0.0000000e+00 
0.0000000e+00 7.7980030e-03 0.0000000e+00 
0.0000000e+00 6.8382267e-03 0.0000000e+00 
0.0000000e+00 1.1013357e-02 0.0000000e+00 
0.0000000e+00 1.0234080e-02 0.0000000e+00 
0.0000000e+00 9.2398217e-03 0.0000000e+00 
0.0000000e+00 9.4313761e-03 0.0000000e+00 
0.0000000e+00 9.5587065e-03 0.0000000e+00 
0.0000000e+00 8.7908851e-03 0.0000000e+00 
0.0000000e+00 1.2130990e-02 0.0000000e+00 
0.0000000e+00 9.6124038e-03 0.0000000e+00 
0.0000000e+00 8.8667097e-03 0.0000000e+00 
0.0000000e+00 9.0103764e-03 0.0000000e+00 
0.0000000e+00 9.1058733e-03 0.0000000e+00 
0.0000000e+00 8.5300077e-03 0.0000000e+00 
0.0000000e+00 1.1035086e-02 0.0000000e+00 
0.0000000e+00 7.3305760e-03 0.0000000e+00 
0.0000000e+00 6.8334467e-03 0.0000000e+00 
0.0000000e+00 6.9292239e-03 0.0000000e+00 
0.0000000e+00 6.9928886e-03 0.0000000e+00 
0.0000000e+00 6.6089784e-03 0.0000000e+00 
0.0000000e+00 8.2790302e-03 0.0000000e+00 
0.0000000e+00 3.9419797e-03 0.0000000e+00 
0.0000000e+00 3.6934153e-03 0.0000000e+00 
0.0000000e+00 3.7413039e-03 0.0000000e+00 
0.0000000e+00 3.7731363e-03 0.0000000e+00 
0.0000000e+00 3.5811812e-03 0.0000000e+00 
0.0000000e+00 4.4162073e-03 0.0000000e+00 
0.0000000e+00 1.8195426e-16 0.0000000e+00 
0.0000000e+00 -1.3343313e-16 0.0000000e+00 
0.0000000e+00 -2.6686625e-16 0.0000000e+00 
0.0000000e+00 2.1834511e-16 0.0000000e+00 
0.0000000e+00 -3.6390852e-17 0.0000000e+00 
0.0000000e+00 -2.0256631e-16 0.0000000e+00 
0.0000000e+00 -3.9419797e-03 0.0000000e+00 
0.0000000e+00 -3.6934153e-03 0.0000000e+00 
0.0000000e+00 -3.7413039e-03 0.0000000e+00 
0.0000000e+00 -3.7731363e-03 0.0000000e+00 
0.0000000e+00 -3.5811812e-03 0.0000000e+00 
0.0000000e+00 -4.4162073e-03 0.0000000e+00 
0.0000000e+00 -7.3305760e-03 0.0000000e+00 
0.0000000e+00 -6.8334467e-03 0.0000000e+00 
0.0000000e+00 -6.9292239e-03 0.0000000e+00 
0.0000000e+00 -6.9928886e-03 0.0000000e+00 
0.0000000e+00 -6.6089784e-03 0.0000000e+00 
0.0000000e+00 -8.2790302e-03 0.0000000e+00 
0.0000000e+00 -9.6124038e-03 0.0000000e+00 
0.0000000e+00 -8.8667097e-03 0.0000000e+00 
0.0000000e+00 -9.0103764e-03 0.0000000e+00 
0.0000000e+00 -9.1058733e-03 0.0000000e+00 
0.0000000e+00 -8.5300077e-03 0.0000000e+00 
0.0000000e+00 -1.1035086e-02 0.0000000e+00 
0.0000000e+00 -1.0234080e-02 0.0000000e+00 
0.0000000e+00 -9.2398217e-03 0.0000000e+00 
0.0000000e+00 -9.4313761e-03 0.0000000e+00 
0.0000000e+00 -9.5587065e-03 0.0000000e+00 
0.0000000e+00 -8.7908851e-03 0.0000000e+00 
0.0000000e+00 -1.2130990e-02 0.0000000e+00 
0.0000000e+00 -8.6422209e-03 0.0000000e+00 
0.0000000e+00 -7.3993974e-03 0.0000000e+00 
0.0000000e+00 -7.6388409e-03 0.0000000e+00 
0.0000000e+00 -7.7980030e-03 0.0000000e+00 
0.0000000e+00 -6.8382267e-03 0.0000000e+00 
0.0000000e+00 -1.1013357e-02 0.0000000e+00 
0.0000000e+00 2.1456038e-03 0.0000000e+00 
0.0000000e+00 2.1009578e-03 0.0000000e+00 
0.0000000e+00 1.9670192e-03 0.0000000e+00 
0.0000000e+00 1.7437885e-03 0.0000000e+00 
0.0000000e+00 1.4312655e-03 0.0000000e+00 
0.0000000e+00 1.0294502e-03 0.0000000e+00 
0.0000000e+00 5.3834252e-04 0.0000000e+00 
0.0000000e+00 -4.2057378e-05 0.0000000e+00 
0.0000000e+00 -7.1174960e-04 0.0000000e+00 
0.0000000e+00 -1.4707341e-03 0.0000000e+00 
0.0000000e+00 -2.3190109e-03 0.0000000e+00 
0.0000000e+00 -3.2565801e-03 0.0000000e+00 
0.0000000e+00 -4.2834412e-03 0.0000000e+00 
0.0000000e+00 -2.5391660e-03 0.0000000e+00 
0.0000000e+00 -1.0894348e-03 0.0000000e+00 
0.0000000e+00 6.5752080e-05 0.0000000e+00 
0.0000000e+00 9.2639483e-04 0.0000000e+00 
0.0000000e+00 1.4924934e-03 0.0000000e+00 
0.0000000e+00 1.7640479e-03 0.0000000e+00 
0.0000000e+00 1.7410581e-03 0.0000000e+00 
0.0000000e+00 1.4235241e-03 0.0000000e+00 
0.0000000e+00 8.1144599e-04 0.0000000e+00 
0.0000000e+00 -9.5176307e-05 0.0000000e+00 
0.0000000e+00 -1.2963428e-03 0.0000000e+00 
0.0000000e+00 -2.7920534e-03 0.0000000e+00 
0.0000000e+00 -1.4700572e-03 0.0000000e+00 
0.0000000e+00 -3.9277744e-04 0.0000000e+00 
0.0000000e+00 4.3978589e-04 0.0000000e+00 
0.0000000e+00 1.0276327e-03 0.0000000e+00 
0.0000000e+00 1.3707631e-03 0.0000000e+00 
0.0000000e+00 1.4691770e-03 0.0000000e+00 
0.0000000e+00 1.3228743e-03 0.0000000e+00 
0.0000000e+00 9.3185535e-04 0.0000000e+00 
0.0000000e+00 2.9611978e-04 0.0000000e+00 
0.0000000e+00 -5.8433221e-04 0.0000000e+00 
0.0000000e+00 -1.7095007e-03 0.0000000e+00 
0.0000000e+00 -3.0793857e-03 0.0000000e+00 
0.0000000e+00 -1.6404914e-03 0.0000000e+00 
0.0000000e+00 -4.6610821e-04 0.0000000e+00 
0.0000000e+00 4.4376406e-04 0.0000000e+00 
0.0000000e+00 1.0891253e-03 0.0000000e+00 
0.0000000e+00 1.4699756e-03 0.0000000e+00 
0.0000000e+00 1.5863149e-03 0.0000000e+00 
0.0000000e+00 1.4381431e-03 0.0000000e+00 
0.0000000e+00 1.0254604e-03 0.0000000e+00 
0.0000000e+00 3.4826668e-04 0.0000000e+00 
0.0000000e+00 -5.9343799e-04 0.0000000e+00 
0.0000000e+00 -1.7996537e-03 0.0000000e+00 
0.0000000e+00 -3.2703804e-03 0.0000000e+00 
0.0000000e+00 -1.9382623e-03 0.0000000e+00 
0.0000000e+00 -8.3089696e-04 0.0000000e+00 
0.0000000e+00 5.1715528e-05 0.0000000e+00 
0.0000000e+00 7.0957519e-04 0.0000000e+00 
0.0000000e+00 1.1426820e-03 0.0000000e+00 
0.0000000e+00 1.3510361e-03 0.0000000e+00 
0.0000000e+00 1.3346374e-03 0.0000000e+00 
0.0000000e+00 1.0934859e-03 0.0000000e+00 
0.0000000e+00 6.2758150e-04 0.0000000e+00 
0.0000000e+00 -6.3075684e-05 0.0000000e+00 
0.0000000e+00 -9.7848568e-04 0.0000000e+00 
0.0000000e+00 -2.1186485e-03 0.0000000e+00 
0.0000000e+00 -4.2010233e-04 0.0000000e+00 
0.0000000e+00 8.9370582e-04 0.0000000e+00 
0.0000000e+00 1.8227758e-03 0.0000000e+00 
0.0000000e+00 2.3671079e-03 0.0000000e+00 