# vtk DataFile Version 4.0
vtk output
ASCII
DATASET UNSTRUCTURED_GRID
POINTS 212 float
0.0000000e+00 0.0000000e+00 0.0000000e+00 
0.0000000e+00 0.0000000e+00 2.5000000e-01 
0.0000000e+00 0.0000000e+00 5.0000000e-01 
0.0000000e+00 0.0000000e+00 7.5000000e-01 
0.0000000e+00 0.0000000e+00 1.0000000e+00 
0.0000000e+00 0.0000000e+00 1.2500000e+00 
0.0000000e+00 0.0000000e+00 1.5000000e+00 
0.0000000e+00 0.0000000e+00 1.7500000e+00 
0.0000000e+00 0.0000000e+00 2.0000000e+00 
0.0000000e+00 0.0000000e+00 2.2500000e+00 
0.0000000e+00 0.0000000e+00 2.5000000e+00 
0.0000000e+00 0.0000000e+00 2.7500000e+00 
0.0000000e+00 0.0000000e+00 3.0000000e+00 
0.0000000e+00 0.0000000e+00 3.2500000e+00 
0.0000000e+00 0.0000000e+00 3.5000000e+00 
0.0000000e+00 0.0000000e+00 3.7500000e+00 
0.0000000e+00 0.0000000e+00 4.0000000e+00 
0.0000000e+00 0.0000000e+00 4.2500000e+00 
0.0000000e+00 0.0000000e+00 4.5000000e+00 
0.0000000e+00 0.0000000e+00 4.7500000e+00 
0.0000000e+00 0.0000000e+00 5.0000000e+00 
0.0000000e+00 0.0000000e+00 5.2500000e+00 
0.0000000e+00 0.0000000e+00 5.5000000e+00 
0.0000000e+00 0.0000000e+00 5.7500000e+00 
0.0000000e+00 0.0000000e+00 6.0000000e+00 
0.0000000e+00 0.0000000e+00 6.2500000e+00 
0.0000000e+00 0.0000000e+00 6.5000000e+00 
0.0000000e+00 0.0000000e+00 6.7500000e+00 
0.0000000e+00 0.0000000e+00 7.0000000e+00 
0.0000000e+00 0.0000000e+00 7.2500000e+00 
0.0000000e+00 0.0000000e+00 7.5000000e+00 
0.0000000e+00 0.0000000e+00 7.7500000e+00 
0.0000000e+00 0.0000000e+00 8.0000000e+00 
0.0000000e+00 0.0000000e+00 8.2500000e+00 
0.0000000e+00 0.0000000e+00 8.5000000e+00 
0.0000000e+00 0.0000000e+00 8.7500000e+00 
0.0000000e+00 0.0000000e+00 9.0000000e+00 
0.0000000e+00 0.0000000e+00 9.2500000e+00 
0.0000000e+00 0.0000000e+00 9.5000000e+00 
0.0000000e+00 0.0000000e+00 9.7500000e+00 
0.0000000e+00 0.0000000e+00 1.0000000e+01 
0.0000000e+00 0.0000000e+00 1.0250000e+01 
0.0000000e+00 0.0000000e+00 1.0500000e+01 
0.0000000e+00 0.0000000e+00 1.0750000e+01 
0.0000000e+00 0.0000000e+00 1.1000000e+01 
0.0000000e+00 0.0000000e+00 1.1250000e+01 
0.0000000e+00 0.0000000e+00 1.1500000e+01 
0.0000000e+00 0.0000000e+00 1.1750000e+01 
0.0000000e+00 0.0000000e+00 1.2000000e+01 
0.0000000e+00 0.0000000e+00 1.2250000e+01 
0.0000000e+00 0.0000000e+00 1.2500000e+01 
0.0000000e+00 0.0000000e+00 1.2750000e+01 
0.0000000e+00 0.0000000e+00 1.3000000e+01 
0.0000000e+00 0.0000000e+00 1.3250000e+01 
0.0000000e+00 0.0000000e+00 1.3500000e+01 
0.0000000e+00 0.0000000e+00 1.3750000e+01 
0.0000000e+00 0.0000000e+00 1.4000000e+01 
0.0000000e+00 0.0000000e+00 1.4250000e+01 
0.0000000e+00 0.0000000e+00 1.4500000e+01 
0.0000000e+00 0.0000000e+00 1.4750000e+01 
0.0000000e+00 0.0000000e+00 1.5000000e+01 
0.0000000e+00 0.0000000e+00 1.5250000e+01 
0.0000000e+00 0.0000000e+00 1.5500000e+01 
0.0000000e+00 0.0000000e+00 1.5750000e+01 
0.0000000e+00 0.0000000e+00 1.6000000e+01 
0.0000000e+00 0.0000000e+00 1.6250000e+01 
0.0000000e+00 0.0000000e+00 1.6500000e+01 
0.0000000e+00 0.0000000e+00 1.6750000e+01 
0.0000000e+00 0.0000000e+00 1.7000000e+01 
0.0000000e+00 0.0000000e+00 1.7250000e+01 
0.0000000e+00 0.0000000e+00 1.7500000e+01 
0.0000000e+00 0.0000000e+00 1.7750000e+01 
0.0000000e+00 0.0000000e+00 1.8000000e+01 
5.0000000e-01 0.0000000e+00 3.0000000e+00 
5.0000000e-01 0.0000000e+00 6.0000000e+00 
5.0000000e-01 0.0000000e+00 9.0000000e+00 
5.0000000e-01 0.0000000e+00 1.2000000e+01 
5.0000000e-01 0.0000000e+00 1.5000000e+01 
5.0000000e-01 0.0000000e+00 1.8000000e+01 
1.0000000e+00 0.0000000e+00 3.0000000e+00 
1.0000000e+00 0.0000000e+00 6.0000000e+00 
1.0000000e+00 0.0000000e+00 9.0000000e+00 
1.0000000e+00 0.0000000e+00 1.2000000e+01 
1.0000000e+00 0.0000000e+00 1.5000000e+01 
1.0000000e+00 0.0000000e+00 1.8000000e+01 
1.5000000e+00 0.0000000e+00 3.0000000e+00 
1.5000000e+00 0.0000000e+00 6.0000000e+00 
1.5000000e+00 0.0000000e+00 9.0000000e+00 
1.5000000e+00 0.0000000e+00 1.2000000e+01 
1.5000000e+00 0.0000000e+00 1.5000000e+01 
1.5000000e+00 0.0000000e+00 1.8000000e+01 
2.0000000e+00 0.0000000e+00 3.0000000e+00 
2.0000000e+00 0.0000000e+00 6.0000000e+00 
2.0000000e+00 0.0000000e+00 9.0000000e+00 
2.0000000e+00 0.0000000e+00 1.2000000e+01 
2.0000000e+00 0.0000000e+00 1.5000000e+01 
2.0000000e+00 0.0000000e+00 1.8000000e+01 
2.5000000e+00 0.0000000e+00 3.0000000e+00 
2.5000000e+00 0.0000000e+00 6.0000000e+00 
2.5000000e+00 0.0000000e+00 9.0000000e+00 
2.5000000e+00 0.0000000e+00 1.2000000e+01 
2.5000000e+00 0.0000000e+00 1.5000000e+01 
2.5000000e+00 0.0000000e+00 1.8000000e+01 
3.0000000e+00 0.0000000e+00 3.0000000e+00 
3.0000000e+00 0.0000000e+00 6.0000000e+00 
3.0000000e+00 0.0000000e+00 9.0000000e+00 
3.0000000e+00 0.0000000e+00 1.2000000e+01 
3.0000000e+00 0.0000000e+00 1.5000000e+01 
3.0000000e+00 0.0000000e+00 1.8000000e+01 
3.5000000e+00 0.0000000e+00 3.0000000e+00 
3.5000000e+00 0.0000000e+00 6.0000000e+00 
3.5000000e+00 0.0000000e+00 9.0000000e+00 
3.5000000e+00 0.0000000e+00 1.2000000e+01 
3.5000000e+00 0.0000000e+00 1.5000000e+01 
3.5000000e+00 0.0000000e+00 1.8000000e+01 
4.0000000e+00 0.0000000e+00 3.0000000e+00 
4.0000000e+00 0.0000000e+00 6.0000000e+00 
4.0000000e+00 0.0000000e+00 9.0000000e+00 
4.0000000e+00 0.0000000e+00 1.2000000e+01 
4.0000000e+00 0.0000000e+00 1.5000000e+01 
4.0000000e+00 0.0000000e+00 1.8000000e+01 
4.5000000e+00 0.0000000e+00 3.0000000e+00 
4.5000000e+00 0.0000000e+00 6.0000000e+00 
4.5000000e+00 0.0000000e+00 9.0000000e+00 
4.5000000e+00 0.0000000e+00 1.2000000e+01 
4.5000000e+00 0.0000000e+00 1.5000000e+01 
4.5000000e+00 0.0000000e+00 1.8000000e+01 
5.0000000e+00 0.0000000e+00 3.0000000e+00 
5.0000000e+00 0.0000000e+00 6.0000000e+00 
5.0000000e+00 0.0000000e+00 9.0000000e+00 
5.0000000e+00 0.0000000e+00 1.2000000e+01 
5.0000000e+00 0.0000000e+00 1.5000000e+01 
5.0000000e+00 0.0000000e+00 1.8000000e+01 
5.5000000e+00 0.0000000e+00 3.0000000e+00 
5.5000000e+00 0.0000000e+00 6.0000000e+00 
5.5000000e+00 0.0000000e+00 9.0000000e+00 
5.5000000e+00 0.0000000e+00 1.2000000e+01 
5.5000000e+00 0.0000000e+00 1.5000000e+01 
5.5000000e+00 0.0000000e+00 1.8000000e+01 
6.0000000e+00 0.0000000e+00 0.0000000e+00 
6.0000000e+00 0.0000000e+00 2.5000000e-01 
6.0000000e+00 0.0000000e+00 5.0000000e-01 
6.0000000e+00 0.0000000e+00 7.5000000e-01 
6.0000000e+00 0.0000000e+00 1.0000000e+00 
6.0000000e+00 0.0000000e+00 1.2500000e+00 
6.0000000e+00 0.0000000e+00 1.5000000e+00 
6.0000000e+00 0.0000000e+00 1.7500000e+00 
6.0000000e+00 0.0000000e+00 2.0000000e+00 
6.0000000e+00 0.0000000e+00 2.2500000e+00 
6.0000000e+00 0.0000000e+00 2.5000000e+00 
6.0000000e+00 0.0000000e+00 2.7500000e+00 
6.0000000e+00 0.0000000e+00 3.0000000e+00 
6.0000000e+00 0.0000000e+00 3.2500000e+00 
6.0000000e+00 0.0000000e+00 3.5000000e+00 
6.0000000e+00 0.0000000e+00 3.7500000e+00 
6.0000000e+00 0.0000000e+00 4.0000000e+00 
6.0000000e+00 0.0000000e+00 4.2500000e+00 
6.0000000e+00 0.0000000e+00 4.5000000e+00 
6.0000000e+00 0.0000000e+00 4.7500000e+00 
6.0000000e+00 0.0000000e+00 5.0000000e+00 
6.0000000e+00 0.0000000e+00 5.2500000e+00 
6.0000000e+00 0.0000000e+00 5.5000000e+00 
6.0000000e+00 0.0000000e+00 5.7500000e+00 
6.0000000e+00 0.0000000e+00 6.0000000e+00 
6.0000000e+00 0.0000000e+00 6.2500000e+00 
6.0000000e+00 0.0000000e+00 6.5000000e+00 
6.0000000e+00 0.0000000e+00 6.7500000e+00 
6.0000000e+00 0.0000000e+00 7.0000000e+00 
6.0000000e+00 0.0000000e+00 7.2500000e+00 
6.0000000e+00 0.0000000e+00 7.5000000e+00 
6.0000000e+00 0.0000000e+00 7.7500000e+00 
6.0000000e+00 0.0000000e+00 8.0000000e+00 
6.0000000e+00 0.0000000e+00 8.2500000e+00 
6.0000000e+00 0.0000000e+00 8.5000000e+00 
6.0000000e+00 0.0000000e+00 8.7500000e+00 
6.0000000e+00 0.0000000e+00 9.0000000e+00 
6.0000000e+00 0.0000000e+00 9.2500000e+00 
6.0000000e+00 0.0000000e+00 9.5000000e+00 
6.0000000e+00 0.0000000e+00 9.7500000e+00 
6.0000000e+00 0.0000000e+00 1.0000000e+01 
6.0000000e+00 0.0000000e+00 1.0250000e+01 
6.0000000e+00 0.0000000e+00 1.0500000e+01 
6.0000000e+00 0.0000000e+00 1.0750000e+01 
6.0000000e+00 0.0000000e+00 1.1000000e+01 
6.0000000e+00 0.0000000e+00 1.1250000e+01 
6.0000000e+00 0.0000000e+00 1.1500000e+01 
6.0000000e+00 0.0000000e+00 1.1750000e+01 
6.0000000e+00 0.0000000e+00 1.2000000e+01 
6.0000000e+00 0.0000000e+00 1.2250000e+01 
6.0000000e+00 0.0000000e+00 1.2500000e+01 
6.0000000e+00 0.0000000e+00 1.2750000e+01 
6.0000000e+00 0.0000000e+00 1.3000000e+01 
6.0000000e+00 0.0000000e+00 1.3250000e+01 
6.0000000e+00 0.0000000e+00 1.3500000e+01 
6.0000000e+00 0.0000000e+00 1.3750000e+01 
6.0000000e+00 0.0000000e+00 1.4000000e+01 
6.0000000e+00 0.0000000e+00 1.4250000e+01 
6.0000000e+00 0.0000000e+00 1.4500000e+01 
6.0000000e+00 0.0000000e+00 1.4750000e+01 
6.0000000e+00 0.0000000e+00 1.5000000e+01 
6.0000000e+00 0.0000000e+00 1.5250000e+01 
6.0000000e+00 0.0000000e+00 1.5500000e+01 
6.0000000e+00 0.0000000e+00 1.5750000e+01 
6.0000000e+00 0.0000000e+00 1.6000000e+01 
6.0000000e+00 0.0000000e+00 1.6250000e+01 
6.0000000e+00 0.0000000e+00 1.6500000e+01 
6.0000000e+00 0.0000000e+00 1.6750000e+01 
6.0000000e+00 0.0000000e+00 1.7000000e+01 
6.0000000e+00 0.0000000e+00 1.7250000e+01 
6.0000000e+00 0.0000000e+00 1.7500000e+01 
6.0000000e+00 0.0000000e+00 1.7750000e+01 
6.0000000e+00 0.0000000e+00 1.8000000e+01 

CELLS 216 648
2 0 1
2 1 2
2 2 3
2 3 4
2 4 5
2 5 6
2 6 7
2 7 8
2 8 9
2 9 10
2 10 11
2 11 12
2 12 13
2 13 14
2 14 15
2 15 16
2 16 17
2 17 18
2 18 19
2 19 20
2 20 21
2 21 22
2 22 23
2 23 24
2 24 25
2 25 26
2 26 27
2 27 28
2 28 29
2 29 30
2 30 31
2 31 32
2 32 33
2 33 34
2 34 35
2 35 36
2 36 37
2 37 38
2 38 39
2 39 40
2 40 41
2 41 42
2 42 43
2 43 44
2 44 45
2 45 46
2 46 47
2 47 48
2 48 49
2 49 50
2 50 51
2 51 52
2 52 53
2 53 54
2 54 55
2 55 56
2 56 57
2 57 58
2 58 59
2 59 60
2 60 61
2 61 62
2 62 63
2 63 64
2 64 65
2 65 66
2 66 67
2 67 68
2 68 69
2 69 70
2 70 71
2 71 72
2 139 140
2 140 141
2 141 142
2 142 143
2 143 144
2 144 145
2 145 146
2 146 147
2 147 148
2 148 149
2 149 150
2 150 151
2 151 152
2 152 153
2 153 154
2 154 155
2 155 156
2 156 157
2 157 158
2 158 159
2 159 160
2 160 161
2 161 162
2 162 163
2 163 164
2 164 165
2 165 166
2 166 167
2 167 168
2 168 169
2 169 170
2 170 171
2 171 172
2 172 173
2 173 174
2 174 175
2 175 176
2 176 177
2 177 178
2 178 179
2 179 180
2 180 181
2 181 182
2 182 183
2 183 184
2 184 185
2 185 186
2 186 187
2 187 188
2 188 189
2 189 190
2 190 191
2 191 192
2 192 193
2 193 194
2 194 195
2 195 196
2 196 197
2 197 198
2 198 199
2 199 200
2 200 201
2 201 202
2 202 203
2 203 204
2 204 205
2 205 206
2 206 207
2 207 208
2 208 209
2 209 210
2 210 211
2 12 73
2 73 79
2 79 85
2 85 91
2 91 97
2 97 103
2 103 109
2 109 115
2 115 121
2 121 127
2 127 133
2 133 151
2 24 74
2 74 80
2 80 86
2 86 92
2 92 98
2 98 104
2 104 110
2 110 116
2 116 122
2 122 128
2 128 134
2 134 163
2 36 75
2 75 81
2 81 87
2 87 93
2 93 99
2 99 105
2 105 111
2 111 117
2 117 123
2 123 129
2 129 135
2 135 175
2 48 76
2 76 82
2 82 88
2 88 94
2 94 100
2 100 106
2 106 112
2 112 118
2 118 124
2 124 130
2 130 136
2 136 187
2 60 77
2 77 83
2 83 89
2 89 95
2 95 101
2 101 107
2 107 113
2 113 119
2 119 125
2 125 131
2 131 137
2 137 199
2 72 78
2 78 84
2 84 90
2 90 96
2 96 102
2 102 108
2 108 114
2 114 120
2 120 126
2 126 132
2 132 138
2 138 211

CELL_TYPES 216
3
3
3
3
3
3
3
3
3
3
3
3
3
3
3
3
3
3
3
3
3
3
3
3
3
3
3
3
3
3
3
3
3
3
3
3
3
3
3
3
3
3
3
3
3
3
3
3
3
3
3
3
3
3
3
3
3
3
3
3
3
3
3
3
3
3
3
3
3
3
3
3
3
3
3
3
3
3
3
3
3
3
3
3
3
3
3
3
3
3
3
3
3
3
3
3
3
3
3
3
3
3
3
3
3
3
3
3
3
3
3
3
3
3
3
3
3
3
3
3
3
3
3
3
3
3
3
3
3
3
3
3
3
3
3
3
3
3
3
3
3
3
3
3
3
3
3
3
3
3
3
3
3
3
3
3
3
3
3
3
3
3
3
3
3
3
3
3
3
3
3
3
3
3
3
3
3
3
3
3
3
3
3
3
3
3
3
3
3
3
3
3
3
3
3
3
3
3
3
3
3
3
3
3
3
3
3
3
3
3
3
3
3
3
3
3
POINT_DATA 212
FIELD FieldData 3
ADJOINT_DISPLACEMENT 3 212  float
0.0000000e+00 0.0000000e+00 0.0000000e+00 
1.1670563e-04 0.0000000e+00 2.7137612e-18 
2.3246004e-04 0.0000000e+00 5.4275224e-18 
3.4631198e-04 0.0000000e+00 8.1412836e-18 
4.5731026e-04 0.0000000e+00 1.0855045e-17 
5.6450366e-04 0.0000000e+00 1.3568806e-17 
6.6694093e-04 0.0000000e+00 1.6282567e-17 
7.6367083e-04 0.0000000e+00 1.8996328e-17 
8.5374218e-04 0.0000000e+00 2.1710090e-17 
9.3620369e-04 0.0000000e+00 2.4423851e-17 
1.0101042e-03 0.0000000e+00 2.7137612e-17 
1.0744925e-03 0.0000000e+00 2.9851373e-17 
1.1284173e-03 0.0000000e+00 3.2565135e-17 
1.1819606e-03 0.0000000e+00 -1.5460472e-07 
1.2497508e-03 0.0000000e+00 -3.0920944e-07 
1.3376569e-03 0.0000000e+00 -4.6381416e-07 
1.4515474e-03 0.0000000e+00 -6.1841888e-07 
1.5972912e-03 0.0000000e+00 -7.7302360e-07 
1.7807569e-03 0.0000000e+00 -9.2762832e-07 
2.0078134e-03 0.0000000e+00 -1.0822330e-06 
2.2843292e-03 0.0000000e+00 -1.2368378e-06 
2.6161734e-03 0.0000000e+00 -1.3914424e-06 
3.0092143e-03 0.0000000e+00 -1.5460472e-06 
3.4693209e-03 0.0000000e+00 -1.7006519e-06 
4.0023620e-03 0.0000000e+00 -1.8552566e-06 
4.6641747e-03 0.0000000e+00 -2.6285329e-06 
5.4890574e-03 0.0000000e+00 -3.4018094e-06 
6.4505697e-03 0.0000000e+00 -4.1750855e-06 
7.5222710e-03 0.0000000e+00 -4.9483619e-06 
8.6777210e-03 0.0000000e+00 -5.7216384e-06 
9.8904790e-03 0.0000000e+00 -6.4949145e-06 
1.1134105e-02 0.0000000e+00 -7.2681910e-06 
1.2382157e-02 0.0000000e+00 -8.0414675e-06 
1.3608196e-02 0.0000000e+00 -8.8147435e-06 
1.4785782e-02 0.0000000e+00 -9.5880205e-06 
1.5888473e-02 0.0000000e+00 -1.0361297e-05 
1.6889829e-02 0.0000000e+00 -1.1134573e-05 
1.7976535e-02 0.0000000e+00 -1.4847614e-05 
1.9431239e-02 0.0000000e+00 -1.8560655e-05 
2.1371441e-02 0.0000000e+00 -2.2273696e-05 
2.3914644e-02 0.0000000e+00 -2.5986737e-05 
2.7178353e-02 0.0000000e+00 -2.9699779e-05 
3.1280063e-02 0.0000000e+00 -3.3412820e-05 
3.6337286e-02 0.0000000e+00 -3.7125861e-05 
4.2467512e-02 0.0000000e+00 -4.0838902e-05 
4.9788252e-02 0.0000000e+00 -4.4551944e-05 
5.8417007e-02 0.0000000e+00 -4.8264985e-05 
6.8471275e-02 0.0000000e+00 -5.1978026e-05 
8.0068558e-02 0.0000000e+00 -5.5691067e-05 
9.4456457e-02 0.0000000e+00 -7.3489064e-05 
1.1246229e-01 0.0000000e+00 -9.1287067e-05 
1.3357314e-01 0.0000000e+00 -1.0908506e-04 
1.5727612e-01 0.0000000e+00 -1.2688307e-04 
1.8305832e-01 0.0000000e+00 -1.4468106e-04 
2.1040682e-01 0.0000000e+00 -1.6247906e-04 
2.3880875e-01 0.0000000e+00 -1.8027707e-04 
2.6775116e-01 0.0000000e+00 -1.9807507e-04 
2.9672116e-01 0.0000000e+00 -2.1587306e-04 
3.2520589e-01 0.0000000e+00 -2.3367106e-04 
3.5269237e-01 0.0000000e+00 -2.5146906e-04 
3.7866774e-01 0.0000000e+00 -2.6926707e-04 
4.0451875e-01 0.0000000e+00 -2.5239695e-04 
4.3170419e-01 0.0000000e+00 -2.3552682e-04 
4.5981929e-01 0.0000000e+00 -2.1865671e-04 
4.8845923e-01 0.0000000e+00 -2.0178659e-04 
5.1721925e-01 0.0000000e+00 -1.8491647e-04 
5.4569459e-01 0.0000000e+00 -1.6804635e-04 
5.7348043e-01 0.0000000e+00 -1.5117624e-04 
6.0017192e-01 0.0000000e+00 -1.3430612e-04 
6.2536436e-01 0.0000000e+00 -1.1743599e-04 
6.4865297e-01 0.0000000e+00 -1.0056588e-04 
6.6963285e-01 0.0000000e+00 -8.3695755e-05 
6.8789935e-01 0.0000000e+00 -6.6825640e-05 
1.1294876e-03 0.0000000e+00 -5.9792932e-05 
3.9972910e-03 0.0000000e+00 -9.3388150e-04 
1.6912419e-02 0.0000000e+00 -1.1882950e-03 
7.9969622e-02 0.0000000e+00 -2.0170301e-02 
3.7868470e-01 0.0000000e+00 -4.2251382e-02 
6.8796283e-01 0.0000000e+00 -2.7666597e-02 
1.1305580e-03 0.0000000e+00 -5.6175562e-05 
3.9922204e-03 0.0000000e+00 -1.4861509e-03 
1.6935010e-02 0.0000000e+00 -1.1520773e-03 
7.9870686e-02 0.0000000e+00 -3.1839572e-02 
3.7870169e-01 0.0000000e+00 -6.5646112e-02 
6.8802637e-01 0.0000000e+00 -4.4513281e-02 
1.1316283e-03 0.0000000e+00 -4.9095488e-06 
3.9871498e-03 0.0000000e+00 -1.7217358e-03 
1.6957602e-02 0.0000000e+00 -2.0218511e-04 
7.9771750e-02 0.0000000e+00 -3.6499441e-02 
3.7871864e-01 0.0000000e+00 -6.6919118e-02 
6.8808991e-01 0.0000000e+00 -5.2326754e-02 
1.1326986e-03 0.0000000e+00 7.8243451e-05 
3.9820792e-03 0.0000000e+00 -1.7037088e-03 
1.6980192e-02 0.0000000e+00 1.3616782e-03 
7.9672813e-02 0.0000000e+00 -3.5585839e-02 
3.7873560e-01 0.0000000e+00 -4.2536043e-02 
6.8815345e-01 0.0000000e+00 -5.2826896e-02 
1.1337689e-03 0.0000000e+00 1.7752177e-04 
3.9770082e-03 0.0000000e+00 -1.4951419e-03 
1.7002782e-02 0.0000000e+00 3.2398093e-03 
7.9573870e-02 0.0000000e+00 -3.0534703e-02 
3.7875259e-01 0.0000000e+00 1.1037462e-02 
6.8821698e-01 0.0000000e+00 -4.7733579e-02 
1.1348394e-03 0.0000000e+00 2.7716378e-04 
3.9719376e-03 0.0000000e+00 -1.1591079e-03 
1.7025372e-02 0.0000000e+00 5.1325047e-03 
7.9474933e-02 0.0000000e+00 -2.2781968e-02 
3.7876955e-01 0.0000000e+00 9.7335741e-02 
6.8828052e-01 0.0000000e+00 -3.8766678e-02 
1.1359097e-03 0.0000000e+00 3.6140779e-04 
3.9668670e-03 0.0000000e+00 -7.5867889e-04 
1.7047964e-02 0.0000000e+00 6.7400611e-03 
7.9375997e-02 0.0000000e+00 -1.3763567e-02 
3.7878650e-01 0.0000000e+00 2.1989314e-01 
6.8834406e-01 0.0000000e+00 -2.7646076e-02 
1.1369800e-03 0.0000000e+00 4.1449213e-04 
3.9617964e-03 0.0000000e+00 -3.5692743e-04 
1.7070554e-02 0.0000000e+00 7.7627748e-03 
7.9277061e-02 0.0000000e+00 -4.9154363e-03 
3.7880349e-01 0.0000000e+00 3.8224402e-01 
6.8840754e-01 0.0000000e+00 -1.6091645e-02 
1.1380503e-03 0.0000000e+00 4.2065521e-04 
3.9567258e-03 0.0000000e+00 -1.6925891e-05 
1.7093144e-02 0.0000000e+00 7.9009421e-03 
7.9178125e-02 0.0000000e+00 2.3264894e-03 
3.7882045e-01 0.0000000e+00 5.8792275e-01 
6.8847108e-01 0.0000000e+00 -5.8232625e-03 
1.1391207e-03 0.0000000e+00 3.6413531e-04 
3.9516548e-03 0.0000000e+00 1.9825333e-04 
1.7115736e-02 0.0000000e+00 6.8548606e-03 
7.9079181e-02 0.0000000e+00 6.5262755e-03 
3.7883744e-01 0.0000000e+00 3.4046361e-01 
6.8853462e-01 0.0000000e+00 1.4391942e-03 
1.1401910e-03 0.0000000e+00 2.2917079e-04 
3.9465842e-03 0.0000000e+00 2.2553785e-04 
1.7138327e-02 0.0000000e+00 4.3248255e-03 
7.8980245e-02 0.0000000e+00 6.2479880e-03 
3.7885439e-01 0.0000000e+00 1.4340100e-01 
6.8859816e-01 0.0000000e+00 3.9758491e-03 
0.0000000e+00 0.0000000e+00 0.0000000e+00 
7.2434261e-05 0.0000000e+00 -6.1385756e-18 
1.4581974e-04 0.0000000e+00 -1.2277155e-17 
2.2110768e-04 0.0000000e+00 -1.8415977e-17 
2.9924928e-04 0.0000000e+00 -2.4554577e-17 
3.8119577e-04 0.0000000e+00 -3.0692960e-17 
4.6789841e-04 0.0000000e+00 -3.6831256e-17 
5.6030840e-04 0.0000000e+00 -4.2969558e-17 
6.5937696e-04 0.0000000e+00 -4.9107681e-17 
7.6605531e-04 0.0000000e+00 -5.5245884e-17 
8.8129466e-04 0.0000000e+00 -6.1384498e-17 
1.0060463e-03 0.0000000e+00 -6.7522925e-17 
1.1412614e-03 0.0000000e+00 -7.3661697e-17 
1.3005005e-03 0.0000000e+00 1.5460472e-07 
1.4927776e-03 0.0000000e+00 3.0920944e-07 
1.7122239e-03 0.0000000e+00 4.6381416e-07 
1.9529706e-03 0.0000000e+00 6.1841888e-07 
2.2091491e-03 0.0000000e+00 7.7302360e-07 
2.4748906e-03 0.0000000e+00 9.2762832e-07 
2.7443264e-03 0.0000000e+00 1.0822330e-06 
3.0115878e-03 0.0000000e+00 1.2368378e-06 
3.2708058e-03 0.0000000e+00 1.3914424e-06 
3.5161120e-03 0.0000000e+00 1.5460472e-06 
3.7416373e-03 0.0000000e+00 1.7006519e-06 
3.9415136e-03 0.0000000e+00 1.8552566e-06 
4.1545113e-03 0.0000000e+00 2.6285329e-06 
4.4409414e-03 0.0000000e+00 3.4018094e-06 
4.8272437e-03 0.0000000e+00 4.1750855e-06 
5.3398595e-03 0.0000000e+00 4.9483619e-06 
6.0052290e-03 0.0000000e+00 5.7216384e-06 
6.8497928e-03 0.0000000e+00 6.4949145e-06 
7.8999912e-03 0.0000000e+00 7.2681910e-06 
9.1822641e-03 0.0000000e+00 8.0414675e-06 
1.0723053e-02 0.0000000e+00 8.8147435e-06 
1.2548798e-02 0.0000000e+00 9.5880205e-06 
1.4685939e-02 0.0000000e+00 1.0361297e-05 
1.7160917e-02 0.0000000e+00 1.1134573e-05 
2.0236602e-02 0.0000000e+00 1.4847614e-05 
2.4079902e-02 0.0000000e+00 1.8560655e-05 
2.8573317e-02 0.0000000e+00 2.2273696e-05 
3.3599343e-02 0.0000000e+00 2.5986737e-05 
3.9040476e-02 0.0000000e+00 2.9699779e-05 
4.4779219e-02 0.0000000e+00 3.3412820e-05 
5.0698064e-02 0.0000000e+00 3.7125861e-05 
5.6679517e-02 0.0000000e+00 4.0838902e-05 
6.2606066e-02 0.0000000e+00 4.4551944e-05 
6.8360217e-02 0.0000000e+00 4.8264985e-05 
7.3824465e-02 0.0000000e+00 5.1978026e-05 
7.8881308e-02 0.0000000e+00 5.5691067e-05 
8.4437057e-02 0.0000000e+00 7.3489064e-05 
9.1818288e-02 0.0000000e+00 9.1287067e-05 
1.0153791e-01 0.0000000e+00 1.0908506e-04 
1.1410882e-01 0.0000000e+00 1.2688307e-04 
1.3004394e-01 0.0000000e+00 1.4468106e-04 
1.4985615e-01 0.0000000e+00 1.6247906e-04 
1.7405838e-01 0.0000000e+00 1.8027707e-04 
2.0316353e-01 0.0000000e+00 1.9807507e-04 
2.3768449e-01 0.0000000e+00 2.1587306e-04 
2.7813420e-01 0.0000000e+00 2.3367106e-04 
3.2502550e-01 0.0000000e+00 2.5146906e-04 
3.7887135e-01 0.0000000e+00 2.6926707e-04 
4.3298349e-01 0.0000000e+00 2.5239695e-04 
4.8060155e-01 0.0000000e+00 2.3552682e-04 
5.2213031e-01 0.0000000e+00 2.1865671e-04 
5.5797458e-01 0.0000000e+00 2.0178659e-04 
5.8853912e-01 0.0000000e+00 1.8491647e-04 
6.1422879e-01 0.0000000e+00 1.6804635e-04 
6.3544834e-01 0.0000000e+00 1.5117624e-04 
6.5260249e-01 0.0000000e+00 1.3430612e-04 
6.6609615e-01 0.0000000e+00 1.1743599e-04 
6.7633402e-01 0.0000000e+00 1.0056588e-04 
6.8372095e-01 0.0000000e+00 8.3695755e-05 
6.8866169e-01 0.0000000e+00 6.6825640e-05 
ADJOINT_ROTATION 3 212  float
0.0000000e+00 4.6745667e-04 0.0000000e+00 
0.0000000e+00 4.6555421e-04 0.0000000e+00 
0.0000000e+00 4.5984687e-04 0.0000000e+00 
0.0000000e+00 4.5033463e-04 0.0000000e+00 
0.0000000e+00 4.3701747e-04 0.0000000e+00 
0.0000000e+00 4.1989543e-04 0.0000000e+00 
0.0000000e+00 3.9896849e-04 0.0000000e+00 
0.0000000e+00 3.7423664e-04 0.0000000e+00 
0.0000000e+00 3.4569990e-04 0.0000000e+00 
0.0000000e+00 3.1335826e-04 0.0000000e+00 
0.0000000e+00 2.7721172e-04 0.0000000e+00 
0.0000000e+00 2.3726028e-04 0.0000000e+00 
0.0000000e+00 1.9350393e-04 0.0000000e+00 
0.0000000e+00 2.3875457e-04 0.0000000e+00 
0.0000000e+00 3.0748014e-04 0.0000000e+00 
0.0000000e+00 3.9968066e-04 0.0000000e+00 
0.0000000e+00 5.1535614e-04 0.0000000e+00 
0.0000000e+00 6.5450656e-04 0.0000000e+00 
0.0000000e+00 8.1713189e-04 0.0000000e+00 
0.0000000e+00 1.0032322e-03 0.0000000e+00 
0.0000000e+00 1.2128074e-03 0.0000000e+00 
0.0000000e+00 1.4458576e-03 0.0000000e+00 
0.0000000e+00 1.7023827e-03 0.0000000e+00 
0.0000000e+00 1.9823827e-03 0.0000000e+00 
0.0000000e+00 2.2858577e-03 0.0000000e+00 
0.0000000e+00 2.9910184e-03 0.0000000e+00 
0.0000000e+00 3.5904173e-03 0.0000000e+00 
0.0000000e+00 4.0840544e-03 0.0000000e+00 
0.0000000e+00 4.4719293e-03 0.0000000e+00 
0.0000000e+00 4.7540423e-03 0.0000000e+00 
0.0000000e+00 4.9303938e-03 0.0000000e+00 
0.0000000e+00 5.0009829e-03 0.0000000e+00 
0.0000000e+00 4.9658106e-03 0.0000000e+00 
0.0000000e+00 4.8248759e-03 0.0000000e+00 
0.0000000e+00 4.5781797e-03 0.0000000e+00 
0.0000000e+00 4.2257211e-03 0.0000000e+00 
0.0000000e+00 3.7675011e-03 0.0000000e+00 
0.0000000e+00 5.0044856e-03 0.0000000e+00 
0.0000000e+00 6.7114779e-03 0.0000000e+00 
0.0000000e+00 8.8884784e-03 0.0000000e+00 
0.0000000e+00 1.1535487e-02 0.0000000e+00 
0.0000000e+00 1.4652505e-02 0.0000000e+00 
0.0000000e+00 1.8239530e-02 0.0000000e+00 
0.0000000e+00 2.2296563e-02 0.0000000e+00 
0.0000000e+00 2.6823603e-02 0.0000000e+00 
0.0000000e+00 3.1820651e-02 0.0000000e+00 
0.0000000e+00 3.7287708e-02 0.0000000e+00 
0.0000000e+00 4.3224774e-02 0.0000000e+00 
0.0000000e+00 4.9631849e-02 0.0000000e+00 
0.0000000e+00 6.5129392e-02 0.0000000e+00 
0.0000000e+00 7.8575313e-02 0.0000000e+00 
0.0000000e+00 8.9969613e-02 0.0000000e+00 
0.0000000e+00 9.9312291e-02 0.0000000e+00 
0.0000000e+00 1.0660335e-01 0.0000000e+00 
0.0000000e+00 1.1184278e-01 0.0000000e+00 
0.0000000e+00 1.1503060e-01 0.0000000e+00 
0.0000000e+00 1.1616680e-01 0.0000000e+00 
0.0000000e+00 1.1525138e-01 0.0000000e+00 
0.0000000e+00 1.1228433e-01 0.0000000e+00 
0.0000000e+00 1.0726567e-01 0.0000000e+00 
0.0000000e+00 1.0019538e-01 0.0000000e+00 
0.0000000e+00 1.0634273e-01 0.0000000e+00 
0.0000000e+00 1.1087094e-01 0.0000000e+00 
0.0000000e+00 1.1377998e-01 0.0000000e+00 
0.0000000e+00 1.1506986e-01 0.0000000e+00 
0.0000000e+00 1.1474058e-01 0.0000000e+00 
0.0000000e+00 1.1279215e-01 0.0000000e+00 
0.0000000e+00 1.0922455e-01 0.0000000e+00 
0.0000000e+00 1.0403780e-01 0.0000000e+00 
0.0000000e+00 9.7231895e-02 0.0000000e+00 
0.0000000e+00 8.8806823e-02 0.0000000e+00 
0.0000000e+00 7.8762598e-02 0.0000000e+00 
0.0000000e+00 6.7099214e-02 0.0000000e+00 
0.0000000e+00 5.0921673e-05 0.0000000e+00 
0.0000000e+00 1.4632716e-03 0.0000000e+00 
0.0000000e+00 1.0410416e-03 0.0000000e+00 
0.0000000e+00 3.1305235e-02 0.0000000e+00 
0.0000000e+00 6.6554964e-02 0.0000000e+00 
0.0000000e+00 4.3873165e-02 0.0000000e+00 
0.0000000e+00 -6.0137267e-05 0.0000000e+00 
0.0000000e+00 7.6683023e-04 0.0000000e+00 
0.0000000e+00 -1.0860111e-03 0.0000000e+00 
0.0000000e+00 1.5850494e-02 0.0000000e+00 
0.0000000e+00 2.5845852e-02 0.0000000e+00 
0.0000000e+00 2.4086867e-02 0.0000000e+00 
0.0000000e+00 -1.3967289e-04 0.0000000e+00 
0.0000000e+00 1.9653367e-04 0.0000000e+00 
0.0000000e+00 -2.6136567e-03 0.0000000e+00 
0.0000000e+00 3.2676212e-03 0.0000000e+00 
0.0000000e+00 -2.1931957e-02 0.0000000e+00 
0.0000000e+00 7.7403211e-03 0.0000000e+00 
0.0000000e+00 -1.8768520e-04 0.0000000e+00 
0.0000000e+00 -2.4761807e-04 0.0000000e+00 
0.0000000e+00 -3.5418957e-03 0.0000000e+00 
0.0000000e+00 -6.4433822e-03 0.0000000e+00 
0.0000000e+00 -7.6778464e-02 0.0000000e+00 
0.0000000e+00 -5.1664701e-03 0.0000000e+00 
0.0000000e+00 -2.0417421e-04 0.0000000e+00 
0.0000000e+00 -5.6562503e-04 0.0000000e+00 
0.0000000e+00 -3.8707277e-03 0.0000000e+00 
0.0000000e+00 -1.3282516e-02 0.0000000e+00 
0.0000000e+00 -1.3869368e-01 0.0000000e+00 
0.0000000e+00 -1.4633508e-02 0.0000000e+00 
0.0000000e+00 -1.8913989e-04 0.0000000e+00 
0.0000000e+00 -7.5748720e-04 0.0000000e+00 
0.0000000e+00 -3.6001529e-03 0.0000000e+00 
0.0000000e+00 -1.7249782e-02 0.0000000e+00 
0.0000000e+00 -2.0767757e-01 0.0000000e+00 
0.0000000e+00 -2.0660793e-02 0.0000000e+00 
0.0000000e+00 -1.4258226e-04 0.0000000e+00 
0.0000000e+00 -8.2320452e-04 0.0000000e+00 
0.0000000e+00 -2.7301710e-03 0.0000000e+00 
0.0000000e+00 -1.8345175e-02 0.0000000e+00 
0.0000000e+00 -2.8373018e-01 0.0000000e+00 
0.0000000e+00 -2.3248326e-02 0.0000000e+00 
0.0000000e+00 -6.4501313e-05 0.0000000e+00 
0.0000000e+00 -7.6277711e-04 0.0000000e+00 
0.0000000e+00 -1.2607824e-03 0.0000000e+00 
0.0000000e+00 -1.6568702e-02 0.0000000e+00 
0.0000000e+00 -3.6685148e-01 0.0000000e+00 
0.0000000e+00 -2.2396104e-02 0.0000000e+00 
0.0000000e+00 4.5102952e-05 0.0000000e+00 
0.0000000e+00 -5.7620491e-04 0.0000000e+00 
0.0000000e+00 8.0801308e-04 0.0000000e+00 
0.0000000e+00 -1.1920357e-02 0.0000000e+00 
0.0000000e+00 -4.5704147e-01 0.0000000e+00 
0.0000000e+00 -1.8104130e-02 0.0000000e+00 
0.0000000e+00 1.8623052e-04 0.0000000e+00 
0.0000000e+00 -2.6348786e-04 0.0000000e+00 
0.0000000e+00 3.4762155e-03 0.0000000e+00 
0.0000000e+00 -4.4001434e-03 0.0000000e+00 
0.0000000e+00 4.4569984e-01 0.0000000e+00 
0.0000000e+00 -1.0372404e-02 0.0000000e+00 
0.0000000e+00 3.5888143e-04 0.0000000e+00 
0.0000000e+00 1.7537395e-04 0.0000000e+00 
0.0000000e+00 6.7438246e-03 0.0000000e+00 
0.0000000e+00 5.9919399e-03 0.0000000e+00 
0.0000000e+00 3.4137246e-01 0.0000000e+00 
0.0000000e+00 7.9907634e-04 0.0000000e+00 
0.0000000e+00 2.8910287e-04 0.0000000e+00 
0.0000000e+00 2.9100533e-04 0.0000000e+00 
0.0000000e+00 2.9671268e-04 0.0000000e+00 
0.0000000e+00 3.0622492e-04 0.0000000e+00 
0.0000000e+00 3.1954207e-04 0.0000000e+00 
0.0000000e+00 3.3666412e-04 0.0000000e+00 
0.0000000e+00 3.5759108e-04 0.0000000e+00 
0.0000000e+00 3.8232291e-04 0.0000000e+00 
0.0000000e+00 4.1085965e-04 0.0000000e+00 
0.0000000e+00 4.4320131e-04 0.0000000e+00 
0.0000000e+00 4.7934783e-04 0.0000000e+00 
0.0000000e+00 5.1929930e-04 0.0000000e+00 
0.0000000e+00 5.6305563e-04 0.0000000e+00 
0.0000000e+00 7.0694485e-04 0.0000000e+00 
0.0000000e+00 8.2735921e-04 0.0000000e+00 
0.0000000e+00 9.2429854e-04 0.0000000e+00 
0.0000000e+00 9.9776301e-04 0.0000000e+00 
0.0000000e+00 1.0477524e-03 0.0000000e+00 
0.0000000e+00 1.0742670e-03 0.0000000e+00 
0.0000000e+00 1.0773066e-03 0.0000000e+00 
0.0000000e+00 1.0568713e-03 0.0000000e+00 
0.0000000e+00 1.0129610e-03 0.0000000e+00 
0.0000000e+00 9.4557583e-04 0.0000000e+00 
0.0000000e+00 8.5471565e-04 0.0000000e+00 
0.0000000e+00 7.4038055e-04 0.0000000e+00 
0.0000000e+00 9.8122843e-04 0.0000000e+00 
0.0000000e+00 1.3278383e-03 0.0000000e+00 
0.0000000e+00 1.7802099e-03 0.0000000e+00 
0.0000000e+00 2.3383435e-03 0.0000000e+00 
0.0000000e+00 3.0022389e-03 0.0000000e+00 
0.0000000e+00 3.7718965e-03 0.0000000e+00 
0.0000000e+00 4.6473159e-03 0.0000000e+00 
0.0000000e+00 5.6284969e-03 0.0000000e+00 
0.0000000e+00 6.7154402e-03 0.0000000e+00 
0.0000000e+00 7.9081450e-03 0.0000000e+00 
0.0000000e+00 9.2066117e-03 0.0000000e+00 
0.0000000e+00 1.0610841e-02 0.0000000e+00 
0.0000000e+00 1.3916306e-02 0.0000000e+00 
0.0000000e+00 1.6751764e-02 0.0000000e+00 
0.0000000e+00 1.9117214e-02 0.0000000e+00 
0.0000000e+00 2.1012655e-02 0.0000000e+00 
0.0000000e+00 2.2438088e-02 0.0000000e+00 
0.0000000e+00 2.3393512e-02 0.0000000e+00 
0.0000000e+00 2.3878930e-02 0.0000000e+00 
0.0000000e+00 2.3894338e-02 0.0000000e+00 
0.0000000e+00 2.3439739e-02 0.0000000e+00 
0.0000000e+00 2.2515131e-02 0.0000000e+00 
0.0000000e+00 2.1120517e-02 0.0000000e+00 
0.0000000e+00 1.9255893e-02 0.0000000e+00 
0.0000000e+00 2.5532018e-02 0.0000000e+00 
0.0000000e+00 3.3859767e-02 0.0000000e+00 
0.0000000e+00 4.4239134e-02 0.0000000e+00 
0.0000000e+00 5.6670122e-02 0.0000000e+00 
0.0000000e+00 7.1152732e-02 0.0000000e+00 
0.0000000e+00 8.7686956e-02 0.0000000e+00 
0.0000000e+00 1.0627281e-01 0.0000000e+00 
0.0000000e+00 1.2691028e-01 0.0000000e+00 
0.0000000e+00 1.4959937e-01 0.0000000e+00 
0.0000000e+00 1.7434008e-01 0.0000000e+00 
0.0000000e+00 2.0113242e-01 0.0000000e+00 
0.0000000e+00 2.2997637e-01 0.0000000e+00 
0.0000000e+00 2.0319049e-01 0.0000000e+00 
0.0000000e+00 1.7802377e-01 0.0000000e+00 
0.0000000e+00 1.5447621e-01 0.0000000e+00 
0.0000000e+00 1.3254781e-01 0.0000000e+00 
0.0000000e+00 1.1223857e-01 0.0000000e+00 
0.0000000e+00 9.3548492e-02 0.0000000e+00 
0.0000000e+00 7.6477565e-02 0.0000000e+00 
0.0000000e+00 6.1025795e-02 0.0000000e+00 
0.0000000e+00 4.7193188e-02 0.0000000e+00 
0.0000000e+00 3.4979735e-02 0.0000000e+00 