# vtk DataFile Version 4.0
vtk output
ASCII
DATASET UNSTRUCTURED_GRID
POINTS 212 float
0.0000000e+00 0.0000000e+00 0.0000000e+00 
0.0000000e+00 0.0000000e+00 2.5000000e-01 
0.0000000e+00 0.0000000e+00 5.0000000e-01 
0.0000000e+00 0.0000000e+00 7.5000000e-01 
0.0000000e+00 0.0000000e+00 1.0000000e+00 
0.0000000e+00 0.0000000e+00 1.2500000e+00 
0.0000000e+00 0.0000000e+00 1.5000000e+00 
0.0000000e+00 0.0000000e+00 1.7500000e+00 
0.0000000e+00 0.0000000e+00 2.0000000e+00 
0.0000000e+00 0.0000000e+00 2.2500000e+00 
0.0000000e+00 0.0000000e+00 2.5000000e+00 
0.0000000e+00 0.0000000e+00 2.7500000e+00 
0.0000000e+00 0.0000000e+00 3.0000000e+00 
0.0000000e+00 0.0000000e+00 3.2500000e+00 
0.0000000e+00 0.0000000e+00 3.5000000e+00 
0.0000000e+00 0.0000000e+00 3.7500000e+00 
0.0000000e+00 0.0000000e+00 4.0000000e+00 
0.0000000e+00 0.0000000e+00 4.2500000e+00 
0.0000000e+00 0.0000000e+00 4.5000000e+00 
0.0000000e+00 0.0000000e+00 4.7500000e+00 
0.0000000e+00 0.0000000e+00 5.0000000e+00 
0.0000000e+00 0.0000000e+00 5.2500000e+00 
0.0000000e+00 0.0000000e+00 5.5000000e+00 
0.0000000e+00 0.0000000e+00 5.7500000e+00 
0.0000000e+00 0.0000000e+00 6.0000000e+00 
0.0000000e+00 0.0000000e+00 6.2500000e+00 
0.0000000e+00 0.0000000e+00 6.5000000e+00 
0.0000000e+00 0.0000000e+00 6.7500000e+00 
0.0000000e+00 0.0000000e+00 7.0000000e+00 
0.0000000e+00 0.0000000e+00 7.2500000e+00 
0.0000000e+00 0.0000000e+00 7.5000000e+00 
0.0000000e+00 0.0000000e+00 7.7500000e+00 
0.0000000e+00 0.0000000e+00 8.0000000e+00 
0.0000000e+00 0.0000000e+00 8.2500000e+00 
0.0000000e+00 0.0000000e+00 8.5000000e+00 
0.0000000e+00 0.0000000e+00 8.7500000e+00 
0.0000000e+00 0.0000000e+00 9.0000000e+00 
0.0000000e+00 0.0000000e+00 9.2500000e+00 
0.0000000e+00 0.0000000e+00 9.5000000e+00 
0.0000000e+00 0.0000000e+00 9.7500000e+00 
0.0000000e+00 0.0000000e+00 1.0000000e+01 
0.0000000e+00 0.0000000e+00 1.0250000e+01 
0.0000000e+00 0.0000000e+00 1.0500000e+01 
0.0000000e+00 0.0000000e+00 1.0750000e+01 
0.0000000e+00 0.0000000e+00 1.1000000e+01 
0.0000000e+00 0.0000000e+00 1.1250000e+01 
0.0000000e+00 0.0000000e+00 1.1500000e+01 
0.0000000e+00 0.0000000e+00 1.1750000e+01 
0.0000000e+00 0.0000000e+00 1.2000000e+01 
0.0000000e+00 0.0000000e+00 1.2250000e+01 
0.0000000e+00 0.0000000e+00 1.2500000e+01 
0.0000000e+00 0.0000000e+00 1.2750000e+01 
0.0000000e+00 0.0000000e+00 1.3000000e+01 
0.0000000e+00 0.0000000e+00 1.3250000e+01 
0.0000000e+00 0.0000000e+00 1.3500000e+01 
0.0000000e+00 0.0000000e+00 1.3750000e+01 
0.0000000e+00 0.0000000e+00 1.4000000e+01 
0.0000000e+00 0.0000000e+00 1.4250000e+01 
0.0000000e+00 0.0000000e+00 1.4500000e+01 
0.0000000e+00 0.0000000e+00 1.4750000e+01 
0.0000000e+00 0.0000000e+00 1.5000000e+01 
0.0000000e+00 0.0000000e+00 1.5250000e+01 
0.0000000e+00 0.0000000e+00 1.5500000e+01 
0.0000000e+00 0.0000000e+00 1.5750000e+01 
0.0000000e+00 0.0000000e+00 1.6000000e+01 
0.0000000e+00 0.0000000e+00 1.6250000e+01 
0.0000000e+00 0.0000000e+00 1.6500000e+01 
0.0000000e+00 0.0000000e+00 1.6750000e+01 
0.0000000e+00 0.0000000e+00 1.7000000e+01 
0.0000000e+00 0.0000000e+00 1.7250000e+01 
0.0000000e+00 0.0000000e+00 1.7500000e+01 
0.0000000e+00 0.0000000e+00 1.7750000e+01 
0.0000000e+00 0.0000000e+00 1.8000000e+01 
5.0000000e-01 0.0000000e+00 3.0000000e+00 
5.0000000e-01 0.0000000e+00 6.0000000e+00 
5.0000000e-01 0.0000000e+00 9.0000000e+00 
5.0000000e-01 0.0000000e+00 1.2000000e+01 
5.0000000e-01 0.0000000e+00 1.5000000e+01 
5.0000000e-01 0.0000000e+00 1.8000000e+01 
1.0000000e+00 0.0000000e+00 3.0000000e+00 
1.0000000e+00 0.0000000e+00 6.0000000e+00 
1.0000000e+00 0.0000000e+00 9.0000000e+00 
1.0000000e+00 0.0000000e+00 1.2000000e+01 
1.0000000e+00 0.0000000e+00 1.5000000e+01 
1.0000000e+00 0.0000000e+00 1.8000000e+01 
1.5000000e+00 0.0000000e+00 3.0000000e+00 
1.5000000e+00 0.0000000e+00 6.0000000e+00 
1.5000000e+00 0.0000000e+00 9.0000000e+00 
1.5000000e+00 0.0000000e+00 1.2000000e+01 
1.5000000e+00 0.0000000e+00 1.5000000e+01 
1.5000000e+00 0.0000000e+00 1.8000000e+01 
2.0000000e+00 0.0000000e+00 3.0000000e+00 
2.0000000e+00 0.0000000e+00 6.0000000e+00 
2.0000000e+00 0.0000000e+00 9.0000000e+00 
2.0000000e+00 0.0000000e+00 1.2000000e+01 
2.0000000e+00 0.0000000e+00 1.5000000e+01 
2.0000000e+00 0.0000000e+00 1.8000000e+01 
2.5000000e+00 0.0000000e+00 3.0000000e+00 
2.5000000e+00 0.0000000e+00 6.0000000e+00 
2.5000000e+00 0.0000000e+00 9.0000000e+00 
2.5000000e+00 0.0000000e+00 1.2000000e+01 
2.5000000e+00 0.0000000e+00 1.5000000e+01 
2.5000000e+00 0.0000000e+00 1.8000000e+01 
3.0000000e+00 0.0000000e+00 3.0000000e+00 
3.0000000e+00 0.0000000e+00 6.0000000e+00 
3.0000000e+00 0.0000000e+00 9.0000000e+00 
3.0000000e+00 0.0000000e+00 1.2000000e+01 
3.0000000e+00 0.0000000e+00 1.5000000e+01 
3.0000000e+00 0.0000000e+00 1.8000000e+01 
3.5000000e+00 0.0000000e+00 3.0000000e+00 
3.5000000e+00 0.0000000e+00 6.0000000e+00 
3.5000000e+00 0.0000000e+00 9.0000000e+00 
3.5000000e+00 0.0000000e+00 1.2000000e+01 
3.5000000e+00 0.0000000e+00 1.5000000e+01 
3.5000000e+00 0.0000000e+00 1.8000000e+01 
4.0000000e+00 0.0000000e+00 3.0000000e+00 
4.0000000e+00 0.0000000e+00 6.0000000e+00 
4.0000000e+00 0.0000000e+00 9.0000000e+00 
4.0000000e+00 0.0000000e+00 1.2000000e+01 
4.0000000e+00 0.0000000e+00 1.5000000e+01 
4.0000000e+00 0.0000000e+00 1.8000000e+01 
4.5000000e+00 0.0000000e+00 3.0000000e+00 
4.5000000e+00 0.0000000e+00 6.0000000e+00 
4.5000000e+00 0.0000000e+00 9.0000000e+00 
4.5000000e+00 0.0000000e+00 1.2000000e+01 
4.5000000e+00 0.0000000e+00 1.5000000e+01 
4.5000000e+00 0.0000000e+00 1.8000000e+01 
5.0000000e+00 0.0000000e+00 3.0000000e+00 
5.0000000e+00 0.0000000e+00 6.0000000e+00 
5.0000000e+00 0.0000000e+00 9.0000000e+00 
5.0000000e+00 0.0000000e+00 1.2000000e+01 
5.0000000e+00 0.0000000e+00 1.5000000e+01 
5.0000000e+00 0.0000000e+00 1.8000000e+01 
5.5000000e+00 0.0000000e+00 3.0000000e+00 
5.5000000e+00 0.0000000e+00 6.0000000e+00 
5.5000000e+00 0.0000000e+00 9.0000000e+00 
5.5000000e+00 0.0000000e+00 1.2000000e+01 
5.5000000e+00 0.0000000e+00 1.5000000e+01 
5.5000000e+00 0.0000000e+00 1.8000000e+01 
6.0000000e+00 0.0000000e+00 0.0000000e+00 
6.0000000e+00 0.0000000e+00 2.5000000e-01 
6.0000000e+00 0.0000000e+00 5.0000000e-01 
6.0000000e+00 0.0000000e+00 7.5000000e-01 
6.0000000e+00 0.0000000e+00 1.0000000e+00 
6.0000000e+00 0.0000000e+00 1.2500000e+00 
6.0000000e+00 0.0000000e+00 1.5000000e+00 
6.0000000e+00 0.0000000e+00 1.7500000e+00 
6.0000000e+00 0.0000000e+00 2.0000000e+00 
6.0000000e+00 0.0000000e+00 2.2500000e+00 
6.0000000e+00 0.0000000e+00 2.5000000e+00 
6.0000000e+00 0.0000000e+00 2.7500000e+00 
6.0000000e+00 0.0000000e+00 3.0000000e+00 
6.0000000e+00 0.0000000e+00 3.2500000e+00 
6.0000000e+00 0.0000000e+00 3.5000000e+00 
6.0000000e+00 0.0000000e+00 3.7500000e+00 
6.0000000e+00 0.0000000e+00 4.0000000e+00 
6.0000000e+00 0.0000000e+00 4.2500000e+00 
6.0000000e+00 0.0000000e+00 4.5000000e+00 
6.0000000e+00 0.0000000e+00 4.7500000e+00 
6.0000000e+00 0.0000000e+00 5.0000000e+00 
6.0000000e+00 0.0000000e+00 5.2500000e+00 
6.0000000e+00 0.0000000e+00 5.5000000e+00 
6.0000000e+00 0.0000000e+00 5.7500000e+00 
6.0000000e+00 0.0000000e+00 6.0000000e+00 
6.0000000e+00 0.0000000e+00 6.2500000e+00 
6.0000000e+00 0.0000000e+00 6.5000000e+00 
6.0000000e+00 0.0000000e+00 6.7500000e+00 
6.0000000e+00 0.0000000e+00 7.0000000e+00 
6.0000000e+00 0.0000000e+00 7.2500000e+00 
6.0000000e+00 0.0000000e+00 7.5000000e+00 
6.0000000e+00 0.0000000e+00 7.7500000e+00 
6.0000000e+00 0.0000000e+00 8.0000000e+00 
6.0000000e+00 0.0000000e+00 8.2500000e+00 
6.0000000e+00 0.0000000e+00 8.5000000e+00 
6.0000000e+00 0.0000000e+00 8.7500000e+00 
6.0000000e+00 0.0000000e+00 9.0000000e+00 
6.0000000e+00 0.0000000e+00 9.2500000e+00 
6.0000000e+00 0.0000000e+00 9.5000000e+00 
6.0000000e+00 0.0000000e+00 9.7500000e+00 
6.0000000e+00 0.0000000e+00 1.0000000e+01 
6.0000000e+00 0.0000000e+00 1.0250000e+01 
6.0000000e+00 0.0000000e+00 1.0500000e+01 
6.0000000e+00 0.0000000e+00 1.0750000e+01 
6.0000000e+00 0.0000000e+00 1.1000000e+01 
6.0000000e+00 0.0000000e+00 1.1250000e+01 
6.0000000e+00 0.0000000e+00 1.1500000e+01 
6.0000000e+00 0.0000000e+00 1.1750000e+01 
6.0000000e+00 0.0000000e+00 1.2000000e+01 
6.0000000e+00 0.0000000e+00 1.2250000e+01 
6.0000000e+00 0.0000000e+00 1.2500000e+01 
6.0000000e+00 0.0000000e+00 1.2750000e+01 
6.0000000e+00 0.0000000e+00 1.3000000e+01 
6.0000000e+00 0.0000000e+00 1.3250000e+01 
6.0000000e+00 0.0000000e+00 1.3500000e+01 
6.0000000e+00 0.0000000e+00 1.3750000e+01 
6.0000000e+00 0.0000000e+00 1.4000000e+01 
6.0000000e+00 0.0000000e+00 1.4250000e+01 
6.0000000e+00 0.0000000e+00 1.4500000e+01 
6.0000000e+00 0.0000000e+00 1.4750000e+01 
6.0000000e+00 0.0000000e+00 1.5000000e+01 
6.0000000e+00 0.0000000e+00 1.5250000e+01 
6.0000000e+00 0.0000000e+00 1.5500000e+01 
6.0000000e+00 0.0000000e+00 1.5750000e+01 
6.0000000e+00 0.0000000e+00 1.6000000e+01 
6.0000000e+00 0.0000000e+00 1.6250000e+01 
6.0000000e+00 0.0000000e+00 1.6500000e+01 
6.0000000e+00 0.0000000e+00 1.6750000e+01 
6.0000000e+00 0.0000000e+00 1.7000000e+01 
6.0000000e+00 0.0000000e+00 1.7250000e+01 
6.0000000e+00 0.0000000e+00 1.7500000e+01 
6.0000000e+00 0.0000000e+00 1.7750000e+01 
6.0000000e+00 0.0000000e+00 1.8000000e+01 

CELLS 216 648
2 0 1
2 1 2
2 2 3
2 3 4
2 4 5
2 5 6
2 6 7
2 7 8
2 8 9
2 9 10
2 10 11
2 11 12
2 12 13
2 13 14
2 14 15
2 15 16
2 16 17
2 17 18
2 18 19
2 19 20
2 20 21
2 21 22
2 22 23
2 23 24
2 24 25
2 25 26
2 26 27
2 27 28
2 28 29
2 29 30
2 30 31
2 31 32
2 32 33
2 33 34
2 34 35
2 35 36
2 36 37
2 37 38
2 38 39
2 39 40
2 40 41
2 41 42
2 42 43
2 43 44
2 44 45
2 45 46
2 46 47
2 47 48
2 48 49
2 49 50
2 50 51
2 51 52
2 52 53
2 53 54
2 54 55
2 55 56
2 56 57
2 57 58
2 58 59
2 59 60
2 60 61
2 61 62
2 62 63
2 63 64
2 64 65
2 65 66
2 66 67
2 67 68
2 68 69
2 69 70
2 70 71
2 71 72
2 139 140
2 140 141
2 141 142
2 142 143
2 143 144
2 144 145
2 145 146
2 146 147
2 147 148
2 148 149
2 149 150
2 150 151
2 151 152
2 152 153
2 153 154
2 154 155
2 155 156
2 156 157
2 157 158
2 158 159
2 159 160
2 160 161
2 161 162
2 162 163
2 163 164
2 164 165
2 165 166
2 166 167
2 167 168
2 168 169
2 169 170
2 170 171
2 171 172
2 172 173
2 173 174
2 174 175
2 175 176
2 176 177
2 177 178
2 178 179
2 179 180
2 180 181
2 181 182
2 182 183
2 183 184
2 184 185
2 185 186
2 186 187
2 187 188
2 188 189
2 189 190
2 190 191
2 191 192
2 192 193
2 193 194
2 194 195
2 195 196
2 196 197
2 197 198
2 198 199
2 199 200
2 200 201
2 201 202
2 202 203
2 203 204
2 204 205
2 205 206
2 206 207
2 207 208
2 208 209
2 209 210
2 210 211
2 12 73
2 73 79
2 79 85
2 85 91
2 91 97
2 97 103
2 103 109
2 109 115
2 115 121
2 121 127
2 127 133
2 133 151
2 24 74
2 74 80
2 80 86
2 86 92
2 92 98
2 98 104
2 104 110
2 110 116
2 116 122
2 122 128
2 128 134
2 134 163
2 36 75
2 75 81
2 81 87
2 87 93
2 93 99
2 99 105
2 105 111
2 111 117
2 117 123
2 123 129
2 129 135
2 135 175
2 48 76
2 76 82
2 82 88
2 88 94
2 94 100
2 100 106
2 106 112
2 112 118
2 118 124
2 124 130
2 130 136
2 136 187
2 60 77
2 77 83
2 83 89
2 89 95
2 95 101
2 101 107
2 107 113
2 113 119
2 119 125
2 125 131
2 131 137
2 137 199
2 72 78
2 78 84
2 84 90
2 90 96
2 96 102
2 102 108
2 108 114
2 114 120
2 120 126
2 126 132
2 132 138
2 138 211

CELL_TYPES 216
3
3
3
3
3
3
3
3
3
3
3
3
3
3
3
3
3
3
3
3
3
3
3
3
3
3
3
3
3
3
3
3
3
3
3
3
3
3
3
3
3
3
3
3
3
3
3
3
3
3
3
3
3
3
3
3
3
3
3
3
3
3
3
3
3
3
3
3
3
3
3
3
3
3
3
3
3
3
3
3
3
3
3
3
3
3
3
3
3
3
3
3
3
3
3
3
3
3
3
3
3
3
3
3
3
3
3
3
3
3
3
3
3
3
3
3
3
3
3
3
3
3
3
3
3
3
3
3
3
3
3
3
3
3
3
3
3
3
3
3
3
3
3
3
3
3
3
3
3
3
3
3
3
3
3
3
3
3
3
3
3
3
3
3
3
3
3
3
3
3
3
3
3
3
3
3
3
3
3
3
3
3
3
3
3
3
3
3
3
3
3
3
3
3
3
3
3
3
3
3
3
3
3
3
3
3
3
3
3
3
3
3
3
3
3
3
POINT_DATA 212
FIELD FieldData 8
DISPLACEMENT 3 212  float
0.0000000e+00 0.0000000e+00 0.0000000e+00 
-4.0778119e-05 0.0000000e+00 -3.8338845e-07 
-7.9845930e-05 0.0000000e+00 -7.6677691e-07 
-1.1549312e-04 0.0000000e+00 -1.1501653e-06 
-1.4600936e-04 0.0000000e+00 -1.5335538e-06 
-1.6968437e-04 0.0000000e+00 -1.9169422e-06 
-1.8480782e-04 0.0000000e+00 -2.3003306e-06 
-1.8966942e-04 0.0000000e+00 -2.6837192e-06 
-1.8255883e-04 0.0000000e+00 -3.0671076e-06 
-1.6176574e-04 0.0000000e+00 -3.4504960e-06 
-1.2557986e-04 0.0000000e+00 -3.8338844e-06 
-7.2290866e-05 0.0000000e+00 -4.2172728e-06 
-1.8845290e-07 0.0000000e+00 -4.6006612e-06 
6.4699205e-05 0.0000000e+00 -4.9201517e-06 
9.8968550e-05 0.0000000e+00 -5.2396422e-06 
1.0826680e-04 0.0000000e+00 -5.5591327e-06 
9.8241209e-05 0.0000000e+00 -5.8786231e-06 
7.4538999e-05 0.0000000e+00 -6.1981132e-06 
4.2807405e-05 0.0000000e+00 -6.5176037e-06 
8.6936643e-06 0.0000000e+00 -6.8370941e-06 
-2.2154993e-05 0.0000000e+00 -7.1565846e-06 
-4.4091332e-05 0.0000000e+00 -7.4760746e-06 
-5.1468120e-05 0.0000000e+00 -7.7955656e-06 
-3.8638122e-05 0.0000000e+00 -8.1150556e-06 
4.5896137e-08 0.0000000e+00 -8.4345456e-06 
4.0485651e-05 0.0000000e+00 -8.6901382e-06 
5.7943653e-05 0.0000000e+00 -8.9457308e-06 
5.7108329e-05 0.0000000e+00 -9.2013224e-06 
4.2668114e-05 0.0000000e+00 -9.4569150e-06 
1.9311434e-05 0.0000000e+00 -9.7125076e-06 
-8.2732840e-06 0.0000000e+00 -9.9681001e-06 
-3.5397607e-05 0.0000000e+00 -1.0223692e-05 
-5.7373109e-05 0.0000000e+00 -1.0479284e-05 
-6.9511363e-05 0.0000000e+00 -1.0734877e-05 
-6.7123932e-05 0.0000000e+00 -1.0990469e-05 
-4.5522393e-05 0.0000000e+00 -1.1246061e-05 
-1.8318680e-08 0.0000000e+00 -1.1501654e-05 
4.4784985e-05 0.0000000e+00 -1.1693348e-05 
6.4539330e-05 0.0000000e+00 -1.1885042e-05 
6.4315849e-05 0.0000000e+00 -1.2076736e-05 
4.9185644e-05 0.0000000e+00 -1.2268431e-05 
2.4219849e-05 0.0000000e+00 -1.2460125e-05 
-5.5104215e-06 0.0000000e+00 -1.2651819e-05 
-3.4934048e-05 0.0000000e+00 -1.2843513e-05 
-5.8979909e-05 0.0000000e+00 -1.3035207e-05 
-7.2576884e-05 0.0000000e+00 -1.3226902e-05 
-7.0653863e-05 0.0000000e+00 -1.3418596e-05 
-4.8139707e-05 0.0000000e+00 -1.3610290e-05 
3.6686650e-08 0.0000000e+00 -1.3801984e-05 
4.9616512e-05 0.0000000e+00 -1.3929781e-05 
7.5830016e-05 0.0000000e+00 -1.4057577e-05 
8.2981896e-05 0.0000000e+00 -1.4185372e-05 
7.5376876e-05 0.0000000e+00 -1.4313169e-05 
5.7319652e-05 0.0000000e+00 -1.4440965e-05 
3.3114939e-05 0.0000000e+00 -1.4568761e-05 
7.0674405e-06 0.0000000e+00 -1.4696558e-05 
-1.6518134e-05 0.0000000e+00 -1.4824353e-05 
-3.3337077e-05 0.0000000e+00 -1.4952149e-05 
-3.9084676e-05 0.0000000e+00 -1.5079946e-05 
-2.9456229e-05 0.0000000e+00 -1.5207742e-05 
-1.4702377e-07 0.0000000e+00 -1.5335538e-05 
2.3535962e-05 0.0000000e+00 -1.5399437e-05 
1.8333378e-05 0.0000000e+00 -1.5463334e-05 
-8.3786317e-06 0.0000000e+00 -1.5527232e-05 
-4.9223923e-05 0.0000000e+00 -1.5591131e-05 
-9.6826348e-05 0.0000000e+00 -1.5655029e-05 
-1.4380977e-04 0.0000000e+00 -1.5718926e-05 
-1.8279802e-04 0.0000000e+00 -1.5782825e-05 
-2.0641499e-04 0.0000000e+00 -1.5846723e-05 
-2.0728449e-04 0.0000000e+00 -1.5910620e-05 
-1.7803042e-04 0.0000000e+00 -1.5974520e-05 
-1.1127661e-04 0.0000000e+00 -1.6038417e-05 
3.5308184e-07 0.0000000e+00 -1.6102314e-05 
-1.5704408e-07 0.0000000e+00 -2.6275948e-04 
3.8246778e-08 0.0000000e+00 -2.1418608e-04 
-1.5265567e-08 0.0000000e+00 -2.2738182e-04 
3.0572210e-08 0.0000000e+00 -2.3642834e-04 
-1.2251981e-07 0.0000000e+00 -1.9742065e-04 
2.9423487e-07 0.0000000e+00 -3.7408085e-04 
-1.2563527e-07 0.0000000e+00 -6.3416577e-04 
3.0597423e-08 0.0000000e+00 -5.4271368e-04 
-1.2212454e-08 0.0000000e+00 -5.6419650e-04 
2.4457767e-08 0.0000000e+00 -5.7876261e-04 
-9.8015853e-08 0.0000000e+00 -5.0658482e-04 
2.3538790e-07 0.0000000e+00 -8.2715781e-04 
-9.4226451e-08 0.0000000e+00 -1.0227083e-03 
2.2948067e-08 0.0000000e+00 -8.9790608e-04 
-9.1593408e-09 0.0000000e+00 -9.2583441e-04 
1.8343323e-08 0.0000000e+00 -9.4469357e-04 
-7.3511892e-08 0.0000000e+00 -8.4671681e-04 
1.7654092e-07 0.0000000e+00 -1.2792220e-03 
-6.2817634e-08 0.0000000e+00 -1.3536338e-03 
1.5298710e-08 0.0000000e+00 -1.2050101e-03 
-6.1062284e-09 0.0000000e+00 -1.2375424e-03 
1.2228882e-08 0.0000000e+00 -1.2594680e-03 
-4.9007927e-08 0.0000000e+00 -1.1430634e-03 
1.1769395e-07 0.0000000e+00 -1.6555201e-03 
-3.1408820e-08 0.0000000e+00 -1.5735471e-03 
7.6493540e-09 0.0000000e+00 -1.4106306e-03 
-3.0531155e-09 0.0000000e+00 -1.4459252e-03 
6.1144392e-09 0.0000000e+00 -1.4696907e-03 
-2.4503965e-08 0.0000000e+00 -1.3422293e-03 
5.8846972e-08 0.0000000e+00 -1.9026570e-03 
-1.4466934e-15 0.0000000e+00 -1.6504113e-03 
-2.2068935e-15 0.0000000e+00 -1.4827304e-03 
-2.7431598e-15 0.0000000e+00 -1.5189458e-03 
-3.1322245e-15 0.0000000e+00 -1.5433246e-03 
-3.4022461e-15 0.0000000e+00 -1.4121777e-03 
-3.5297197e-15 0.0000000e+00 -1.9885956e-03 
3.1408817e-08 0.0000000e+00 -1.5735471e-03 
-7.6493585e-09 0.0000000e+00 -1.4106306e-03 
3.0531100e-09 0.0000000e+00 -1.4459252e-03 
-6.1144454e-09 0.0000000e+00 -1.4696907e-03 
2.4503958e-08 0.0000000e+00 -1.3422293e-03 
-5.8846979e-08 0.0000000e+00 -1.9026570e-03 
6.2817634e-08 0.0000000e+00 -1.3536338e-03 
-1.5298715e-08 0.0000000e+00 -1.2050101e-03 
6.1062226e-09 0.0000000e+00 -1.2375424e-03 
-1.2228888e-08 0.0000000e+00 -1.2594680e-03 
4.9007920e-08 0.0000000e+00 -1.1430634e-03 
-1.1769396e-07 0.0000000e+00 -1.6555201e-03 
9.4226451e-08 0.0000000e+00 -1.0227083e-03 
-2.2948072e-08 0.0000000e+00 -8.9790608e-04 
9.1593355e-09 0.0000000e+00 -9.2583441e-04 
-1.8343330e-08 0.0000000e+00 -9.4469357e-04 
7.3511885e-08 0.0000000e+00 -8.4671681e-04 
-1.7654094e-07 0.0000000e+00 -1.2792220e-03 
1.2563527e-07 0.0000000e+00 -6.3416577e-04 
-3.0597427e-08 0.0000000e+00 -5.4271368e-04 
1.2212449e-08 0.0000000e+00 -5.6419650e-04 
-2.4457773e-08 0.0000000e+00 -5.7876261e-04 
9.8015846e-08 0.0000000e+00 -5.0658482e-04 
-2.3538790e-07 0.0000000e+00 -8.2715781e-04 
1.5704408e-07 0.0000000e+00 -2.6275948e-04 
-3.8246785e-08 0.0000000e+00 -2.1418608e-04 
1.5265561e-08 0.0000000e+00 -2.2738182e-04 
-3.0572217e-08 0.0000000e+00 -2.3642834e-04 
1.2251981e-07 0.0000000e+00 -1.9742065e-04 
-2.9423489e-07 0.0000000e+00 -3.7408085e-04 
0.0000000e+00 0.0000000e+00 0.0000000e+00 
4.0778119e-05 0.0000000e+00 -3.8338845e-07 
7.9845930e-05 0.0000000e+00 -7.6677691e-07 
1.1549312e-04 0.0000000e+00 -1.1501653e-06 
1.4600936e-04 0.0000000e+00 -1.5335538e-06 
1.6968437e-04 0.0000000e+00 -1.9169422e-06 
1.8480782e-04 0.0000000e+00 -2.3003306e-06 
1.8966942e-04 0.0000000e+00 -2.6837192e-06 
1.8255883e-04 0.0000000e+00 -3.0671076e-06 
1.6176574e-04 0.0000000e+00 -3.4504960e-06 
1.2557986e-04 0.0000000e+00 -3.8338844e-06 
7.2290866e-05 0.0000000e+00 -4.2172728e-06 
1.8845290e-07 0.0000000e+00 -4.6006612e-06 
-6.4699205e-05 0.0000000e+00 -4.9201517e-06 
-9.8968550e-05 0.0000000e+00 -5.2396422e-06 
-1.0826680e-04 0.0000000e+00 -5.5591327e-06 
-9.8241209e-05 0.0000000e+00 -5.8786231e-06 
-7.4538999e-05 0.0000000e+00 -6.1981132e-06 
-4.2807405e-05 0.0000000e+00 -6.5176037e-06 
-8.6936643e-06 0.0000000e+00 -6.8370941e-06 
2.2154993e-05 0.0000000e+00 -7.1565846e-06 
4.4091332e-05 0.0000000e+00 -7.4760746e-06 
5.1468120e-05 0.0000000e+00 -7.7955656e-06 
3.8638122e-05 0.0000000e+00 -8.1150556e-06 
-4.5896140e-08 0.0000000e+00 -8.4345456e-06 
-4.0485651e-05 0.0000000e+00 -8.6901382e-06 
-5.7943653e-05 0.0000000e+00 -8.9457308e-06 
-5.7108329e-05 0.0000000e+00 -9.2013224e-06 
-4.2668114e-05 0.0000000e+00 -9.4569150e-06 
-1.9311434e-05 0.0000000e+00 -9.7125076e-06 
8.2732840e-06 0.0000000e+00 -9.9681001e-06 
3.5397607e-05 0.0000000e+00 -1.0223692e-05 
5.7373109e-05 0.0000000e+00 -1.0479284e-05 
6.9511363e-05 0.0000000e+00 -1.0734877e-05 
6.7123932e-05 0.0000000e+00 -1.0990469e-05 
4.5522393e-05 0.0000000e+00 -1.1246061e-05 
1.8318675e-08 0.0000000e+00 -1.1501654e-05 
-4.4784985e-05 0.0000000e+00 -1.1693348e-05 
-6.4539330e-05 0.0000000e+00 -1.1885042e-05 
-6.4315849e-05 0.0000000e+00 -1.2076736e-05 
-4.9185644e-05 0.0000000e+00 -1.2268431e-05 
-2.4219849e-05 0.0000000e+00 -1.2460125e-05 
5.5104215e-06 0.0000000e+00 -1.2651819e-05 
3.4934048e-05 0.0000000e+00 -1.2843513e-05 
5.8979909e-05 0.0000000e+00 -1.3035207e-05 
7.2576884e-05 0.0000000e+00 -1.3226902e-05 
7.0653863e-05 0.0000000e+00 -1.3418596e-05 
4.8139707e-05 0.0000000e+00 -1.3610290e-05 
-3.6686657e-08 0.0000000e+00 -1.3801984e-05 
-4.9616512e-05 0.0000000e+00 -1.3929781e-05 
-7.5830016e-05 0.0000000e+00 -1.4057577e-05 
-8.2981896e-05 0.0000000e+00 -1.4185372e-05 
-7.5376876e-05 0.0000000e+00 -1.4313169e-05 
-5.7319652e-05 0.0000000e+00 -1.4440965e-05 
-3.3114939e-05 0.0000000e+00 -1.4568761e-05 
-7.0674405e-06 0.0000000e+00 -1.4696558e-05 
1.6518134e-05 0.0000000e+00 -1.4824353e-05 
3.3337077e-05 0.0000000e+00 -1.4952149e-05 
3.9084676e-05 0.0000000e+00 -1.5079946e-05 
2.9456229e-05 0.0000000e+00 -1.5207742e-05 
1.4702377e-07 0.0000000e+00 -1.5335538e-05 
-2.3535962e-05 0.0000000e+00 -1.5399437e-05 
-1.8333378e-05 0.0000000e+00 -1.5463334e-05 
8.3786317e-06 0.0000000e+00 -1.5527232e-05 
4.9223923e-05 0.0000000e+00 -1.5591131e-05 
9.6826348e-05 0.0000000e+00 -1.5655029e-05 
1.4380977e-04 0.0000000e+00 -1.5718926e-05 
1.8279802e-04 0.0000000e+00 -1.5782825e-05 
2.0641499e-04 0.0000000e+00 -1.5846723e-05 
2.0728449e-04 0.0000000e+00 -1.5910620e-05 
1.7803042e-04 0.0000000e+00 -1.5974520e-05 
1.1127661e-04 0.0000000e+00 -1.6038417e-05 
-3.5308187e-07 0.0000000e+00 -1.6102314e-05 
ROTATION 3 212  float
0.0000000e+00 -1.6425269e-04 0.0000000e+00 
0.0000000e+00 -1.6083206e-04 0.0000000e+00 
0.0000000e+00 -1.5057019e-04 0.0000000e+00 
0.0000000e+00 -1.3346708e-04 0.0000000e+00 
0.0000000e+00 -1.0952273e-04 0.0000000e+00 
0.0000000e+00 -7.8737132e-05 0.0000000e+00 
0.0000000e+00 -4.1110285e-05 0.0000000e+00 
0.0000000e+00 3.3578046e-06 0.0000000e+00 
0.0000000e+00 5.4667140e-05 0.0000000e+00 
0.0000000e+00 1.1281772e-04 0.0000000e+00 
0.0000000e+00 1.7780953e-04 0.0000000e+00 
0.0000000e+00 2.4964262e-04 0.0000000e+00 
0.0000000e+00 3.2831691e-04 0.0000000e+00 
0.0000000e+00 1.9454918e-04 0.0000000e+00 
0.0000000e+00 8.3370374e-05 0.0000000e+00 
0.0000000e+00 -5.2194960e-06 0.0000000e+00 
0.0000000e+00 -7.1220427e-05 0.0000000e+00 
0.0000000e+00 -1.1463243e-04 0.0000000e+00 
0.0000000e+00 -1.3545550e-04 0.0000000e+00 
0.0000000e+00 -1.3368962e-04 0.0000000e+00 
0.0000000e+00 -1.0933482e-04 0.0000000e+00 
0.0000000e+00 -6.2391075e-05 0.0000000e+00 
0.0000000e+00 7.1415993e-06 0.0000000e+00 
0.0000000e+00 9.9263212e-05 0.0000000e+00 
0.0000000e+00 2.1397376e-04 0.0000000e+00 
0.0000000e+00 1.1266989e-04 0.0000000e+00 
0.0000000e+00 3.0119740e-05 0.0000000e+00 
0.0000000e+00 -3.3676693e-05 0.0000000e+00 
0.0000000e+00 -7.8719415e-05 0.0000000e+00 
0.0000000e+00 -1.0500842e-04 0.0000000e+00 
0.0000000e+00 -1.1254370e-04 0.0000000e+00 
0.0000000e+00 -1.0132527e-04 0.0000000e+00 
0.0000000e+00 -7.1353126e-05 0.0000000e+00 
0.0000000e+00 -2.2627264e-05 0.0000000e+00 
0.0000000e+00 4.4852313e-05 0.0000000e+00 
0.0000000e+00 1.3108560e-04 0.0000000e+00 
0.0000000e+00 2.3607262e-04 0.0000000e+00 
0.0000000e+00 1.2573456e-04 0.0000000e+00 
0.0000000e+00 3.5680980e-05 0.0000000e+00 
0.0000000e+00 -3.4088120e-05 0.0000000e+00 
0.0000000e+00 -8.3572741e-05 0.0000000e+00 
0.0000000e+00 -1.1277288e-04 0.0000000e+00 
0.0000000e+00 -1.2168854e-04 0.0000000e+00 
0.0000000e+00 -1.1031972e-04 0.0000000e+00 
0.0000000e+00 -7.8666424e-05 0.0000000e+00 
0.0000000e+00 -2.6728647e-05 0.0000000e+00 
0.0000000e+00 4.5493609e-05 0.0000000e+00 
0.0000000e+00 1.3800035e-04 0.0000000e+00 
0.0000000e+00 2.5079158e-04 0.0000000e+00 
0.0000000e+00 1.4871685e-04 0.0000000e+00 
0.0000000e+00 6.3860971e-05 0.0000000e+00 
0.0000000e+00 -3.7760808e-06 0.0000000e+00 
0.0000000e+00 -5.4194297e-05 0.0000000e+00 
0.0000000e+00 -8.7393681e-05 0.0000000e+00 
0.0000000e+00 -1.0337423e-04 0.0000000e+00 
0.0000000e+00 -1.0213595e-04 0.0000000e+00 
0.0000000e+00 -8.3678839e-05 0.0000000e+00 
0.0000000e+00 -4.8002890e-05 0.0000000e+00 
0.0000000e+00 4.8918882e-06 0.0000000e+00 
0.0000000e+00 7.5005497e-05 0.0000000e+00 
0.0000000e+00 1.6233795e-04 0.0000000e+00 
0.0000000e+00 3.2043372e-05 0.0000000e+00 
0.0000000e+00 -6.8746616e-05 0.0000000e+00 
0.0000000e+00 -1.4003203e-04 0.0000000e+00 
0.0000000e+00 -1.8181287e-04 0.0000000e+00 
0.0000000e+00 -1.9408911e-04 0.0000000e+00 
0.0000000e+00 -1.7686078e-04 0.0000000e+00 
0.0000000e+00 -1.3012787e-04 0.0000000e+00 
0.0000000e+00 -5.3890381e-05 0.0000000e+00 
0.0000000e+00 5.1851694e-05 0.0000000e+00 
0.0000000e+00 1.8709834e-04 0.0000000e+00 
0.0000000e+00 3.5184957e-04 0.0000000e+00 
0.0000000e+00 5.4610538e-04 0.0000000e+00 
0.0000000e+00 6.6516188e-04 0.0000000e+00 
0.0000000e+00 5.6987588e-04 0.0000000e+00 
0.0000000e+00 5.8829162e-04 0.0000000e+00 
0.0000000e+00 6.0055743e-04 0.0000000e+00 
0.0000000e+00 5.2684604e-04 0.0000000e+00 
0.0000000e+00 8.4665226e-04 0.0000000e+00 
0.0000000e+00 7.8842620e-04 0.0000000e+00 
0.0000000e+00 7.1219745e-04 0.0000000e+00 
0.0000000e+00 7.2693004e-04 0.0000000e+00 
0.0000000e+00 7.3674263e-04 0.0000000e+00 
0.0000000e+00 6.7777355e-04 0.0000000e+00 
0.0000000e+00 9.3361852e-04 0.0000000e+00 
0.0000000e+00 7.4082607e-04 0.0000000e+00 
0.0000000e+00 6.8365451e-04 0.0000000e+00 
0.0000000e+00 6.9470395e-04 0.0000000e+00 
0.0000000e+00 7.0206344e-04 0.0000000e+00 
0.0000000e+00 6.5783662e-04 0.0000000e+00 
0.0000000e+00 8.4972032e-04 0.0000000e+00 
0.0000000e+00 5.6507759e-04 0.0000000e+00 
0.0000000e+00 5.2696321e-04 0.0000000e+00 
0.0000000e+00 5.3432951e-04 0.0000000e+00 
0.0000000e+00 5.3923583e-04 0.0000000e+00 
0.0000000e+00 5.0975126e-04 0.0000000e+00 
0.0000000e+00 6.3767377e-04 0.0000000e+00 
0.0000000e+00 3.0389684e-04 0.0000000e+00 
0.0000000e+00 2.8483965e-04 0.0000000e+00 
0.0000000e+00 2.8852280e-04 0.0000000e+00 
0.0000000e+00 2.9097596e-04 0.0000000e+00 
0.0000000e+00 2.7623368e-04 0.0000000e+00 
0.0000000e+00 3.4019494e-04 0.0000000e+00 
0.0000000e+00 1.4233723e-16 0.0000000e+00 
0.0000000e+00 5.3210176e-17 0.0000000e+00 
0.0000000e+00 4.7889158e-17 0.0000000e+00 
0.0000000e+00 4.3898396e-17 0.0000000e+00 
0.0000000e+00 1.5297926e-17 0.0000000e+00 
0.0000000e+00 1.1103714e-17 0.0000000e+00 
0.0000000e+00 -3.0389684e-04 0.0000000e+00 
0.0000000e+00 -2.8483965e-04 0.0000000e+00 
0.0000000e+00 -2.8852280e-04 0.0000000e+00 
0.0000000e+00 -2.9097596e-04 0.0000000e+00 
0.0000000e+00 -2.7623368e-04 0.0000000e+00 
0.0000000e+00 -3.4019494e-04 0.0000000e+00 
0.0000000e+00 -5.6507759e-04 0.0000000e+00 
0.0000000e+00 -5.2696321e-04 0.0000000e+00 
0.0000000e+00 -5.3432951e-04 0.0000000e+00 
0.0000000e+00 -5.3923583e-04 0.0000000e+00 
0.0000000e+00 -5.0975126e-04 0.0000000e+00 
0.0000000e+00 -6.3767377e-04 0.0000000e+00 
0.0000000e+00 -7.4082607e-04 0.0000000e+00 
0.0000000e+00 -6.8365451e-04 0.0000000e+00 
0.0000000e+00 -6.9470395e-04 0.0000000e+00 
0.0000000e+00 -7.0206344e-04 0.0000000e+00 
0.0000000e+00 -6.5783662e-04 0.0000000e+00 
0.0000000e+00 -8.4972032e-04 0.0000000e+00 
0.0000000e+00 -7.8842620e-04 0.0000000e+00 
0.0000000e+00 -7.1219745e-04 0.0000000e+00 
0.0000000e+00 -7.2693004e-04 0.0000000e+00 
0.0000000e+00 -7.3674263e-04 0.0000000e+00 
0.0000000e+00 -6.7777355e-04 0.0000000e+00 
0.0000000e+00 -9.3361852e-04 0.0000000e+00 
0.0000000e+00 -6.6516188e-04 0.0000000e+00 
0.0000000e+00 -5.6987588e-04 0.0000000e+00 
0.0000000e+00 -5.8829162e-04 0.0000000e+00 
0.0000000e+00 -6.0055743e-04 0.0000000e+00 
0.0000000e+00 -5.2684604e-04 0.0000000e+00 
0.0000000e+00 -8.4665226e-04 0.0000000e+00 
0.0000000e+00 1.6425269e-04 0.0000000e+00 
0.0000000e+00 1.6083206e-04 0.0000000e+00 
0.0000000e+00 1.5057019e-04 0.0000000e+00 
0.0000000e+00 1.3346708e-04 0.0000000e+00 
0.0000000e+00 1.0952273e-04 0.0000000e+00 
0.0000000e+00 7.8737132e-05 0.0000000e+00 
0.0000000e+00 4.1110285e-05 0.0000000e+00 
0.0000000e+00 -3.3578046e-06 0.0000000e+00 
0.0000000e+00 -5.4667140e-05 0.0000000e+00 
0.0000000e+00 -1.1281772e-04 0.0000000e+00 
0.0000000e+00 -1.7780953e-04 0.0000000e+00 
0.0000000e+00 -2.4964262e-04 0.0000000e+00 
0.0000000e+00 -3.2831691e-04 0.0000000e+00 
0.0000000e+00 -1.9454918e-04 0.0000000e+00 
0.0000000e+00 -8.3370374e-05 0.0000000e+00 
0.0000000e+00 5.2194960e-06 0.0000000e+00 
0.0000000e+00 7.1220427e-05 0.0000000e+00 
0.0000000e+00 1.1463243e-04 0.0000000e+00 
0.0000000e+00 1.3545550e-04 0.0000000e+00 
0.0000000e+00 1.3368962e-04 0.0000000e+00 
0.0000000e+00 1.0933482e-04 0.0000000e+00 
0.0000000e+00 6.2391075e-05 0.0000000e+00 
0.0000000e+00 -7.1415993e-06 0.0000000e+00 
0.0000000e+00 -9.9263212e-05 0.0000000e+00 
0.0000000e+00 -2.1397376e-04 0.0000000e+00 
0.0000000e+00 -1.1266989e-04 0.0000000e+00 
0.0000000e+00 -3.0119740e-05 0.0000000e+00 
0.0000000e+00 3.3676693e-05 0.0000000e+00 
0.0000000e+00 7.8719415e-05 0.0000000e+00 
0.0000000e+00 1.0500842e-04 0.0000000e+00 
0.0000000e+00 1.1254370e-04 0.0000000e+00 
0.0000000e+00 1.0132527e-04 0.0000000e+00 
0.0000000e+00 7.1353126e-05 0.0000000e+00 
0.0000000e+00 2.2627264e-05 0.0000000e+00 
0.0000000e+00 -4.4852313e-05 0.0000000e+00 
0.0000000e+00 -1.3108560e-04 0.0000000e+00 
0.0000000e+00 -2.3607262e-04 0.0000000e+00 
0.0000000e+00 -1.2573456e-04 0.0000000e+00 
0.0000000e+00 -3.5680980e-05 0.0000000e+00 
0.0000000e+00 3.4088120e-05 0.0000000e+00 
0.0000000e+00 8.3572741e-05 0.0000000e+00 
0.0000000e+00 1.1277288e-04 0.0000000e+00 
0.0000000e+00 1.2168854e-04 0.0000000e+00 
0.0000000e+00 1.1031972e-04 0.0000000e+00 
0.0000000e+00 7.8666424e-05 0.0000000e+00 
0.0000000e+00 2.6728647e-05 0.0000000e+00 
0.0000000e+00 -4.5493609e-05 0.0000000e+00 
0.0000000e+00 -1.3800035e-04 0.0000000e+00 
0.0000000e+00 -2.5079158e-04 0.0000000e+00 
0.0000000e+00 -1.4871685e-04 0.0000000e+00 
0.0000000e+00 -6.3860971e-05 0.0000000e+00 
0.0000000e+00 3.7760808e-06 0.0000000e+00 
0.0000000e+00 5.4194297e-05 0.0000000e+00 
0.0000000e+00 8.7393681e-05 0.0000000e+00 
0.0000000e+00 1.0337423e-04 0.0000000e+00 
0.0000000e+00 1.0213595e-04 0.0000000e+00 
0.0000000e+00 8.3678839e-05 0.0000000e+00 
0.0000000e+00 4.8002890e-05 0.0000000e+00 
0.0000000e+00 -4.8918882e-06 0.0000000e+00 
0.0000000e+00 -7.5005497e-05 0.0000000e+00 
0.0000000e+00 -1.6233795e-04 0.0000000e+00 
0.0000000e+00 -3.2043372e-05 0.0000000e+00 
0.0000000e+00 6.8746616e-05 0.0000000e+00 
0.0000000e+00 1.4003203e-04 0.0000000e+00 
0.0000000e+00 1.8181287e-04 0.0000000e+00 