# vtk DataFile Version 4.0
vtk output
ASCII
DATASET UNSTRUCTURED_GRID
POINTS 212 float
0.0000000e+00 0.0000000e+00 0.0000000e+00 
0.0000000e+00 0.0000000e+00 2.5000000e-01 
0.0000000e+00 0.0000000e+00 5.0000000e-01 
0.0000000e+00 0.0000000e+00 7.5000000e-01 
0.0000000e+00 0.0000000e+00 1.0000000e+00 
0.0000000e+00 0.0000000e+00 1.2500000e+00 
0.0000000e+00 0.0000000e+00 1.5000000e+00 
0.0000000e+00 0.0000000e+00 1.7500000e+00 
0.0000000e+00 0.0000000e+00 2.0000000e+00 
0.0000000e+00 0.0000000e+00 2.2500000e+00 
0.0000000e+00 0.0000000e+00 2.5000000e+00 
0.0000000e+00 0.0000000e+00 2.7500000e+00 
0.0000000e+00 0.0000000e+00 3.0000000e+00 
0.0000000e+00 0.0000000e+00 3.2500000e+00 
0.0000000e+00 0.0000000e+00 3.5000000e+00 
0.0000000e+00 0.0000000e+00 3.7500000e+00 
0.0000000e+00 0.0000000e+00 4.0000000e+00 
0.0000000e+00 0.0000000e+00 4.2500000e+00 
0.0000000e+00 0.0000000e+00 4.5000000e+00 
0.0000000e+00 0.0000000e+00 4.7500000e+00 
0.0000000e+00 0.0000000e+00 5.0000000e+00 
0.0000000e+00 0.0000000e+00 5.2500000e+00 
0.0000000e+00 0.0000000e+00 5.5000000e+00 
0.0000000e+00 0.0000000e+00 5.7500000e+00 
0.0000000e+00 0.0000000e+00 6.0000000e+00 
0.0000000e+00 0.0000000e+00 6.2500000e+00 
0.0000000e+00 0.0000000e+00 6.5000000e+00 
0.0000000e+00 0.0000000e+00 6.7500000e+00 
0.0000000e+00 0.0000000e+00 7.0000000e+00 
0.0000000e+00 0.0000000e+00 7.2500000e+00 
0.0000000e+00 0.0000000e+00 7.5000000e+00 
0.0000000e+00 0.0000000e+00 7.7500000e+00 
0.0000000e+00 0.0000000e+00 8.0000000e+00 
0.0000000e+00 0.0000000e+00 8.2500000e+00 
0.0000000e+00 0.0000000e+00 8.5000000e+00 
0.0000000e+00 0.0000000e+00 8.7500000e+00 
0.0000000e+00 0.0000000e+00 9.0000000e+00 
0.0000000e+00 0.0000000e+00 9.2500000e+00 
0.0000000e+00 0.0000000e+00 9.5000000e+00 
0.0000000e+00 0.0000000e+00 9.7500000e+00 
0.0000000e+00 0.0000000e+00 1.0000000e+01 
0.0000000e+00 0.0000000e+00 1.0250000e+01 
0.0000000e+00 0.0000000e+00 1.0500000e+01 
0.0000000e+00 0.0000000e+00 1.0750000e+01 
0.0000000e+00 0.0000000e+00 1.1000000e+01 
0.0000000e+00 0.0000000e+00 1.1250000e+01 
0.0000000e+00 0.0000000e+00 1.1500000e+01 
0.0000000e+00 0.0000000e+00 1.1750000e+01 
0.0000000e+00 0.0000000e+00 1.2000000e+01 
0.0000000e+00 0.0000000e+00 1.2250000e+01 
0.0000000e+00 0.0000000e+00 1.2500000e+01 
0.0000000e+00 0.0000000e+00 1.2750000e+01 
0.0000000e+00 0.0000000e+00 1.3000000e+01 
0.0000000e+00 0.0000000e+00 1.3250000e+01 
0.0000000e+00 0.0000000e+00 1.3500000e+01 
0.0000000e+00 0.0000000e+00 1.3750000e+01 
0.0000000e+00 0.0000000e+00 1.4000000e+01 
0.0000000e+00 0.0000000e+00 1.4250000e+01 
0.0000000e+00 0.0000000e+00 1.4500000e+01 
0.0000000e+00 0.0000000e+00 1.4750000e+01 
0.0000000e+00 0.0000000e+00 1.5000000e+01 
0.0000000e+00 0.0000000e+00 1.5250000e+01 
0.0000000e+00 0.0000000e+00 1.5500000e+01 
0.0000000e+00 0.0000000e+00 1.5750000e+01 
0.0000000e+00 0.0000000e+00 1.6000000e+01 
0.0000000e+00 0.0000000e+00 1.6250000e+01 
0.0000000e+00 0.0000000e+00 1.6500000e+01 
0.0000000e+00 0.0000000e+00 1.6750000e+01 
0.0000000e+00 0.0000000e+00 1.7000000e+01 
0.0000000e+00 0.0000000e+00 1.7250000e+01 
0.0000000e+00 0.0000000e+00 1.7500000e+01 
0.0000000e+00 0.0000000e+00 1.7750000e+01 
0.0000000e+00 0.0000000e+00 1.8000000e+01 
5.0000000e-01 0.0000000e+00 3.0000000e+00 
5.0000000e-01 0.0000000e+00 6.0000000e+00 
5.0000000e-01 0.0000000e+00 9.0000000e+00 
5.0000000e-01 0.0000000e+00 1.2000000e+01 
5.0000000e-01 0.0000000e+00 1.5000000e+01 
5.0000000e-01 0.0000000e+00 1.8000000e+01 
1.0000000e+00 0.0000000e+00 3.0000000e+00 
1.0000000e+00 0.0000000e+00 6.0000000e+00 
1.0000000e+00 0.0000000e+00 9.0000000e+00 
1.0000000e+00 0.0000000e+00 1.2000000e+01 
1.0000000e+00 0.0000000e+00 1.5000000e+01 
1.0000000e+00 0.0000000e+00 1.8000000e+01 
1.5000000e+00 0.0000000e+00 3.0000000e+00 
1.5000000e+00 0.0000000e+00 6.0000000e+00 
1.5000000e+00 0.0000000e+00 9.0000000e+00 
1.5000000e+00 0.0000000e+00 1.2000000e+01 
1.5000000e+00 0.0000000e+00 1.5000000e+01 
1.5000000e+00 0.0000000e+00 1.8000000e+01 
2.0000000e+00 0.0000000e+00 3.0000000e+00 
2.0000000e+00 0.0000000e+00 6.0000000e+00 
2.0000000e+00 0.0000000e+00 9.0000000e+00 
2.0000000e+00 0.0000000e+00 1.2000000e+01 
2.0000000e+00 0.0000000e+00 1.5000000e+01 
2.0000000e+00 0.0000000e+00 1.8000000e+01 
2.5000000e+00 0.0000000e+00 3.0000000e+00 
2.5000000e+00 0.0000000e+00 6.0000000e+00 
2.5000000e+00 0.0000000e+00 9.0000000e+00 
2.5000000e+00 0.0000000e+00 1.2000000e+01 
2.5000000e+00 0.0000000e+00 1.5000000e+01 
2.5000000e+00 0.0000000e+00 1.8000000e+01 
3.0000000e+00 0.0000000e+00 3.0000000e+00 
3.0000000e+00 0.0000000e+00 6.0000000e+00 
3.0000000e+00 0.0000000e+00 9.0000000e+00 
3.0000000e+00 0.0000000e+00 1.2000000e+01 
3.0000000e+00 0.0000000e+00 1.5000000e+01 
3.0000000e+00 0.0000000e+00 1.8000000e+01 
3.5000000e+00 0.0000000e+00 3.0000000e+00 
3.5000000e+00 0.0000000e+00 6.0000000e+00 
3.5000000e+00 0.0000000e+00 9.0000000e+00 
3.5000000e+00 0.0000000e+00 1.2000000e+01 
3.5000000e+00 0.0000000e+00 1.5000000e+01 
3.5000000e+00 0.0000000e+00 1.8000000e+01 
4.0000000e+00 0.0000000e+00 3.0000000e+00 
4.0000000e+00 0.0000000e+00 6.0000000e+00 
4.0000000e+00 0.0000000e+00 9.0000000e+00 
4.0000000e+00 0.0000000e+00 1.2000000e+01 
4.0000000e+00 0.0000000e+00 1.5000000e+01 
4.0000000e+00 0.0000000e+00 1.8000000e+01 
4.5000000e+00 0.0000000e+00 3.0000000e+00 
4.5000000e+00 0.0000000e+00 6.0000000e+00 
4.5000000e+00 0.0000000e+00 9.0000000e+00 
4.5000000e+00 0.0000000e+00 1.2000000e+01 
4.5000000e+00 0.0000000e+00 1.5000000e+01 
4.5000000e+00 0.0000000e+00 1.8000000e+01 
5.0000000e+00 0.0000000e+00 3.0000000e+00 
5.0000000e+00 0.0000000e+00 6.0000000e+00 
5.0000000e+00 0.0000000e+00 9.0000000e+00 
5.0000000e+00 0.0000000e+00 1.2000000e+01 
5.0000000e+00 0.0000000e+00 1.5000000e+01 
5.0000000e+00 0.0000000e+00 1.8000000e+01 
5.5000000e+00 0.0000000e+00 3.0000000e+00 
5.5000000e+00 0.0000000e+00 6.0000000e+00 
5.5000000e+00 0.0000000e+00 9.0000000e+00 
5.5000000e+00 0.0000000e+00 1.2000000e+01 
5.5000000e+00 0.0000000e+00 1.5000000e+01 
5.5000000e+00 0.0000000e+00 1.8000000e+01 
6.0000000e+00 0.0000000e+00 0.0000000e+00 
6.0000000e+00 0.0000000e+00 2.5000000e-01 
6.0000000e+00 0.0000000e+00 5.0000000e-01 
6.0000000e+00 0.0000000e+00 7.5000000e-01 
6.0000000e+00 0.0000000e+00 1.0000000e+00 
6.0000000e+00 0.0000000e+00 1.2500000e+00 
6.0000000e+00 0.0000000e+00 1.5000000e+00 
6.0000000e+00 0.0000000e+00 1.7500000e+00 
6.0000000e+00 0.0000000e+00 2.0000000e+00 
6.0000000e+00 0.0000000e+00 2.2500000e+00 
6.0000000e+00 0.0000000e+00 2.5000000e+00 
6.0000000e+00 0.0000000e+00 2.7500000e+00 
6.0000000e+00 0.0000000e+00 3.0000000e+00 
6.0000000e+00 0.0000000e+00 3.2500000e+00 
6.0000000e+00 0.0000000e+00 3.5000000e+00 
6.0000000e+00 0.0000000e+00 3.7500000e+00 
6.0000000e+00 0.0000000e+00 4.0000000e+00 
6.0000000e+00 0.0000000e+00 4.2500000e+00 
6.0000000e+00 0.0000000e+00 4.5000000e+00 
6.0000000e+00 0.0000000e+00 4.7500000e+00 
6.0000000e+00 0.0000000e+00 5.0000000e+00 
6.0000000e+00 0.0000000e+00 5.2500000e+00 
6.0000000e+00 0.0000000e+00 5.5000000e+00 
6.0000000e+00 0.0000000e+00 5.7500000e+00 
6.0000000e+00 0.0000000e+00 6.0000000e+00 
6.0000000e+00 0.0000000e+00 6.2500000e+00 
6.0000000e+00 0.0000000e+00 6.5000000e+00 
6.0000000e+00 0.0000000e+00 6.7500000e+00 
6.0000000e+00 0.0000000e+00 7.0000000e+00 
6.0000000e+00 0.0000000e+00 7.2500000e+00 
6.0000000e+00 0.0000000e+00 7.5000000e+00 
6.0000000e+00 0.0000000e+00 7.7500000e+00 
6.0000000e+00 0.0000000e+00 8.0000000e+00 
6.0000000e+00 0.0000000e+00 8.2500000e+00 
6.0000000e+00 0.0000000e+00 8.5000000e+00 
6.0000000e+00 0.0000000e+00 8.7500000e+00 
6.0000000e+00 0.0000000e+00 9.0000000e+00 
6.0000000e+00 0.0000000e+00 9.2500000e+00 
6.0000000e+00 0.0000000e+00 9.5000000e+00 
6.0000000e+00 0.0000000e+00 9.7500000e+00 
6.0000000e+00 0.0000000e+00 1.0000000e+01 
6.0000000e+00 0.0000000e+00 1.0250000e+01 
6.0000000e+00 0.0000000e+00 1.0500000e+01 
6.0000000e+00 0.0000000e+00 1.0750000e+01 
6.0000000e+00 0.0000000e+00 1.1000000e+01 
6.0000000e+00 0.0000000e+00 1.1250000e+01 
6.0000000e+00 0.0000000e+00 1.1500000e+01 
6.0000000e+00 0.0000000e+00 1.1750000e+01 
6.0000000e+00 0.0000000e+00 1.2000000e+01 
6.0000000e+00 0.0000000e+00 1.2250000e+01 
6.0000000e+00 0.0000000e+00 1.2500000e+01 
6.0000000e+00 0.0000000e+00 1.2750000e+01 
6.0000000e+00 0.0000000e+00 1.3000000e+01 
6.0000000e+00 0.0000000e+00 1.3250000e+01 
6.0000000e+00 0.0000000e+00 1.3500000e+01 
6.0000000e+00 0.0000000e+00 1.3750000e+01 
6.0000000e+00 0.0000000e+00 1.4000000e+01 
6.0000000e+00 0.0000000e+00 1.4250000e+01 
6.0000000e+00 0.0000000e+00 1.4500000e+01 
6.0000000e+00 0.0000000e+00 1.4750000e+01 
6.0000000e+00 0.0000000e+00 1.5000000e+01 
6.0000000e+00 0.0000000e+00 1.5250000e+01 
6.0000000e+00 0.0000000e+00 1.5500000e+01 
6.0000000e+00 0.0000000e+00 1.5750000e+01 
6.0000000e+00 0.0000000e+00 1.6000000e+01 
6.0000000e+00 0.0000000e+00 1.6250000e+01 
6.0000000e+00 0.0000000e+00 1.6500000e+01 
6.0000000e+00 0.0000000e+00 1.6750000e+01 
6.0000000e+00 0.0000000e+00 1.7000000e+01 
6.0000000e+00 0.0000000e+00 1.7250000e+01 
6.0000000e+00 0.0000000e+00 1.7500000e+01 
6.0000000e+00 0.0000000e+00 1.7750000e+01 
6.0000000e+00 0.0000000e+00 1.8000000e+01 

CELLS 216 648
2 0 1
2 1 2
2 2 3
2 3 4
2 4 5
2 5 6
2 6 7
2 7 8
2 8 9
2 9 10
2 10 11
2 11 12
2 12 13
2 13 14
2 14 15
2 15 16
2 16 17
2 17 18
2 18 19
2 19 20
2 20 21
2 21 22
2 22 23
2 23 24
2 24 25
2 25 26
2 26 27
2 27 28
2 28 29
2 29 30
2 30 31
2 31 32
2 32 33
2 33 34
2 34 35
2 35 36
2 36 37
2 37 38
2 38 39
2 39 40
2 40 41
2 41 42
2 42 43
2 43 44
2 44 45
2 45 46
2 46 47
2 47 48
2 48 49
2 49 50
2 50 51
2 51 52
2 52 53
2 53 54
2 54 55
2 55 56
2 56 57
2 57 58
2 58 59
2 59 60
2 60 61
2 61 62
2 62 63
2 63 64
2 64 65
2 65 66
2 66 67
2 67 68
2 68 69
2 69 70
2 70 71
2 71 72
2 139 140
2 140 141
2 141 142
2 142 143
2 143 144
2 144 145
2 145 146
2 146 147
2 147 148
2 148 149
2 149 150
2 150 151
2 151 152
2 152 153
2 153 154
2 154 155
2 155 156
2 156 157
2 157 158
2 158 159
2 159 160
2 160 161
2 161 162
2 162 163
2 163 164
2 164 165
2 165 166
2 166 167
2 167 168
2 168 169
2 169 170
2 170 171
2 171 172
2 172 173
2 173 174
2 174 175
2 175 176
2 176 177
2 177 178
2 178 179
2 179 180
2 180 181
2 181 182
2 182 183
2 183 184
2 184 185
2 185 186
2 186 187
2 187 188
2 188 189
2 189 190
2 190 191
2 191 192
2 192 193
2 193 194
2 194 195
2 195 196
2 196 197
2 197 198
2 198 199
2 199 200
2 200 201
2 201 202
2 202 203
2 203 204
2 204 205
2 205 206
2 206 207
2 207 208
2 208 209
2 209 210
2 210 211
2 12 73
2 73 79
2 79 85
2 85 91
2 91 97
2 97 103
2 103 109
2 109 115
2 115 121
2 121 127
2 127 133
2 133 151
2 24 74
2 74 80
2 80 86
2 86 92
2 92 98
2 98 104
2 104 110
2 110 116
2 116 122
2 122 128
2 128 134
2 134 163
2 36 75
2 75 81
2 81 87
2 87 93
2 93 99
2 99 105
2 105 111
2 111 117
2 117 123
2 123 129
2 129 135
2 135 175
2 48 76
2 76 82
2 82 88
2 88 94
2 94 100
2 100 106
2 106 112
2 112 118
2 118 124
2 124 130
2 130 136
2 136 187
2 60 77
2 77 83
2 83 89
2 89 95
2 95 101
2 101 107
2 107 113
2 113 119
2 119 125
2 125 131
2 131 137
2 137 199
2 72 78
2 78 84
2 84 90
2 90 96
2 96 102
2 102 108
2 108 114
2 114 120
2 120 126
2 126 132
2 132 138
2 138 211

CELL_TYPES 216
3
3
3
3
3
3
3
3
3
3
3
3
3
3
3
3
3
3
3
3
3
3
3
3
3
3
3
3
3
3
3
3
3
3
3
3
3
3
3
3
3
3
3
3
3
3
3
3
3
3
3
3
3
3
3
3
3
3
3
3
3
3
3
3
3
3
3
3
3
3
3
3
3
3
3
3
3
3
3
3
3
3
3
3
3
3
3
3
3
3
3
3
3
3
3
3
3
3
3
3
3
3
3
3
3
3
3
3
3
3
3
3
3
3
3
3
3
3
3
3
3
3
3
3
3
3
3
3
3
3
3
3
3
3
3
3
3
3
3
3
3
3
3
3
3
3
3
3
3
3
3
3
3
3
3
3
3
3
3
3
3
3
3
3
3
3
3
3
3
3
3
3
3
3
3
3
3
3
3
3
3
3
3
3
3
3
3
3
3
3
3
3
3
3
3
3
3
3
3
3
3
3
3
3
3
3
3
3
3
3
3
3
3
3
3
3
POINT_DATA 212
FIELD FieldData 8
DISPLACEMENT 3 212  float
0.0000000e+00 0.0000000e+00 0.0000000e+00 
-8.9258756e-06 0.0000000e+00 -6.1959904e-06 
-1.7482575e-05 0.0000000e+00 -1.2349037e-05 
-2.5300918e-05 0.0000000e+00 -1.8459141e-05 
-3.2011732e-05 0.0000000e+00 -2.4526300e-05 
-3.7245834e-05 0.0000000e+00 -3.0550516e-05 
-4.0634051e-05 0.0000000e+00 -3.6531786e-05 
-4.1807205e-05 0.0000000e+00 -4.2470114e-05 
-4.0396117e-05 0.0000000e+00 -4.8365499e-05 
-3.6031612e-05 0.0000000e+00 -5.4217937e-05 
-2.8344513e-05 0.0000000e+00 -6.0027436e-05 
-1.6965640e-05 0.0000000e+00 -6.5793989e-05 
-1.5258163e-06 0.0000000e+00 -7.1517599e-05 
1.2416178e-05 0.0000000e+00 -7.6677345e-05 
1.9854822e-05 0.0000000e+00 -8.1794147e-05 
2.1989184e-05 0.0000000e+00 -8.6868007e-05 
2.0018329e-05 0.0000000e+00 -9.1898917e-05 
1.5141322e-05 0.0000000e+00 -9.6886892e-05 
8.5572319e-06 0.0000000e+00 -1.0183192e-04 
1.4651220e-06 0.0000000e+00 -1.0673401e-04 
-4.9359405e-06 0.0000000e+00 -1.1159314e-04 
-9.4468896e-06 0.0000000e+00 -1.1640934e-04 
-1.0868660e-05 0.0000000e+00 -1.2118259e-04 
-8.0021846e-06 0.0000000e+00 -1.2591291e-04 
3.5160198e-07 0.0000000e+00 -1.3060027e-04 
9.0396134e-06 0.0000000e+00 -1.3472377e-04 
1.2781271e-05 0.0000000e+00 -1.3880433e-04 
1.2584405e-05 0.0000000e+00 -1.4284195e-04 
9.4568477e-06 0.0000000e+00 -1.4683661e-04 
4.4064277e-06 0.0000000e+00 -1.5078834e-04 
-1.5590240e-06 0.0000000e+00 -1.5469713e-04 
-7.4316772e-06 0.0000000e+00 -1.5856297e-04 
-1.2203702e-05 0.0000000e+00 -1.6238587e-04 
-1.4867267e-05 0.0000000e+00 -1.6616582e-04 
-1.4414543e-05 0.0000000e+00 -1.6990282e-04 
-9.8376995e-06 0.0000000e+00 -1.7359690e-04 
-1.2890558e-07 0.0000000e+00 -1.7724802e-04 
9.4574725e-06 0.0000000e+00 -1.8033528e-04 
1.3713811e-05 0.0000000e+00 -1.8337958e-04 
1.3718051e-05 0.0000000e+00 -1.8638096e-04 
1.0548134e-05 0.0000000e+00 -1.8933939e-04 
5.2820033e-06 0.0000000e+00 -1.9225487e-04 
-1.0024009e-06 0.0000000e+00 -1.9512742e-04 
-7.2271359e-06 0.0000000e+00 -1.9795701e-04 
-1.2314260e-05 0.0000000e+00 -2.0074366e-04 
-1.5185831e-05 0.0000000e+00 -2.0348738e-04 
-1.4763908e-05 0.0000000e+00 -2.0618814e-04 
-9.9705476e-06 0.0000000e+00 -2.0884596e-04 
2.7219076e-07 0.0000000e+00 -2.1146084e-04 
1.0773529e-05 0.0000000e+00 -2.1351186e-04 
1.6243992e-05 0.0000000e+00 -2.1551992e-04 
1.7613476e-05 0.0000000e+00 -2.1748505e-04 
1.5811880e-05 0.0000000e+00 -2.1940723e-04 
1.1769103e-05 0.0000000e+00 -2.2128648e-04 
6.4150422e-06 0.0000000e+00 -2.2312277e-04 
6.7959411e-07 0.0000000e+00 -2.2491612e-04 
-4.5073425e-06 0.0000000e+00 -2.2666653e-04 
-8.2158704e-06 0.0000000e+00 -2.2837400e-04 
-9.5160913e-06 0.0000000e+00 -2.3003852e-04 
-7.4781069e-06 0.0000000e+00 -2.3166010e-04 
-1.1720206e-06 0.0000000e+00 -2.3323872e-04 
4.0035693e-06 0.0000000e+00 -2.3425350e-04 
3.0750373e-06 0.0000000e+00 -2.3522534e-04 
-2.3902592e-06 0.0000000e+00 -2.3615421e-04 
-1.0824961e-05 0.0000000e+00 -2.3704015e-04 
-2.0661713e-05 0.0000000e+00 -2.3788316e-04 
-3.0333156e-05 0.0000000e+00 -2.3868321e-04 
-3.8271934e-05 0.0000000e+00 -2.3944031e-04 
-4.2910684e-05 0.0000000e+00 -2.4015448e-04 
-4.2682052e-05 0.0000000e+00 -2.4082570e-04 
-3.6018682e-05 0.0000000e+00 -2.4145398e-04 
-2.1353213e-05 0.0000000e+00 -2.4203931e-04 
2.8817112e-06 0.0000000e+00 -2.4258171e-04 
-1.2715135e-06 0.0000000e+00 -1.2662708e-04 
2.9300165e-07 0.0000000e+00 -1.7453334e-04 
-1.0742132e-07 0.0000000e+00 -2.2322265e-04 
2.2682562e-07 0.0000000e+00 -2.5874819e-04 
-9.7668385e-07 0.0000000e+00 -2.7213560e-04 
2.4014262e-06 0.0000000e+00 -3.1959722e-04 
-1.0172108e-06 0.0000000e+00 -2.0571584e-04 
2.3440133e-07 0.0000000e+00 -2.4447776e-04 
-8.5937053e-08 0.0000000e+00 -2.9483743e-04 
1.8146049e-07 0.0000000e+00 -3.3143701e-04 
-7.8134707e-07 0.0000000e+00 -3.3795947e-04 
1.9211409e-06 0.0000000e+00 -4.1660911e-04 
-7.6290814e-07 0.0000000e+00 -2.8838436e-04 
1.7580099e-07 0.0000000e+00 -3.2003401e-04 
-6.4452792e-08 0.0000000e+00 -3.7169288e-04 
1.3609537e-07 0.0000000e+00 -4.0912782e-04 
-5.8601029e-07 0.0000000e+00 -4.1031084e-04 
1.4408556e-06 0.0000000e+00 -5.1321782e-04 
-5.0860541e-07 0.0000000e+00 -3.5876635e-04 
1.1720066e-07 0.0000000e+00 -3.8533582e-04 
-4.2968527e-08 0.0000000e+00 -4.3792266e-04 
9.0730246e-08 0.0000000e+00 -4.7595429e-04 
-3.9067353e-07 0.0000000e+00 -4.7332345e-04 
9.6057045e-07 0.0000000e+00 -5.9355708e-04 
-2.5430271e-07 0.0000000e+00 -4.0552879e-04 
5.8600332e-08 0.0000000e+00 -4.2905012e-04 
-2.1484263e-08 0.0000000e+00 -4.8219378e-04 
4.5365123e-08 0.0000000e+00 -5.2058342e-04 
-1.9533677e-07 0.0000000e+00 -5.1566429e-04 
4.8028522e-07 0.0000000e+00 -6.4629392e-04 
-2.4549365e-16 0.0000000e+00 -4.2187178e-04 
-4.1100876e-16 0.0000000e+00 -4.4437710e-04 
-5.6231780e-16 0.0000000e+00 -4.9770635e-04 
-7.1828193e-16 0.0000000e+00 -5.3621532e-04 
-8.5008004e-16 0.0000000e+00 -5.3053338e-04 
-9.2522859e-16 0.0000000e+00 -6.6462834e-04 
2.5430271e-07 0.0000000e+00 -4.0552879e-04 
-5.8600332e-08 0.0000000e+00 -4.2905012e-04 
2.1484263e-08 0.0000000e+00 -4.8219378e-04 
-4.5365127e-08 0.0000000e+00 -5.2058342e-04 
1.9533677e-07 0.0000000e+00 -5.1566429e-04 
-4.8028522e-07 0.0000000e+00 -6.4629392e-04 
5.0860541e-07 0.0000000e+00 -3.5876635e-04 
-1.1720066e-07 0.0000000e+00 -3.8533582e-04 
4.2968527e-08 0.0000000e+00 -4.3792266e-04 
-9.0730246e-08 0.0000000e+00 -4.7595429e-04 
3.9067353e-07 0.0000000e+00 -4.7332345e-04 
-9.6057045e-07 0.0000000e+00 -5.9355708e-04 
7.6290814e-07 0.0000000e+00 -2.8838436e-04 
-1.7580099e-07 0.0000000e+00 -3.2003401e-04 
6.4452792e-08 0.0000000e+00 -3.7169288e-04 
-1.3609538e-07 0.0000000e+00 -4.0912782e-04 
5.8601029e-07 0.0000000e+00 -4.1031084e-04 
-1.4408556e-06 0.0000000e+00 -5.1321782e-04 
1.0172108e-06 0.0000000e+00 -2.0571584e-04 
-2.3440133e-07 0.0000000e+00 -2.4447776e-04 
8.5937053e-08 0.0000000e+00 -2.9483743e-04 
-1.8146049e-07 0.0000000e+00 -3.3143701e-04 
7.8134707e-07 0.0000000e+00 -3.3795947e-04 
-1.9211409e-06 0.0000000e+00 -4.1660911e-04 
1.2715135e-06 0.0000000e+00 -1.2662708e-04 
-2.9300165e-07 0.0000000e+00 -1.7453334e-04 
1.0742131e-07 0.0000000e+00 -2.2322265e-04 
-2.2682562e-07 0.0000000e+00 -2.5874819e-04 
9.7668385e-07 0.0000000e+00 -2.7213560e-04 
-2.4014262e-06 0.0000000e+00 -3.1959722e-04 
0.0000000e+00 0.0000000e+00 0.0000000e+00 
8.9258756e-06 0.0000000e+00 -6.1959904e-06 
1.7482575e-05 0.0000000e+00 -1.2349037e-05 
2.5300918e-05 0.0000000e+00 -1.8459141e-05 
3.2011732e-05 0.0000000e+00 -2.4526300e-05 
3.7245834e-05 0.0000000e+00 -3.0550516e-05 
4.0634051e-05 0.0000000e+00 -3.6531786e-05 
4.1807205e-05 0.0000000e+00 -4.2470114e-05 
4.0396117e-05 0.0000000e+00 -4.8365499e-05 
3.6031612e-05 0.0000000e+00 -5.4217937e-05 
2.8344513e-05 0.0000000e+00 -6.0027436e-05 
1.6965640e-05 0.0000000e+00 -6.5793989e-05 
1.5258163e-06 0.0000000e+00 -7.1517599e-05 
-1.2416178e-05 0.0000000e+00 -7.6677345e-05 
-1.9854822e-05 0.0000000e+00 -8.1794147e-05 
-2.1989184e-05 0.0000000e+00 -8.6868007e-05 
-2.0018329e-05 0.0000000e+00 -9.1898917e-05 
-1.5141322e-05 0.0000000e+00 -9.6886892e-05 
-8.5572319e-06 0.0000000e+00 -1.0183192e-04 
-1.4651220e-06 0.0000000e+00 -1.0673401e-04 
4.9359405e-06 0.0000000e+00 -1.1159314e-04 
9.4468896e-06 0.0000000e+00 -1.1640934e-04 
1.0868660e-05 0.0000000e+00 -1.2118259e-04 
8.0021846e-06 0.0000000e+00 -1.2591291e-04 
-3.5160198e-07 0.0000000e+00 -1.3060027e-04 
-9.0396134e-06 0.0000000e+00 -1.3472377e-04 
-1.2781271e-05 0.0000000e+00 -1.3880433e-04 
-1.2584405e-05 0.0000000e+00 -1.4284195e-04 
-9.4568477e-06 0.0000000e+00 -1.4683661e-04 
-4.4064277e-06 0.0000000e+00 -1.5078834e-04 
1.5590240e-06 0.0000000e+00 -1.5469713e-04 
7.4316772e-06 0.0000000e+00 -1.5856297e-04 
1.2203702e-05 0.0000000e+00 -1.6238587e-04 
1.4867267e-05 0.0000000e+00 -1.6616582e-04 
1.4414543e-05 0.0000000e+00 -1.6990282e-04 
9.8376995e-06 0.0000000e+00 -1.7359690e-04 
1.2890558e-07 0.0000000e+00 -1.7724802e-04 
-9.4574725e-06 0.0000000e+00 -1.8033528e-04 
-1.3713811e-05 0.0000000e+00 -1.8337958e-04 
-1.3718051e-05 0.0000000e+00 -1.8638096e-04 
-1.0548134e-05 0.0000000e+00 -1.8933939e-04 
-5.2820033e-06 0.0000000e+00 -1.9225487e-04 
1.0024009e-06 0.0000000e+00 -1.9512742e-04 
7.2271359e-06 0.0000000e+00 -1.9795701e-04 
1.2314260e-05 0.0000000e+00 -2.0074366e-04 
1.5185831e-05 0.0000000e+00 -2.0348738e-04 
1.4763908e-05 0.0000000e+00 -2.0618814e-04 
9.9705476e-06 0.0000000e+00 -2.0884596e-04 
-2.7219076e-07 0.0000000e+00 -2.1146084e-04 
-1.0773529e-05 0.0000000e+00 -2.1351186e-04 
-1.6243992e-05 0.0000000e+00 -2.1551992e-04 
-1.7613476e-05 0.0000000e+00 -2.1748505e-04 
-1.5811880e-05 0.0000000e+00 -2.1940723e-04 
-1.1769103e-05 0.0000000e+00 -2.2128648e-04 
-6.4150422e-06 0.0000000e+00 -2.2312277e-04 
-6.7959411e-07 0.0000000e+00 -2.2491612e-04 
4.5073425e-06 0.0000000e+00 -2.2666653e-04 
8.2158704e-06 0.0000000e+00 -2.2837400e-04 
9.5160913e-06 0.0000000e+00 -2.3003852e-04 
7.4781069e-06 0.0000000e+00 -2.3166010e-04 
1.1720206e-06 0.0000000e+00 -2.3323872e-04 
-4.0035693e-06 0.0000000e+00 -2.3425350e-04 
-3.0750373e-06 0.0000000e+00 -2.3522534e-04 
2.3902592e-06 0.0000000e+00 -2.3615421e-04 
1.0824961e-05 0.0000000e+00 -2.3704015e-04 
2.0661713e-05 0.0000000e+00 -2.3788316e-04 
3.0333156e-05 0.0000000e+00 -2.3868321e-04 
3.8271934e-05 0.0000000e+00 -2.3944031e-04 
4.2910684e-05 0.0000000e+00 -2.4015448e-04 
4.2682052e-05 0.0000000e+00 -2.4082570e-04 
3.6018682e-05 0.0000000e+00 -2.4145398e-04 
2.1353213e-05 0.0000000e+00 -2.4203931e-04 
-2.8817112e-06 0.0000000e+00 -2.4258171e-04 
ROTATION 3 212  float
0.0000000e+00 -3.5949623e-05 0.0000000e+00 
0.0000000e+00 -3.5211269e-05 0.0000000e+00 
0.0000000e+00 -3.2996206e-05 0.0000000e+00 
0.0000000e+00 -2.9304432e-05 0.0000000e+00 
0.0000000e+00 -2.4135950e-05 0.0000000e+00 
0.0000000e+00 -1.7490760e-05 0.0000000e+00 
0.0000000e+00 -9.3688595e-06 0.0000000e+00 
0.0000000e+00 2.2974911e-07 0.0000000e+00 
0.0000000e+00 1.1305066e-05 0.0000000e+00 
0.0000000e+00 2.3857094e-05 0.0000000e+00 
0.0000000e+00 3.7885828e-05 0.0000000e+00 
0.0000000e+00 5.3391275e-05 0.0000000e+00 
0.0000000e+00 7.0373426e-05 0.0000000e+00 
0.0000000e+00 4.1961899e-05 0.0000000e+00 
0.0000000e+00 1.8346636e-05 0.0000000e+00 
0.0000000e+00 -4.7236423e-07 0.0000000e+00 
0.0000000e+00 -1.4495100e-05 0.0000000e+00 
0.0000000e+00 -2.3721572e-05 0.0000000e+00 
0.0000000e+00 -2.8151779e-05 0.0000000e+00 
0.0000000e+00 -2.7785722e-05 0.0000000e+00 
0.0000000e+00 -2.2623401e-05 0.0000000e+00 
0.0000000e+00 -1.2664816e-05 0.0000000e+00 
0.0000000e+00 2.0900331e-06 0.0000000e+00 
0.0000000e+00 2.1641146e-05 0.0000000e+00 
0.0000000e+00 4.5988523e-05 0.0000000e+00 
0.0000000e+00 2.4187451e-05 0.0000000e+00 
0.0000000e+00 6.4176984e-06 0.0000000e+00 
0.0000000e+00 -7.3207325e-06 0.0000000e+00 
0.0000000e+00 -1.7027842e-05 0.0000000e+00 
0.0000000e+00 -2.2703631e-05 0.0000000e+00 
0.0000000e+00 -2.4348097e-05 0.0000000e+00 
0.0000000e+00 -2.1961243e-05 0.0000000e+00 
0.0000000e+00 -1.5543066e-05 0.0000000e+00 
0.0000000e+00 -5.0935696e-06 0.0000000e+00 
0.0000000e+00 9.3872486e-06 0.0000000e+00 
0.0000000e+00 2.7899388e-05 0.0000000e+00 
0.0000000e+00 5.0442850e-05 0.0000000e+00 
0.0000000e+00 2.6966805e-05 0.0000000e+00 
0.0000000e+00 7.8025287e-06 0.0000000e+00 
0.0000000e+00 -7.0499814e-06 0.0000000e+00 
0.0000000e+00 -1.7590724e-05 0.0000000e+00 
0.0000000e+00 -2.3819699e-05 0.0000000e+00 
0.0000000e+00 -2.5736907e-05 0.0000000e+00 
0.0000000e+00 -2.3342345e-05 0.0000000e+00 
0.0000000e+00 -1.6636019e-05 0.0000000e+00 
0.0000000e+00 -5.6179233e-06 0.0000000e+00 
0.0000000e+00 9.7119391e-06 0.0000000e+00 
0.0000000e+00 2.9353569e-05 0.0000000e+00 
0.0000000e+00 5.3306965e-05 0.0000000e+00 
0.0000000e+00 3.1323671e-05 0.0000000e+00 
0.0000000e+00 1.3059963e-05 0.0000000e+00 
0.0000000e+00 -1.4841526e-06 0.0000000e+00 
0.0000000e+00 -1.2308677e-05 0.0000000e+00 
0.0000000e+00 -1.9413608e-05 0.0000000e+00 
0.0000000e+00 -2.2798951e-05 0.0000000e+00 
0.0000000e+00 -2.2464701e-05 0.0000000e+00 
0.0000000e+00 -1.8410861e-05 0.0000000e+00 
0.0000000e+00 -1.0637428e-05 0.0000000e+00 
0.0000000e+00 8.5559452e-07 0.0000000e+00 
0.0000000e+00 1.6068208e-05 0.0000000e+00 
0.0000000e+00 3.5000416e-05 0.0000000e+00 
0.0000000e+00 7.4492104e-06 0.0000000e+00 
0.0000000e+00 -1.3832562e-05 0.0000000e+00 
0.0000000e+00 -2.8844903e-05 0.0000000e+00 
0.0000000e+00 -3.7587815e-05 0.0000000e+00 
0.0000000e+00 -4.0061292e-05 0.0000000e+00 
0.0000000e+00 -3.6265341e-05 0.0000000e+00 
0.0000000e+00 -2.6199959e-05 0.0000000e+00 
0.0000000e+00 -9.8651462e-06 0.0000000e+00 
0.0000000e+00 1.2739099e-05 0.0000000e+00 
0.0000000e+00 4.1612773e-05 0.0000000e+00 
0.0000000e+00 7.6755881e-05 0.0000000e+00 
0.0000000e+00 1.1816842e-04 0.0000000e+00 
0.0000000e+00 1.4175361e-04 0.0000000e+00 
0.0000000e+00 1.2143286e-04 0.0000000e+00 
0.0000000e+00 1.2514480e-04 0.0000000e+00 
0.0000000e+00 1.2753156e-04 0.0000000e+00 
0.0000000e+00 1.1227610e-04 0.0000000e+00 
0.0000000e+00 1.8158277e-04 0.0000000e+00 
0.0000000e+00 1.6780157e-04 0.0000000e+00 
0.0000000e+00 1.5154497e-04 0.0000000e+00 
0.0000000e+00 1.5451452e-04 0.0000000e+00 
0.0000000e+00 1.5642392e-04 0.0000000e+00 
0.0000000e+00 1.4421956e-04 0.0000000e+00 
0.0000000e+00 1.9966489e-04 0.0000000e+00 
0.0000000e+00 1.5758374e-04 0.0000000e+00 
0.0000000e+00 1.4539128e-04 0.0000000e+00 
0.0000000e+00 1.4761844e-04 0.0000000e+00 
0.0000000e+00 1.4905051e-04 0.0000000e+00 
0.0000000e+00 1.3989722e-04 0.0000000e+00 
0.0000000e+00 1.8148123e-04 0.0000000e+00 
0.0000000e+00 1.2016657e-04 0.0000000e+00 
0.0000000e+00 1.1203827e-04 0.0000000e+00 
0.0000000e+00 1.1352304e-04 0.0000000e+00 
0.0000000e+00 1.1447775e-04 0.0000000e+00 
0.0000000e+00 1.0837556e-04 0.0000000e+00 
0.0000000e+00 1.3609823e-04 0.0000000e+00 
0.0000000e+00 6.4616506e-05 0.0000000e+00 
0.0000000e+00 6.0552356e-05 0.0000000e+00 
0.0000000e+00 6.1294741e-05 0.0000000e+00 
0.0000000e+00 6.1772094e-05 0.0000000e+00 
0.0000000e+00 5.8721005e-05 0.0000000e+00 
0.0000000e+00 7.2582341e-05 0.0000000e+00 
0.0000000e+00 2.9038867e-17 0.0000000e+00 
0.0000000e+00 1.4628601e-17 0.0000000e+00 
0.0000000e+00 1.5283613e-17 0.0000000e+00 
0.0000000e+00 1.9650360e-17 0.0000000e+00 
0.0000000e+00 2.6200481e-18 0.0000000e+00 
0.0000000e+00 -4.0698829e-18 0.0000000e+00 
0.0000000e+00 -6.4616506e-05 0.0000000e+00 
0.0000000e+00 -6.0552356e-05 0.0000000e+00 
0.0000000e+00 -6.1294741e-05 0.0000000e+00 
0.0000000e+00 -6.1772094e-05 0.0000000e+00 
0.0000000e+00 -5.8721005e-05 0.0000000e+00 
0.0000000e+00 -7.2582341e-05 0.0000000e+00 
0.0000000e+00 -1.2016657e-04 0.0000000e+00 
0.0000000e+00 -1.1203827e-04 0.0000000e+00 
0.0000000e+00 -1.1352304e-04 0.0000000e+00 
0.0000000e+00 -1.1447775e-04 0.0000000e+00 
0.0000000e+00 -1.0837556e-04 0.0000000e+00 
0.0000000e+00 -1.3609823e-04 0.0000000e+00 
0.0000000e+00 -1.5758374e-04 0.0000000e+00 
0.0000000e+00 -1.4539128e-04 0.0000000e+00 
0.0000000e+00 -1.4761844e-04 0.0000000e+00 
0.0000000e+00 -1.4905051e-04 0.0000000e+00 
0.0000000e+00 -1.3989722e-04 0.0000000e+00 
0.0000000e+00 -1.8148123e-04 0.0000000e+00 
0.0000000e+00 -1.6780157e-04 0.0000000e+00 
0.0000000e+00 -1.5154497e-04 0.0000000e+00 
0.0000000e+00 -1.5451452e-04 0.0000000e+00 
0.0000000e+00 -1.5642392e-04 0.0000000e+00 
0.0000000e+00 -1.4421956e-04 0.0000000e+00 
0.0000000e+00 -1.9966489e-04 0.0000000e+00 
0.0000000e+00 -1.4175361e-04 0.0000000e+00 
0.0000000e+00 -1.2143286e-04 0.0000000e+00 
0.0000000e+00 -1.2514480e-04 0.0000000e+00 
0.0000000e+00 -1.2753156e-04 0.0000000e+00 
0.0000000e+00 -1.1227610e-04 0.0000000e+00 
0.0000000e+00 -1.8158277e-04 0.0000000e+00 
0.0000000e+00 3.5949623e-05 0.0000000e+00 
0.0000000e+00 3.5211269e-05 0.0000000e+00 
0.0000000e+00 3.2996206e-05 0.0000000e+00 
0.0000000e+00 2.9304432e-05 0.0000000e+00 
0.0000000e+00 2.4135950e-05 0.0000000e+00 
0.0000000e+00 1.7490760e-05 0.0000000e+00 
0.0000000e+00 9.3688595e-06 0.0000000e+00 
0.0000000e+00 -2.2974911e-07 0.0000000e+00 
0.0000000e+00 -1.1305066e-05 0.0000000e+00 
0.0000000e+00 -2.3857094e-05 0.0000000e+00 
0.0000000e+00 -3.7885828e-05 0.0000000e+00 
0.0000000e+00 -5.3391275e-05 0.0000000e+00 
0.0000000e+00 -7.0373426e-05 0.0000000e+00 
0.0000000e+00 -4.1961899e-05 0.0000000e+00 
0.0000000e+00 -1.8346636e-05 0.0000000e+00 
0.0000000e+00 4.7236423e-07 0.0000000e+00 
0.0000000e+00 1.4495100e-05 0.0000000e+00 
0.0000000e+00 2.3721572e-05 0.0000000e+00 
0.0000000e+00 2.8151779e-05 0.0000000e+00 
0.0000000e+00 2.7785722e-05 0.0000000e+00 
0.0000000e+00 2.2623401e-05 0.0000000e+00 
0.0000000e+00 1.2664816e-05 0.0000000e+00 
0.0000000e+00 -2.0900331e-06 0.0000000e+00 
0.0000000e+00 -2.1641146e-05 0.0000000e+00 
0.0000000e+00 -4.5988523e-05 0.0000000e+00 
0.0000000e+00 -2.4187451e-05 0.0000000e+00 
0.0000000e+00 -6.4176984e-06 0.0000000e+00 
0.0000000e+00 7.3207325e-06 0.0000000e+00 
0.0000000e+00 1.7027842e-05 0.0000000e+00 
0.0000000e+00 2.2703631e-05 0.0000000e+00 
0.0000000e+00 2.4348097e-05 0.0000000e+00 
0.0000000e+00 2.1961243e-05 0.0000000e+00 
0.0000000e+00 1.5543066e-05 0.0000000e+00 
0.0000000e+00 5.0935696e-06 0.0000000e+00 
0.0000000e+00 -9.3872486e-06 0.0000000e+00 
0.0000000e+00 -2.7899388e-05 0.0000000e+00 
0.0000000e+00 -5.0442850e-05 0.0000000e+00 
0.0000000e+00 -2.6966805e-05 0.0000000e+00 
0.0000000e+00 -7.8025287e-06 0.0000000e+00 
0.0000000e+00 7.0499814e-06 0.0000000e+00 
0.0000000e+00 1.7590724e-05 0.0000000e+00 
0.0000000e+00 2.3819699e-05 0.0000000e+00 
0.0000000e+00 2.5736907e-05 0.0000000e+00 
0.0000000e+00 2.3342345e-05 0.0000000e+00 
0.0000000e+00 1.6636019e-05 0.0000000e+00 
0.0000000e+00 5.6179233e-06 0.0000000e+00 
0.0000000e+00 -9.7119391e-06 0.0000000e+00 
0.0000000e+00 -2.9353569e-05 0.0000000e+00 
0.0000000e+00 -5.3306965e-05 0.0000000e+00 
0.0000000e+00 -3.1323671e-05 0.0000000e+00 
0.0000000e+00 -1.3059963e-05 0.0000000e+00 
0.0000000e+00 1.4841526e-06 0.0000000e+00 
0.0000000e+00 1.2308677e-05 0.0000000e+00 
0.0000000e+00 1.9413608e-05 0.0000000e+00 
0.0000000e+00 2.2798951e-05 0.0000000e+00 
0.0000000e+00 2.2464701e-05 0.0000000e+00 
0.0000000e+00 1.8410861e-05 0.0000000e+00 
0.0000000e+00 1.0637428e-05 0.0000000e+00 
0.0000000e+00 -8.5559452e-07 0.0000000e+00 
0.0000000e+00 -1.6068208e-05 0.0000000e+00 
0.0000000e+00 -3.5000416e-05 0.0000000e+00 
0.0000000e+00 -7.4492104e-06 0.0000000e+00 
0.0000000e+00 1.3832562e-05 0.0000000e+00 
0.0000000e+00 2.8844903e-05 0.0000000e+00 
0.0000000e+00 3.7587815e-05 0.0000000e+00 