# vtk DataFile Version 4.0
vtk output
ASCII
DATASET UNSTRUCTURED_GRID
POINTS 212 float
0.0000000e+00 0.0000000e+00 0.0000000e+00 
0.0000000e+00 0.0000000e+00 2.5000000e-01 
0.0000000e+00 0.0000000e+00 5.0000000e-01 
0.0000000e+00 0.0000000e+00 7.5000000e-01 
0.0000000e+00 0.0000000e+00 1.0000000e+00 
0.0000000e+00 0.0000000e+00 1.2500000e+00 
0.0000000e+00 0.0000000e+00 1.5000000e+00 
0.0000000e+00 0.0000000e+00 1.7500000e+00 
0.0000000e+00 0.0000000e+00 2.0000000e+00 
0.0000000e+00 0.0000000e+00 2.2500000e+00 
0.0000000e+00 0.0000000e+00 2.5000000e+00 
0.0000000e+00 0.0000000e+00 2.7500000e+00 
0.0000000e+00 0.0000000e+00 3.0000000e+00 
0.0000000e+00 0.0000000e+00 3.2500000e+00 
0.0000000e+00 0.0000000e+00 3.5000000e+00 
0.0000000e+00 0.0000000e+00 3.7500000e+00 
0.0000000e+00 0.0000000e+00 4.0000000e+00 
0.0000000e+00 0.0000000e+00 4.2500000e+00 
0.0000000e+00 0.0000000e+00 4.5000000e+00 
0.0000000e+00 0.0000000e+00 4.7500000e+00 
0.0000000e+00 0.0000000e+00 5.0000000e+00 
0.0000000e+00 0.0000000e+00 5.2500000e+00 
0.0000000e+00 0.0000000e+00 5.5000000e+00 
0.0000000e+00 0.0000000e+00 5.7500000e+00 
0.0000000e+00 0.0000000e+00 6.0000000e+00 
0.0000000e+00 0.0000000e+00 6.2500000e+00 
0.0000000e+00 0.0000000e+00 6.5000000e+00 
0.0000000e+00 0.0000000e+00 6.7500000e+00 
0.0000000e+00 0.0000000e+00 7.0000000e+00 
0.0000000e+00 0.0000000e+00 7.2500000e+00 
0.0000000e+00 0.0000000e+00 7.5000000e+00 
0.0000000e+00 0.0000000e+00 7.7500000e+00 
0.0000000e+00 0.0000000e+00 8.0000000e+00 
0.0000000e+00 0.0000000e+00 8.2500000e+00 
0.0000000e+00 0.0000000e+00 8.5000000e+00 
0.0000000e+00 0.0000000e+00 8.7500000e+00 
0.0000000e+00 0.0000000e+00 9.0000000e+00 
0.0000000e+00 0.0000000e+00 9.2500000e+00 
0.0000000e+00 0.0000000e+00 9.5000000e+00 
0.0000000e+00 0.0000000e+00 9.7500000e+00 
0.0000000e+00 0.0000000e+00 1.0000000e+01 
0.0000000e+00 0.0000000e+00 1.0250000e+01 
0.0000000e+00 0.0000000e+00 1.0500000e+01 
0.0000000e+00 0.0000000e+00 1.0750000e+01 
0.0000000e+00 0.0000000e+00 1.1000000e+01 
0.0000000e+00 0.0000000e+00 1.1250000e+01 
0.0000000e+00 0.0000000e+00 1.1500000e+01 
0.0000000e+00 0.0000000e+00 1.1750000e+01 
0.0000000e+00 0.0000000e+00 1.2000000e+01 
0.0000000e+00 0.0000000e+00 1.2250000e+01 
0.0000000e+00 0.0000000e+00 1.2500000e+01 
0.0000000e+00 0.0000000e+00 1.2750000e+01 
0.0000000e+00 0.0000000e+00 1.3000000e+01 
0.0000000e+00 0.0000000e+00 1.3250000e+01 
0.0000000e+00 0.0000000e+00 1.3500000e+01 
0.0000000e+00 0.0000000e+00 1.3750000e+01 
0.0000000e+00 0.0000000e+00 1.4000000e+01 
0.0000000e+00 0.0000000e+00 1.4250000e+01 
0.0000000e+00 0.0000000e+00 1.4500000e+01 
0.0000000e+00 0.0000000e+00 1.4750000e+01 
0.0000000e+00 0.0000000e+00 1.5000000e+01 
0.0000000e+00 0.0000000e+00 1.5250000e+01 
0.0000000e+00 0.0000000e+00 1.5500000e+01 
0.0000000e+00 0.0000000e+00 1.5750000e+01 
0.0000000e+00 0.0000000e+00 1.6000000e+01 
0.0000000e+00 0.0000000e+00 1.6250000e+01 
0.0000000e+00 0.0000000e+00 1.6500000e+01 
0.0000000e+00 0.0000000e+00 1.6750000e+01 
0.0000000e+00 0.0000000e+00 1.7000000e+01 
0.0000000e+00 0.0000000e+00 1.7250000e+01 
0.0000000e+00 0.0000000e+00 1.7500000e+01 
0.0000000e+00 0.0000000e+00 1.7750000e+01 
0.0000000e+00 0.0000000e+00 1.8000000e+01 
5.0000000e-01 0.0000000e+00 3.0000000e+00 
5.0000000e-01 0.0000000e+00 6.0000000e+00 
5.0000000e-01 0.0000000e+00 9.0000000e+00 
5.0000000e-01 0.0000000e+00 1.2000000e+01 
5.0000000e-01 0.0000000e+00 1.5000000e+01 
5.0000000e-01 0.0000000e+00 1.8000000e+01 
1.0000000e+00 0.0000000e+00 3.0000000e+00 
1.0000000e+00 0.0000000e+00 6.0000000e+00 
1.0000000e+00 0.0000000e+00 9.0000000e+00 
1.0000000e+00 0.0000000e+00 1.2000000e+01 
1.0000000e+00 0.0000000e+00 1.5000000e+01 
1.0000000e+00 0.0000000e+00 1.8000000e+01 
1.5000000e+00 0.0000000e+00 3.0000000e+00 
1.5000000e+00 0.0000000e+00 6.0000000e+00 
1.5000000e+00 0.0000000e+00 9.0000000e+00 
1.5000000e+00 0.0000000e+00 1.2000000e+01 
1.5000000e+00 0.0000000e+00 1.5000000e+01 
1.5000000e+00 0.0000000e+00 1.8000000e+01 
2.0000000e+00 0.0000000e+00 3.0000000e+00 
2.0000000e+00 0.0000000e+00 6.0000000e+00 
2.0000000e+00 0.0000000e+00 9.0000000e+00 
2.0000000e+00 0.0000000e+00 1.2000000e+01 
2.0000000e+00 0.0000000e+00 1.5000000e+01 
2.0000000e+00 0.0000000e+00 1.8000000e+01 
2.5000000e+00 0.0000000e+00 3.0000000e+00 
2.5000000e+00 0.0000000e+00 6.0000000e+00 
2.5000000e+00 0.0000000e+00 9.0000000e+00 
2.5000000e+00 0.0000000e+00 1.2000000e+01 
2.5000000e+00 0.0000000e+00 1.5000000e+01 
2.5000000e+00 0.0000000e+00 1.8000000e+01 
3.0000000e+00 0.0000000e+00 3.0000000e+00 
3.0000000e+00 0.0000000e+00 6.0000000e+00 
3.0000000e+00 0.0000000e+00 9.0000000e+00 
3.0000000e+00 0.0000000e+00 1.2000000e+01 
3.0000000e+00 0.0000000e+00 1.5000000e+01 
3.0000000e+00 0.0000000e+00 1.8000000e+01 
3.5000000e+00 0.0000000e+00 3.0000000e+00 
3.5000000e+00 0.0000000e+00 6.0000000e+00 
3.5000000e+00 0.0000000e+00 9.0000000e+00 
3.5000000e+00 0.0000000e+00 1.2000000e+01 
3.5000000e+00 0.0000000e+00 1.5000000e+01 
3.5000000e+00 0.0000000e+00 1.8000000e+01 
4.0000000e+00 0.0000000e+00 3.0000000e+00 
4.0000000e+00 0.0000000e+00 6.0000000e+00 
4.0000000e+00 0.0000000e+00 9.0000000e+00 
4.0000000e+00 0.0000000e+00 1.2000000e+01 
4.0000000e+00 0.0000000e+00 1.5000000e+01 
4.0000000e+00 0.0000000e+00 1.8000000e+01 
4.5000000e+00 0.0000000e+00 3.0000000e+00 
4.5000000e+00 0.0000000e+00 6.0000000e+00 
4.5000000e+00 0.0000000e+00 9.0000000e+00 
4.5000000e+00 0.0000000e+00 1.2000000e+01 
4.5000000e+00 0.0000000e+00 1.5000000e+01 
4.5000000e+00 0.0000000e+00 1.8000000e+01 
5.0000000e+00 0.0000000e+00 3.0000000e+00 
5.0000000e+00 0.0000000e+00 6.0000000e+00 
5.0000000e+00 0.0000000e+00 9.0000000e+00 
5.0000000e+00 0.0000000e+00 1.2000000e+01 
5.0000000e+00 0.0000000e+00 1.5000000e+01 
5.0000000e+00 0.0000000e+00 1.8000000e+01 
5.5000000e+00 0.0000000e+00 3.0000000e+00 
5.5000000e+00 0.0000000e+00 6.0000000e+00 
5.5000000e+00 0.0000000e+00 9.0000000e+00 
5.5000000e+00 0.0000000e+00 1.2000000e+01 
5.5000000e+00 0.0000000e+00 1.5000000e+01 
5.5000000e+00 0.0000000e+00 1.8000000e+01 
6.0000000e+00 0.0000000e+00 0.0000000e+00 
6.0000000e+00 0.0000000e+00 2.5000000e-01 
6.0000000e+00 0.0000000e+00 5.0000000e-01 
6.0000000e+00 0.0000000e+00 7.5000000e-01 
6.0000000e+00 0.0000000e+00 1.0000000e+00 
6.0000000e+00 0.0000000e+00 1.2500000e+00 
6.0000000e+00 0.0000000e+00 1.5000000e+00 
6.0000000e+00 0.0000000e+00 1.7500000e+00 
6.0000000e+00 0.0000000e+00 2.0000000e+00 
6.0000000e+00 0.0000000e+00 2.2500000e+00 
6.0000000e+00 0.0000000e+00 2.5000000e+00 
6.0000000e+00 0.0000000e+00 2.7500000e+00 
6.0000000e+00 0.0000000e+00 3.0000000e+00 
6.0000000e+00 0.0000000e+00 3.2500000e+00 
6.0000000e+00 0.0000000e+00 3.5000000e+00 
6.0000000e+00 0.0000000e+00 3.7500000e+00 
6.0000000e+00 0.0000000e+00 4.0000000e+00 
6.0000000e+00 0.0000000e+00 4.2500000e+00 
6.0000000e+00 0.0000000e+00 4.5000000e+00 
6.0000000e+00 0.0000000e+00 4.7500000e+00 
6.0000000e+00 0.0000000e+00 5.0000000e+00 
6.0000000e+00 0.0000000e+00 5.2500000e+00 
6.0000000e+00 0.0000000e+00 5.5000000e+00 
6.0000000e+00 0.0000000e+00 5.7500000e+00 
6.0000000e+00 0.0000000e+00 6.0000000e+00 
6.0000000e+00 0.0000000e+00 6.2500000e+00 
6.0000000e+00 0.0000000e+00 6.5000000e+00 
6.0000000e+00 0.0000000e+00 6.7500000e+00 
6.0000000e+00 0.0000000e+00 7.0000000e+00 
6.0000000e+00 0.0000000e+00 7.2500000e+00 
6.0000000e+00 0.0000000e+00 7.5000000e+00 
6.0000000e+00 0.0000000e+00 7.7500000e+00 
6.0000000e+00 0.0000000e+00 8.0000000e+00 
6.0000000e+00 0.0000000e+00 8.2500000e+00 
6.0000000e+00 0.0000000e+00 8.5000000e+00 
6.0000000e+00 0.0000000e+00 8.7500000e+00 
6.0000000e+00 0.0000000e+00 9.0000000e+00 
6.0000000e+00 0.0000000e+00 9.2500000e+00 
6.0000000e+00 0.0000000e+00 9.5000000e+00 
6.0000000e+00 0.0000000e+00 9.7500000e+00 
6.0000000e+00 0.0000000e+00 1.0000000e+01 
6.0000000e+00 0.0000000e+00 1.0250000e+01 
6.0000000e+00 0.0000000e+00 1.0500000e+01 
6.0000000e+00 0.0000000e+00 1.0750000e+01 
6.0000000e+00 0.0000000e+00 1.1000000e+01 
6.0000000e+00 0.0000000e+00 1.1250000e+01 
6.0000000e+00 0.0000000e+00 1.1500000e+01 
6.0000000e+00 0.0000000e+00 1.1750000e+01 
6.0000000e+00 0.0000000e+00 1.2000000e+01 
6.0000000e+00 0.0000000e+00 1.2250000e+01 
6.0000000e+00 0.0000000e+00 1.2500000e+01 
6.0000000e+00 0.0000000e+00 1.2750000e+01 
6.0000000e+00 0.0000000e+00 1.3000000e+01 
6.0000000e+00 0.0000000e+00 1.3250000e+01 
6.0000000e+00 0.0000000e+00 1.3500000e+01 
6.0000000e+00 0.0000000e+00 1.3750000e+01 
6.0000000e+00 0.0000000e+00 1.4000000e+01 
6.0000000e+00 0.0000000e+00 1.4250000e+01 
6.0000000e+00 0.0000000e+00 1.4500000e+01 
6.0000000e+00 0.0000000e+00 1.4750000e+01 
6.0000000e+00 0.0000000e+00 1.5000000e+01 
6.0000000e+00 0.0000000e+00 1.5250000e+01 
6.0000000e+00 0.0000000e+00 1.5500000e+01 
6.0000000e+00 0.0000000e+00 1.5750000e+01 
6.0000000e+00 0.0000000e+00 1.6000000e+01 
6.0000000e+00 0.0000000e+00 1.6250000e+01 
6.0000000e+00 0.0000000e+00 1.6500000e+01 
6.0000000e+00 0.0000000e+00 1.6750000e+01 
6.0000000e+00 0.0000000e+00 1.7000000e+01 
6.0000000e+00 0.0000000e+00 1.7250000e+01 
6.0000000e+00 0.0000000e+00 1.7500000e+01 
6.0000000e+00 0.0000000e+00 1.7750000e+01 
6.0000000e+00 0.0000000e+00 1.8000000e+01 

CELLS 216 648
2 0 1
2 1 2
2 2 3
2 3 4
2 4 5
2 5 6
2 6 7
2 7 8
2 8 9
2 9 10
2 10 11
2 11 12
2 12 13
2 13 14
2 14 15
2 15 16
2 16 17
2 17 18
2 18 19
2 19 20
2 20 21
2 21 22
2 22 23
2 23 24
2 24 25
2 25 26
2 26 27
2 27 28
2 28 29
2 29 30
2 30 31
2 31 32
2 32 33
2 33 34
2 34 35
2 35 36
2 36 37
2 37 38
2 38 39
2 39 40
2 40 41
2 41 42
2 42 43
2 43 44
2 44 45
2 45 46
2 46 47
2 47 48
2 48 49
2 49 50
2 50 51
2 51 52
2 52 53
2 53 54
2 54 55
2 55 56
2 56 57
2 57 58
2 58 59
2 59 60
2 60 61
2 61 62
2 62 63
2 63 64
2 64 65
2 65 66
2 66 67
2 67 68
2 68 69
2 69 70
2 70 71
2 71 72
2 139 140
2 140 141
2 141 142
2 142 143
2 143 144
2 144 145
2 145 146
2 146 147
2 147 148
2 148 149
2 149 150
2 150 151
2 151 152
2 152 153
2 153 154
2 154 155
2 155 156
2 156 157
2 157 158
2 158 159
2 159 160
2 160 161
2 161 162
2 162 163
2 163 164
2 164 165
2 165 166
2 166 167
2 167 168
2 168 169
2 169 170
2 170 171
2 171 172
2 172 173
2 173 174
2 174 175
2 175 176
2 176 177
2 177 178
2 178 179
2 179 180
2 180 181
2 181 182
2 182 183
2 183 184
2 184 185
2 185 186
2 186 187
2 187 188
2 188 189
2 189 190
2 190 191
2 191 192
2 192 193
2 193 194
2 194 195
2 195 196
2 196 197
2 197 198
2 198 199
2 199 200
2 200 201
2 201 202
2 202 203
2 203 204
2 204 205
2 205 206
2 206 207
2 207 208
2 208 209
2 209 210
2 210 211
2 12 73
2 73 79
2 79 85
2 85 91
2 91 97
2 97 103
2 103 109
2 109 115
2 115 121
2 121 127
2 127 133
2 133 151
2 24 74
2 74 80
2 80 86
2 86 92
2 92 98
2 98 104
2 104 110
2 110 116
2 116 122
2 122 128
2 128 134
2 134 163
2 36 75
2 75 81
2 81 87
2 87 93
2 93 99
2 99 105
2 105 111
2 111 117
2 117 123
2 123 129
2 129 135
2 135 175
2 48 76
2 76 82
2 82 88
2 88 94
2 94 100
2 100 106
2 106 112
2 112 118
2 118 124
2 124 130
2 130 136
2 136 187
2 60 77
2 77 83
2 83 89
2 89 95
2 95 101
2 101 107
2 107 113
2 113 119
2 119 125
2 125 131
2 131 137
2 137 199
2 72 78
2 78 84
2 84 90
2 90 96
2 96 102
2 102 108
2 108 114
2 114 120
2 120 126
2 126 132
2 132 138
2 138 211

CELL_TYPES 216
3
3
3
3
3
3
3
3
3
3
3
3
3
3
3
3
3
3
3
3
3
3
3
3
3
3
3
3
3
3
3
3
3
3
3
3
3
3
3
3
3
3
3
3
3
3
3
3
3
3
3
3
3
3
3
3
3
3
3
3
3
3
3
3
3
3
3
3
3
3
3
3
3
3
3
3
3
3
3
3
3
3
3
3
3
3
3
3
3
3
3
3
3
3
3
3
3
3
3
3
3
3
3
3
3
3
3
3
3
3
3
3
3
3
3
3
3
3
3
3
3
3
3
3
3
3
3
3
3
3
3
3
3
3
3
3
3
3
3
3
3
3
3
3
3
3
3
3
3
3
3
3
3
3
3
3
3
3
3
3
3
3
3
3
3
3
3
3
3
3
3
3
3
3
3
3
3
3
3
3
3
3
3
3
3
3
3
3
3
3
3
3
3
3
3
3
3
3
3
3
3
3
3
3
3
3
3
3
3
3
3
3
3
3
3
3
POINT_DATA 212
FIELD FieldData 3
ADJOINT_DISPLACEMENT 3 212  float
0.0000000e+00 0.0000000e+00 0.0000000e+00 
-1.5692459e-02 0.0000000e+00 -1.2196291e-15 
-3.1303883e-02 0.0000000e+00 -2.4392582e-15 
-4.6753235e-02 0.0000000e+00 -3.6588871e-15 
-6.1959479e-02 0.0000000e+00 -4.8785163e-15 
-7.6841578e-02 0.0000000e+00 -6.0981451e-15 
-9.1318496e-02 0.0000000e+00 -7.3177743e-15 
-1.0530920e-01 0.0000000e+00 -8.5374035e-15 
-1.1873265e-01 0.0000000e+00 -9.7570327e-15 
-1.3150781e-01 0.0000000e+00 -1.0976662e-14 
-1.4355366e-01 0.0000000e+00 -1.2196290e-14 
-1.5478913e-01 0.0000000e+00 -1.3415919e-14 
-1.6513321e-01 0.0000000e+00 -1.4635549e-14 
-1.7615761e-01 0.0000000e+00 7.1295403e-07 
-1.8981230e-01 0.0000000e+00 1.4259081e-06 
-2.0658365e-01 0.0000000e+00 2.1388621e-06 
-2.2695802e-01 0.0000000e+00 2.8518164e-06 
-2.5142178e-01 0.0000000e+00 3.5647704e-06 
-2.8046128e-01 0.0000000e+00 4.2777242e-06 
-3.1456289e-01 0.0000000e+00 4.9906785e-06 
-3.5421294e-01 0.0000000e+00 5.7036327e-06 
-3.9989787e-01 0.0000000e+00 6.4165865e-06 
-4.5210397e-01 0.0000000e+00 7.1295408e-06 
-5.1131761e-01 0.0000000e+00 7.8424946e-06 
-5.7802522e-01 0.0000000e+00 8.5554484e-06 
-6.4461970e-01 0.0000000e+00 7.8032508e-06 
-7.0350075e-01 0.0000000e+00 7.0510523e-06 
-7.5516480e-01 0.0000000e+00 6.2988543e-06 
-8.0010831e-01 0.0000000e+00 5.5466558e-06 
-8.3882761e-01 0.0000000e+00 4.7944577e-06 
-8.7181908e-01 0.0000000e+00 4.0422592e-06 
-8.9957923e-01 0.0000000e+00 3.2900612e-06 
-9.2260432e-01 0.0000000e+00 2.5378629e-06 
-9.4139093e-01 0.0000000e+00 1.7856646e-06 
-9.5643532e-01 0.0000000e+00 1.0334663e-06 
-9.6823394e-01 0.0000000e+00 2.8126811e-07 
-9.7728324e-01 0.0000000e+00 -4.7093013e-07 
-9.8526162e-01 0.0000000e+00 -6.2790883e-07 
-9.9343908e-01 0.0000000e+00 -7.8488756e-07 
-1.0016994e+00 0.0000000e+00 -9.4186629e-07 
-1.0099266e+00 0.0000000e+00 -1.0988450e-06 
-1.0180039e+00 0.0000000e+00 -1.2558238e-06 
-1.0258156e+00 0.0000000e+00 -1.4128025e-06 
-1.0332453e+00 0.0000000e+00 -1.5697813e-06 
-1.0401766e+00 0.0000000e+00 -1.7267599e-06 
-1.0464935e+00 0.0000000e+00 -1.8837387e-06 
-1.0520796e+00 0.0000000e+00 -2.0407174e-06 
-1.0568187e+00 0.0000000e+00 -2.1976962e-06 
-1.0605947e+00 0.0000000e+00 -2.3546750e-06 
-1.0636506e+00 0.0000000e+00 -2.3873783e-06 
-1.0663252e+00 0.0000000e+00 -2.4200820e-06 
-1.0686454e+00 0.0000000e+00 -2.4527856e-06 
-1.0706381e+00 0.0000000e+00 -2.4854889e-06 
-1.0723302e+00 0.0000000e+00 -2.5181926e-06 
-1.0737489e+00 0.0000000e+00 -2.5508962e-06 
-1.0749210e+00 0.0000000e+00 -2.5835996e-06 
-1.0758735e+00 0.0000000e+00 -2.6163032e-06 
-1.0766333e+00 0.0000000e+00 -2.6490068e-06 
-1.0772275e+00 0.0000000e+00 -2.6817102e-06 
-1.0776829e+00 0.0000000e+00 -2.7144138e-06 
-1.0780264e+00 0.0000000e+00 -2.7471174e-06 
-1.0783342e+00 0.0000000e+00 -2.7536580e-06 
-1.0786608e+00 0.0000000e+00 -2.7601986e-06 
-1.0790011e+00 0.0000000e+00 -2.7667393e-06 
-1.0793496e+00 0.0000000e+00 -2.7732799e-06 
-1.0797015e+00 0.0000000e+00 -2.7798205e-06 
-1.0800513e+00 0.0000000e+00 -2.7863612e-06 
-1.0803939e+00 0.0000000e+00 -2.7929018e-06 
-1.0807240e+00 0.0000000e+00 -2.7994424e-06 
-1.0810364e+00 0.0000000e+00 -2.8059831e-06 
-1.0813261e+00 0.0000000e+00 -2.8125237e-06 
-1.0815876e+00 0.0000000e+00 -2.8190643e-06 
-1.0818158e+00 0.0000000e+00 -2.8256050e-06 
-1.6513604e-01 0.0000000e+00 1.3892299e-02 
-5.7802522e-01 0.0000000e+00 1.7283642e-01 
-9.7728020e-01 0.0000000e+00 1.0862218e-02 
-1.0605954e+00 0.0000000e+00 5.2332743e-03 
-1.0780262e+00 0.0000000e+00 3.8683243e-04 
-1.0818158e+00 0.0000000e+00 3.4331804e-04 
-1.6513886e-01 0.0000000e+00 1.7612888e-02 
-5.7802528e-01 0.0000000e+00 4.0571091e-01 
-9.7727710e-01 0.0000000e+00 1.3366652e-02 
-1.0605961e+00 0.0000000e+00 8.1842942e-03 
-1.0780261e+00 0.0000000e+00 4.2508726e-04 
-1.0818158e+00 0.0000000e+00 5.5646914e-04 
-1.6514167e-01 0.0000000e+00 1.3455514e-02 
-5.7802534e-01 0.0000000e+00 1.9391823e-01 
-9.7727406e-01 0.0000000e+00 9.4278017e-03 
-1.0605968e+00 0.0000000e+00 9.2505291e-03 
-1.0780259e+00 0.0000000e+00 1.9618997e-04 
-1.0818158e+00 0.0000000e+00 6.5767067e-04 
-1.6514450e-01 0.0000000e+00 3.7139321e-03 
-5.7802540e-01 0.0000000e+00 3.2744631e-02 
-9.7727102e-01 0.0000000e+00 9.6063793e-04 
-1.0605975e+00 0.0000000e+00 8.8318037e-03 
-1.0780257e+00 0.0000000e+00 -2.1568684e-04 
-1.0818160e+00 0.0000000e+00 6.6796545e-04 
-1.6514732e-01 0.0000000e+00 -9.3181068e-03 
-5.7802546e-01 0.0000000e+00 -8.2523644e-02 
-9.7726798e-01 0.0000000e+00 -1.0119869e-02 
-1.0605983e+00 0.0000000e+00 7.3279417e-03 
-1.0780256e+00 0.0000000e+00 -7.2637061e-04 
-1.0818160e+00 0.0000000e+00 6.0839631e-04 
-1.6515014e-01 0.0000000e+00 -2.3346851e-02 
-5.7802552e-01 0.0000000e+00 -1.5660036e-01 
-9.7726494e-01 0.0000000e+00 -2.1898750e-02 
-1.0605990e+00 0.0000000e+00 5.1387683e-03 
-1.0780255e+00 0.0000000e+00 -1.2516887e-03 
-1.0818160e+00 0.0000000e+00 5.0000619e-04 
-1.6515297e-01 0.0000000e+00 -3.6078546e-02 
-5.7802552e-01 0.0000000e+00 -1.9419926e-01 
-9.7726190e-01 0.0000000e+00 -3.2461032e-02 
-1.0605997e+00 0.0000000e+00 2.6641081e-03 
-1.0780252e+00 0.0000000e+00 -1.7074684e-03 
-1.0818160e+00 0.0000000e+00 3.6383796e-04 
-1.6515578e-01 0.0000000e+00 -4.5219444e-02 
-5.7802558e-01 0.0000000e+00 -2.0003414e-01 
-9.7725886e-01 0.0000000e+00 -3.9891750e-02 
-1.0606004e+00 0.0000000e+00 3.0378488e-04 
-1.0780251e+00 0.0000000e+00 -2.0095375e-03 
-1.0818160e+00 0.0000000e+00 2.2093448e-04 
-1.6515860e-01 0.0000000e+00 -4.8475787e-02 
-5.7802564e-01 0.0000000e+00 -1.7881875e-01 
-9.7725582e-01 0.0000000e+00 -4.2275928e-02 
-1.0606011e+00 0.0000000e+00 -1.5423765e-03 
-1.0780250e+00 0.0000000e+00 -2.0737229e-03 
-1.0818161e+00 0.0000000e+00 9.2338625e-05 
-1.6516143e-01 0.0000000e+00 -4.3553833e-02 
-5.7802570e-01 0.0000000e+00 -1.3526684e-01 
-9.7725278e-01 0.0000000e+00 -3.7698597e-02 
-1.0606018e+00 0.0000000e+00 -2.4745516e-03 
-1.0780247e+00 0.0000000e+00 -1.8158525e-03 
-1.0818161e+00 0.0000000e+00 -9.0672415e-07 
-1.6516425e-01 0.0000000e+00 -2.8159820e-02 
-5.7802576e-01 0.0000000e+00 -7.4092194e-02 
-9.7724968e-01 0.0000000e+00 -2.4244787e-02 
-1.0606025e+00 0.0000000e+00 -2.0929161e-03 
-1.0780246e+00 0.0000000e+00 -1.1517532e-03 
-1.0818161e+00 0.0000000e+00 -3.7758688e-05 
0.0000000e+00 0.0000000e+00 0.0000000e+00 
-1.1832563e-02 0.0000000e+00 1.2302394e-15 
-2.3746163e-02 0.0000000e+00 2.4604986e-15 
-3.5821833e-02 0.0000000e+00 3.6907724e-15 
-4.8140615e-02 0.0000000e+00 4.9210128e-15 
-6.0783539e-02 0.0000000e+00 6.1512494e-15 
-7.3831640e-02 0.0000000e+00 7.3814762e-15 
-8.7365963e-02 0.0000000e+00 8.6117323e-15 
-1.0146753e-01 0.0000000e+00 9.8419638e-15 
-1.1621740e-01 0.0000000e+00 1.1072198e-14 
-1.3169658e-01 0.0000000e+00 1.2302454e-14 
-1.4798613e-01 0.0000000e+00 1.3532765e-14 
-1.6516708e-01 0.0000000e+00 1.4763030e-14 
-1.8510832e-01 0.0000000e+00 -7.1295403e-07 
-2.0930053e-01 0.0000000e+00 -1.4259081e-06 
-2.3725735e-01 0.0000000e+00 -2.1388621e-06 
-2.6849240e-01 0.0000000e+00 -2.8518164e-06 
-3.0251932e-01 0.0000000e+00 -3.5647704e-06 
-3.3885175e-01 0.0000000e+00 -4.2777242e-06 
-3.7700334e-01 0.0000000e+00 -4.9906785e-06 
-4.1648769e-01 0.0000000e+00 -5.7036327e-06 
-4.5681849e-01 0.0000000e+00 -6.4165865e-06 
-4.9750936e-01 0.0000000e+00 -7.1295408e-06 
-5.3807390e-01 0.0000000e+00 -7.8424946e-06 
-5.7802582e-01 0.0000000e+00 -8.5554484e-06 
-6.1790138e-01 0.0000000e+00 -7.8032508e-06 
-6.5823036e-01 0.0000000e+00 -7.0510523e-06 
-6.9851631e-01 0.0000000e+00 -6.2988543e-06 
-7.3826283e-01 0.0000000e+00 -5.5466558e-06 
-7.7697349e-01 0.0000000e+00 -4.7944577e-06 
-8.1415188e-01 0.0000000e+00 -4.0422592e-06 
-8.4930170e-01 0.0000000e+00 -3.2900612e-06 
-8.8192642e-01 0.0000000e+00 -2.5378629e-06 
-9.1152966e-01 0.0000000e+00 -1.7856646e-06 
-9.3761510e-01 0.0000000e+00 -1.0334663e-06 
-9.5968622e-01 0.0000000e+00 -2.8126811e-07 
-9.7724664e-01 0.0000000e+00 4.7093013e-07 
-9.9149042e-01 0.0000000e+00 6.2790883e-07 
-1.0040200e+00 0.0000000e+00 7.8488756e-07 
-1.0149516e+00 0.0000000e+00 9.4186629e-07 
-1.0244013e+00 0.0000000e+00 1.0988450e-06 
-1.0324855e+00 0.0000000e+00 1.2558238e-06 
-1.0393205e+00 0.0000000e+00 1.4128025e-06 
-1.0450222e+00 0.0000000e+00 1.5697813e-06 
-1.0497072e+00 0.0000000e+00 1.7267599e-06 
-1.0534916e+00 0.0000000e+00 1.8837387e-06 
-1.0564915e+00 0.0000000e+00 2.0407174e-06 
-1.0588233e+00 0.0000000e+00 2.1976962e-06 
-1.0606033e+00 0.0000000e+00 2.3546750e-06 
-1.0621878e+00 0.0000000e+00 2.3873783e-06 
-1.0638380e+00 0.0000000e+00 2.4200820e-06 
-1.0655271e+00 0.0000000e+00 2.4527856e-06 
-1.0672278e+00 0.0000000e+00 2.4854889e-06 
-1.0689135e+00 0.0000000e+00 2.5181926e-06 
-1.0705570e+00 0.0000000e+00 2.5508962e-06 
-1.0721315e+00 0.0000000e+00 2.5835996e-06 
-1.0736099e+00 0.0000000e+00 2.6163032e-06 
-1.0749655e+00 0.0000000e+00 2.6490068e-06 
-1.0761710e+00 0.0000000e+00 2.6817102e-06 
-1.0771997e+00 0.0000000e+00 2.7144138e-06 
-1.0780245e+00 0.0000000e+00 2.7471174e-06 
-1.0786957e+00 0.0000000e+00 2.7536580e-06 
-1.0792848e+00 0.0000000e+00 2.7601986e-06 
-1.0797973e+00 0.0000000e+00 2.7667393e-06 
-1.0802382e+00 0.0000000e+00 2.7732799e-06 
-1.0806129e+00 0.0000000e+00 2.7798205e-06 
-1.0809264e+00 0.0000000e+00 2.7863612e-06 
-1.0811840e+00 0.0000000e+00 2.7929018e-06 
-1.0813910e+00 0.0000000e+00 2.7994424e-06 
-1.0815524e+00 0.0000000e+00 2.8059831e-06 
-1.0816736e+00 0.0000000e+00 2.8125237e-06 
-1.0817598e+00 0.0000000e+00 2.8190643e-06 
-1.0818161e+00 0.0000000e+00 2.8256050e-06 
ADJOINT_ROTATION 3 212  float
0.0000000e+00 -6.2823862e-02 0.0000000e+00 
0.0000000e+00 -6.2661789e-02 0.0000000e+00 
0.0000000e+00 -6.2175576e-02 0.0000000e+00 
0.0000000e+00 -6.1365217e-02 0.0000000e+00 
0.0000000e+00 -6.0230710e-02 0.0000000e+00 
0.0000000e+00 -5.8772061e-02 0.0000000e+00 
0.0000000e+00 -5.6989267e-02 0.0000000e+00 
0.0000000e+00 -5.4882333e-02 0.0000000e+00 
0.0000000e+00 -5.2451249e-02 0.0000000e+00 
0.0000000e+00 -4.9696025e-02 0.0000000e+00 
0.0000000e+00 -4.6616655e-02 0.0000000e+00 
0.0000000e+00 -4.3213140e-02 0.0000000e+00 
0.0000000e+00 -3.9485481e-02 0.0000000e+00 
0.0000000e+00 -4.9033940e-02 0.0000000e+00 
0.0000000e+00 -6.0527846e-02 0.0000000e+00 
0.0000000e+00 -7.3967203e-02 0.0000000e+00 
0.0000000e+00 -8.9352004e-02 0.0000000e+00 
0.0000000e+00 -1.0668226e-01 0.0000000e+00 
0.0000000e+00 -1.2595797e-01 0.0000000e+00 
0.0000000e+00 -1.4717911e-01 0.0000000e+00 
0.0000000e+00 -1.7034572e-01 0.0000000e+00 
0.0000000e+00 -1.9545777e-01 0.0000000e+00 
0.0000000e+00 -2.2251527e-01 0.0000000e+00 
0.0000000e+00 -2.5151822e-01 0.0000000e+00 
0.0000000e+00 -2.8246662e-01 0.0000000e+00 
0.0000000e+00 -2.5062019e-01 0.0000000e+00 
0.0000000e+00 -2.2075936e-01 0.0000000e+00 
0.0000000e+00 -1.9288416e-01 0.0000000e+00 
0.0000000e+00 -1.6699459e-01 0.0000000e+00 
0.0000000e+00 -1.4309064e-01 0.0000000e+00 
0.0000000e+00 -1.2117229e-01 0.0000000e+00 
0.0000000e+00 -1.0123957e-01 0.0000000e+00 
0.0000000e+00 -8.3292477e-02 0.0000000e+00 
0.0000000e+00 -6.7330994e-02 0.0000000e+00 
0.0000000e+00 -5.3355135e-02 0.0000000e+00 
0.0000000e+00 -4.1364897e-02 0.0000000e+00 
0.0000000e+00 -3.1360280e-02 0.0000000e+00 
0.0000000e+00 -3.2389231e-02 0.0000000e+00 
0.0000000e+00 -3.2953255e-02 0.0000000e+00 
0.0000000e+00 -3.3052351e-02 0.0000000e+00 
0.0000000e+00 -3.2686517e-02 0.0000000e+00 
0.0000000e+00 -3.1855755e-02 0.0000000e+00 
0.0000000e+00 -3.0560063e-02 0.0000000e+00 
0.0000000e+00 -2.8799443e-02 0.0000000e+00 
0.0000000e+00 -2.6573895e-02 0.0000000e+00 
0.0000000e+00 -2.3883419e-02 0.0000000e+00 
0.0000000e+00 -2.0728013e-02 0.0000000e+00 
0.0000000e+00 -1.7107680e-02 0.0000000e+00 
0.0000000e+00 -1.3022417e-02 0.0000000e+00 
0.0000000e+00 -1.1443039e-02 0.0000000e+00 
0.0000000e+00 -9.9714901e-03 0.0000000e+00 
0.0000000e+00 -8.6077703e-03 0.0000000e+00 
0.0000000e+00 -7.3518790e-03 0.0000000e+00 
0.0000000e+00 -6.2038172e-03 0.0000000e+00 
0.0000000e+00 -5.1635844e-03 0.0000000e+00 
0.0000000e+00 -4.2311810e-03 0.0000000e+00 
0.0000000e+00 -3.4066064e-03 0.0000000e+00 
0.0000000e+00 -2.6898608e-03 0.0000000e+00 
0.0000000e+00 -2.0809444e-03 0.0000000e+00 
0.0000000e+00 -1.5798571e-03 0.0000000e+00 
0.0000000e+00 -1.1865989e-03 0.0000000e+00 
0.0000000e+00 -1.2723280e-03 0.0000000e+00 
0.0000000e+00 -1.3372080e-03 0.0000000e+00 
0.0000000e+00 -1.3812389e-03 0.0000000e+00 
0.0000000e+00 -1.4044207e-03 0.0000000e+00 
0.0000000e+00 -1.4067534e-03 0.0000000e+00 
0.0000000e+00 -1.3882371e-03 0.0000000e+00 
0.0000000e+00 -1.3488717e-03 0.0000000e+00 
0.0000000e+00 -1.2886572e-03 0.0000000e+00 
0.0000000e+00 -1.2075936e-03 0.0000000e+00 
0.0000000e+00 -1.1056809e-03 0.0000000e+00 
0.0000000e+00 -9.8291924e-04 0.0000000e+00 
0.0000000e+00 -8.3930837e-04 0.0000000e+00 
0.0000000e+00 -1.6848303e-02 0.0000000e+00 
0.0000000e+00 -4.0727359e-01 0.0000000e+00 
0.0000000e+00 -1.2728799e-02 0.0000000e+00 
0.0000000e+00 -8.0533745e-03 0.0000000e+00 
0.0000000e+00 -3.9977685e-04 0.0000000e+00 
0.0000000e+00 -5.5228046e-04 0.0000000e+00 
0.0000000e+00 1.2013699e-03 0.0000000e+00 
0.0000000e+00 -5.2265304e-01 0.0000000e+00 
0.0000000e+00 2.0727394e-03 0.0000000e+00 
0.0000000e+00 -3.8839797e-03 0.0000000e+00 
0.0000000e+00 2.1869999e-04 0.0000000e+00 
0.0000000e+00 -3.0733834e-04 0.0000000e+00 
0.0000000e+00 1.4663539e-02 0.0000000e+00 
0.0000000e+00 3.7139502e-01 0.0000000e+00 
0.0000000e+00 1.3044338e-02 0.0000000e+00 
0.0000000e+00 -5.1423436e-04 0.0000000e+00 
0.0000000e+00 6.6883164e-04 0.0000000e+00 
0.0000000e+00 -1.0448197e-04 0.0000000e+00 
0.0000000e+00 2.3538204e-02 0.0000000e+00 
0.0000000e+00 2.7487060e-01 0.0000000e+00 
0.0000000e+00 2.0185996e-02 0.0000000e+00 
0.0000000e+00 2.0558622e-03 0.0000000e+00 
0.0000000e+00 9.5061806e-04 0.0000000e+00 
0.0000000e+00 5.6288653e-05 0.0000000e+00 
0.0000000e+00 2.7825367e-02 0.0000000e+00 
0.0000000e+00 1.8777373e-01 0.0000000e+00 
0.0000000e+00 2.3497712e-02 0.0000000e+00 
0.0000000e+00 3.8263099e-03 0.0000000e+00 
0.0000000e+00 1.0640593e-03 0.0000000e+00 
0.0000000e+00 1.7497352e-04 0.0000000e+00 
0.0000000e+00 2.7525023e-02 0.0000000e+00 
0.0000000e+00 1.1010437e-01 0.0000000e+00 
0.0000000e+00 2.2979487e-02 0.0000000e+00 
0.0000000e+00 4.7971085e-03 0.0000000e+00 
0.0000000e+00 1.0091554e-03 0.0000000e+00 
0.0000000e+00 2.5157264e-04 0.0000000e+00 
0.0000000e+00 2.2637177e-02 0.0000000e+00 
0.0000000e+00 4.1862540e-02 0.0000000e+00 
0.0000000e+00 1.8631322e-02 0.0000000e+00 
0.0000000e+00 4.9682586e-03 0.0000000e+00 
0.0000000e+00 7.8590633e-04 0.0000000e+00 
0.0000000e+00 2.8608603e-04 0.0000000e+00 
0.0000000e+00 1.3161827e-02 0.0000000e+00 
0.0000000e+00 -1.6951770e-02 0.0000000e+00 
0.0000000e+00 1.0453217e-02 0.0000000e+00 
0.0000000e+00 4.3397592e-03 0.0000000e+00 
0.0000000e+00 3.9431202e-04 0.0000000e+00 
0.0000000e+00 2.7851362e-04 0.0000000e+00 
0.0000000e+00 -9.0102747e-04 0.0000000e+00 
0.0000000e+00 -6.6338554e-02 0.0000000e+00 
0.0000000e+00 -1.5548293e-03 0.0000000e+00 
0.0000000e+00 2.9116112e-03 0.0000000e+00 
0.0000000e+00 -1.6562747e-04 0.0000000e+00 
0.0000000e+00 2.2885550e-04 0.0000000e+00 
0.0000000e+00 -1.9551385e-02 0.0000000e+00 
0.0000000e+00 -1.0629781e-01 0.0000000e+00 
0.0000000e+00 -1.7392816e-02 0.0000000e+00 
0.0000000e+00 6.8381440e-04 0.0000000e+00 
0.0000000e+00 -8.9391216e-04 0.0000000e+00 
0.0000000e+00 1.3711161e-04 0.0000000e+00 
0.0000000e+00 -4.2789247e-02 0.0000000e+00 
0.0000000e+00 -1.3682954e-01 0.0000000e+00 
0.0000000e+00 -3.7060745e-02 0.0000000e+00 
0.0000000e+00 -2.3436313e-03 0.0000000e+00 
0.0000000e+00 -1.7905420e-03 0.0000000e+00 
0.0000000e+00 3.2819630e-06 0.0000000e+00 
0.0000000e+00 -4.7276229e-02 0.0000000e+00 
0.0000000e+00 -4.7438301e-02 0.0000000e+00 
0.0000000e+00 -4.7924519e-02 0.0000000e+00 
0.0000000e+00 -4.8734877e-02 0.0000000e+00 
0.0000000e+00 -4.9869385e-02 0.0000000e+00 
0.0000000e+00 -5.1328033e-02 0.0000000e+00 
0.0000000e+00 -5.3110827e-02 0.0000000e+00 
0.0000000e+00 -5.5217762e-02 0.0000000e+00 
0.0000000e+00 -5.7648845e-02 0.0000000e+00 
0.0000000e+00 -6.0404070e-02 0.0000000e+00 
0.0000000e+00 -6.3483439e-02 0.0000000e+00 
0.0000000e+00 -6.6886954e-02 0.0000000e+00 
0.0000000e+00 -7.0614614e-02 0.0000000e+00 
0.0000000e+00 -8.8591181e-02 0.0000000e+00 
0.0000000e+00 -1.0462230e-01 0.0000000e+00 
0.0000000e+00 -1.1870796e-01 0.0000000e+00 
0.0000000e+00 -1.3084818e-01 0.0000000e+00 
0.0000000e+00 -1.4104295e-01 0.0000000e+00 
0.0000000e+00 -1.4929228e-01 0.0000000e+00 
0.0000000e+00 -1.5559614e-01 0.0000000e+00 
0.0000000e+00 -1.5995456e-01 0.0000000e+00 
0.0000000e+00 -1.6236754e-01 0.0000000e+00 
0.0000000e+00 -1.6283506e-01 0.0000000e+00 
0.0000000e+00 -1.6135713e-01 0.0000000e+00 
0.0000000e+00 -1.5793376e-01 0.0000000e+00 
0.0000000e+00 -1.6074006e-01 0.0000000e+00 
0.0000000e+00 -1.6156076e-01 0.0000000e+00 
0.0000000e+00 -1.6039585e-01 0.0000000e+00 
0.0000000e+00 -1.5724529e-01 0.0000000e+00 
0.0000000e+00 -1.5210913e-01 0.0000000e+00 
0.0000000e+00 -1.4498734e-01 0.0000000e+00 
0.0000000e+00 -1.3587993e-01 0.0000000e+00 
0.0000000e+00 -1.2478691e-01 0.0000000e+00 
0.0000000e+00 -1.1170827e-01 0.0000000e+00 
0.0000000e+00 -9.6643999e-02 0.0000000e+00 
0.0000000e+00 -7.9594120e-02 0.0000000e+00 
0.0000000e+00 -6.0558613e-02 0.0000000e+00 
0.0000000e+00 -5.3469181e-02 0.0000000e+00 
0.0000000e+00 -4.6844680e-02 0.0000000e+00 
0.0000000e+00 -4.0685106e-02 0.0000000e+00 
0.0000000e+00 -3.4990460e-02 0.0000000e+00 
0.0000000e+00 -2.9760743e-02 0.0000000e+00 
0.0000000e+00 -2.4995955e-02 0.0000000e+00 
0.0000000e+00 -2.0696096e-02 0.0000000e+00 
0.0000000e+00 -1.6861165e-02 0.0000000e+00 
0.0000000e+00 -1.3491162e-02 0.0000000e+00 
0.0000000e+00 -1.0586089e-02 0.0000000e+00 
0.0000000e+00 -8.1459433e-03 0.0000000e+00 
0.0000000e+00 -6.1707259e-03 0.0000000e+00 
0.0000000e+00 -6.4875185e-03 0.0000000e+00 
0.0000000e+00 -6.6964822e-03 0.0000000e+00 
0.0000000e+00 -6.7976164e-03 0.0000000e+00 
0.0000000e+00 -6.7909220e-03 0.0000000e+00 
0.0000000e+00 -6.6763982e-03 0.0000000e+00 
0.0000000e+00 -6.4540454e-03 0.0000000e+00 
0.0000000e+00 -6.1238632e-03 0.0000000e+00 
0.0000000e+00 -5.6858524e-03 0.0000000e+00 
0.0000000e+00 -5.1400121e-03 0.0000000e+00 
0.0000000e+00 -4.4863429e-03 0.0000000e+00 
0.0000000e+00 -3.7248444e-03 0.0000000e+00 
0.0000000e+00 -2.8555170e-03 0.0000000e+00 
0.0000000e+00 -2.5172734e-03 0.0000000e+00 
0.0000000e+00 -2.1998789e-03 0.0000000e+00 