# vtk DataFile Version 4.0
vtk output
ASCII
DATASET UNSTRUCTURED_GRID
POINTS 30 float
0.0000000e+00 0.0000000e+00 0.0000000e+00 
0.0000000e+00 0.0000000e+00 8.0000001e-01 
0.0000000e+00 0.0000000e+00 1.6000000e+00 
0.0000000e+00 0.0000000e+00 2.4000001e+00 
0.0000000e+00 0.0000000e+00 3.2000000e+00 
0.0000000e+00 0.0000000e+00 4.0000000e+00 
0.0000000e+00 0.0000000e+00 4.8000002e+00 
0.0000000e+00 0.0000000e+00 5.5999999e+00 
0.0000000e+00 0.0000000e+00 6.4000001e+00 
0.0000000e+00 0.0000000e+00 7.1999998e+00 
0.0000000e+00 0.0000000e+00 8.0000000e+00 
1.0000000e+01 0.0000000e+00 0.0000000e+00 
1.0000000e+01 0.0000000e+00 8.0000001e-01 
1.0000000e+01 0.0000000e+00 1.6000000e+00 
1.0000000e+01 0.0000000e+00 2.4000001e+00 
1.0000000e+01 0.0000000e+00 3.2000000e+00 
1.0000000e+01 0.0000000e+00 4.0000000e+00 
1.0000000e+01 0.0000000e+00 4.8000002e+00 
1.0000000e+01 0.0000000e+00 5.5999999e+00 
1.0000000e+01 0.0000000e+00 6.4000001e+00 
1.0000000e+01 0.0000000e+00 7.1999998e+00 
1.0000000e+01 0.0000000e+00 8.0000000e+00 
2.0000000e+00 0.0000000e+00 4.0000000e+00 
4.0000000e+00 0.0000000e+00 4.0000000e+00 
6.0000000e+00 0.0000000e+00 4.0000000e+00 
8.0000000e+00 0.0000000e+00 4.0000000e+00 
2.0000000e+00 0.0000000e+00 8.0000000e+00 
4.0000000e+00 0.0000000e+00 8.0000000e+00 
6.0000000e+00 0.0000000e+00 8.0000000e+00 
8.0000000e+00 0.0000000e+00 8.0000000e+00 

CELLS 30 90
2 0 1
2 1 2
2 2 3
2 3 4
2 4 5
2 5 6
2 6 7
2 7 8
2 8 9
2 9 10
2 11 12
2 12 13
2 13 14
2 14 15
2 15 16
2 16 17
2 17 18
2 18 19
2 19 20
2 20 21
2 5 22
2 22 23
2 23 24
2 24 25
2 25 16
2 10 26
2 26 27
2 27 28
2 28 29
2 29 21

CELL_TYPES 30
3
3
3
3
3
3
3
3
3
3
3
3
3
3
3
3
3
3
3
3
3
3
3
3
3
3
3
3
3
3
POINT_DATA 30
FIELD FieldData 3
ADJOINT_DISPLACEMENT 3 30  float
0.0000000e+00 0.0000000e+00 0.0000000e+00 
-4.9586299e-01 0.0000000e+00 -3.3145402e-17 
-1.0079838e+00 0.0000000e+00 -6.6290804e-17 
-1.5526204e+00 0.0000000e+00 -9.9436202e-17 
-1.3460305e+00 0.0000000e+00 -1.3258161e-16 
-1.2044721e+00 0.0000000e+00 -1.6572701e-16 
-1.1308247e+00 0.0000000e+00 -1.9039519e-16 
-1.1076158e+00 0.0000000e+00 -2.0895379e-16 
-1.1205744e+00 0.0000000e+00 -2.2907561e-16 
-1.1554294e+00 0.0000000e+00 -2.4709902e-16 
-1.1979095e+00 0.0000000e+00 -2.6478043e-16 
0.0000000e+00 0.0000000e+00 0.0000000e+00 
-3.0413699e-01 0.0000000e+00 1.1025085e-16 
-5.9201616e-01 0.0000000e+00 2.2091642e-16 
-8.4737957e-01 0.0000000e+00 3.3581836e-16 
-1.0539695e+00 0.0000000e+00 4.4927242e-16 
-1.1955280e+00 0.0000000e+00 5.5415442e-16 
-1.2691753e+00 0.0000000e+00 5.6319824e-16 
-1.2923841e+00 0.0000000e+00 5.7224212e-16 
-1.2794256e+00 0.0000000e+00 5.8128600e-16 
-1.2445707e+00 0.0000000e+00 5.6264095e-16 
-1.2020905e+00 0.0000000e+00 5.4399595e-16 
-1.2026832e+00 0.0000000e+00 -2.0724705e-01 
-1.2008944e+00 0.0000000e+00 -3.1087056e-01 
-1.1991056e+00 0.0000000e+00 -3.1087056e-01 
-1.1973168e+00 0.0000000e+00 -2.0724705e-01 
-1.1987457e+00 0.0000000e+00 8.3071694e-02 
-1.1995819e+00 0.0000000e+00 1.2460753e-01 
-1.2004181e+00 0.0000000e+00 1.2460753e-01 
-1.2012542e+00 0.0000000e+00 8.3071694e-02 
ADJOINT_ROTATION 3 30  float
0.0000000e+00 -6.1644173e-01 0.0000000e+00 
0.0000000e+00 -6.2660289e-01 0.0000000e+00 
0.0000000e+00 -6.5708631e-01 0.0000000e+00 
0.0000000e+00 -7.0789212e-01 0.0000000e+00 
0.0000000e+00 2.2097981e-01 0.0000000e+00 
0.0000000e+00 1.2952940e-01 0.0000000e+00 
0.0000000e+00 5.7561953e-02 0.0000000e+00 
0.0000000e+00 3.4333062e-03 0.0000000e+00 
0.0000000e+00 -3.2856535e-02 0.0000000e+00 
0.0000000e+00 -5.1307574e-02 0.0000000e+00 
0.0000000e+00 -5.1919807e-02 0.0000000e+00 
0.0000000e+00 -3.8355830e-01 0.0000000e+00 
0.0000000e+00 -3.7339714e-01 0.0000000e+00 
0.0000000e+00 -3.4291369e-01 0.0000000e+00 
0.0000000e+00 -2.9210788e-01 0.0000000e+00 
0.0000000e+00 -2.2097981e-01 0.0000000e+00 
0.0000000e+00 -1.2952940e-01 0.0000000e+00 
0.0000000e+00 -5.7561953e-02 0.0000000e+00 
0.0000000e+00 -3.4333062e-03 0.0000000e+00 
0.0000000e+00 3.2856535e-02 0.0000000e+00 
0.0000000e+00 5.1307574e-02 0.0000000e+00 
0.0000000e+00 5.1919807e-02 0.0000000e+00 
0.0000000e+00 7.7717640e-02 0.0000000e+00 
0.0000000e+00 2.5905881e-02 0.0000000e+00 
0.0000000e+00 -2.5905881e-02 0.0000000e+00 
0.0000000e+00 -7.7717640e-02 0.0000000e+00 
0.0000000e+00 -3.1151883e-02 0.0000000e+00 
0.0000000e+00 -1.0383962e-02 0.0000000e+00 
0.0000000e+00 1.0383962e-02 0.0000000e+00 
0.0000000e+00 3.1151883e-02 0.0000000e+00 
SHAPE_SENSITIVITY 3 30  float
0.0000000e+00 0.0000000e+00 0.0000000e+00 
0.0000000e+00 0.0000000e+00 0.0000000e+00 
0.0000000e+00 0.0000000e+00 0.0000000e+00 
0.0000000e+00 0.0000000e+00 0.0000000e+00 
0.0000000e+00 0.0000000e+00 0.0000000e+00 
0.0000000e+00 0.0000000e+00 0.0000000e+00 
0.0000000e+00 0.0000000e+00 0.0000000e+00 
0.0000000e+00 0.0000000e+00 0.0000000e+00 
0.0000000e+00 0.0000000e+00 0.0000000e+00 
0.0000000e+00 0.0000000e+00 0.0000000e+00 
0.0000000e+00 0.0000000e+00 0.0000000e+00 
0.0000000e+00 0.0000000e+00 0.0000000e+00 
0.0000000e+00 0.0000000e+00 0.0000000e+00 
0.0000000e+00 0.0000000e+00 0.0000000e+00 
0.0000000e+00 0.0000000e+00 0.0000000e+00 
0.0000000e+00 0.0000000e+00 0.0000000e+00 
0.0000000e+00 0.0000000e+00 0.0000000e+00 
0.0000000e+00 0.0000000e+00 0.0000000e+00 
0.0000000e+00 0.0000000e+00 0.0000000e+00 
0.0000000e+00 0.0000000e+00 0.0000000e+00 
0.0000000e+00 0.0000000e+00 0.0000000e+00 
0.0000000e+00 0.0000000e+00 0.0000000e+00 
0.0000000e+00 0.0000000e+00 0.0000000e+00 
0.0000000e+00 0.0000000e+00 0.0000000e+00 
0.0000000e+00 0.0000000e+00 0.0000000e+00 
0.0000000e+00 0.0000000e+00 0.0000000e+00 
0.0000000e+00 0.0000000e+00 0.0000000e+00 
0.0000000e+00 0.0000000e+00 0.0000000e+00 
0.0000000e+00 0.0000000e+00 0.0000000e+00 
0.0000000e+00 0.0000000e+00 0.0000000e+00 
CELL_DATA 30
FIELD FieldData 1
I22_SENSITIVITY 1 30  float
1.1311614e+05
5.9450112e+05
1.4098026e+06
2.7667125e+06
2.9719368e+06
2.1104355e+06
9.1505662e+05
5.7147775e+05
1.3432225e+05
-4.9695969e+04
7.7999188e+04
5.4599425e+05
6.2439519e+05
-7.6456869e+05
-3.1995358e+06
-2.4671778e+06
-3.2084205e+06
-2.1797652e+06
-3.1488881e+05
-5.8888023e+04
3.6874612e+05
2.6807694e+05
-3.7633284e+05
-2.2271791e+05
-1.1211266e+06
-3.2676697e+05
9.0464381e+05
9.7815606e+05
-1.0623025e+05
-1.1906166e+06
