# vtk DataFile Version 4.0
vtk output
ASCII
DATASET UNSTRUCTURED_GRID
POINTS 2 float
0.0000000e+00 0.0000000e+00 0.0000000e+00 
2.0000000e+00 0.0000000e+00 0.0000000e+00 

CELLS 1 3
2 0 1

CELL_TYPES 1
3
POINT_DATA 2
FIELD FieldData 6
DISPLACEMENT 3 2  float
0.0000000e+00 0.0000000e+00 0.0000000e+00 
0.0000000e+00 0.0000000e+00 0.0000000e+00 
REACTION 3 2  float
-0.0000000e+00 1.0000000e+04 0.0000000e+00 
-0.0000000e+00 1.0000000e+04 0.0000000e+00 
ROTATION 3 2  float
0.0000000e+00 0.0000000e+00 0.0000000e+00 
0.0000000e+00 0.0000000e+00 0.0000000e+00 
REACTION_MOMENT 3 2  float
0.0000000e+00 0.0000000e+00 -0.0000000e+00 
0.0000000e+00 0.0000000e+00 -0.0000000e+00 
FORCE 3 2  float
0.0000000e+00 0.0000000e+00 0.0000000e+00 
0.0000000e+00 0.0000000e+00 0.0000000e+00 
MOMENT 3 2  float
0.0000000e+00 0.0000000e+00 0.0000000e+00 
0.0000000e+00 0.0000000e+00 0.0000000e+00 
CELL_DATA 1
FIELD FieldData 2
FORCE 3 1  float
0.0000000e+00 0.0000000e+00 0.0000000e+00 
MOMENT 3 1  float
0.0000000e+00 0.0000000e+00 0.0000000e+00 
