# vtk DataFile Version 4.0
vtk output
ASCII
DATASET UNSTRUCTURED_GRID
POINTS 86 float
0.0000000e+00 0.0000000e+00 0.0000000e+00 
0.0000000e+00 0.0000000e+00 6.0000002e-01 
0.0000000e+00 0.0000000e+00 1.2000000e+00 
0.0000000e+00 0.0000000e+00 1.8000000e+00 
0.0000000e+00 0.0000000e+00 2.4000001e+00 
0.0000000e+00 0.0000000e+00 3.0000000e+00 
0.0000000e+00 0.0000000e+00 3.5999999e+00 
0.0000000e+00 0.0000000e+00 4.1999998e+00 
0.0000000e+00 0.0000000e+00 4.8000002e+00 
0.0000000e+00 0.0000000e+00 5.4000001e+00 
0.0000000e+00 0.0000000e+00 6.0000000e+00 
0.0000000e+00 0.0000000e+00 6.5999999e+00 
0.0000000e+00 0.0000000e+00 7.1999998e+00 
0.0000000e+00 0.0000000e+00 7.8000002e+00 
0.0000000e+00 0.0000000e+00 8.3999996e+00 
0.0000000e+00 0.0000000e+00 9.0000000e+00 
0.0000000e+00 0.0000000e+00 9.6000004e+00 
0.0000000e+00 0.0000000e+00 1.0200000e+01 
0.0000000e+00 0.0000000e+00 1.0800000e+01 
0.0000000e+00 0.0000000e+00 1.1400000e+01 
0.0000000e+00 0.0000000e+00 1.2000000e+01 
0.0000000e+00 0.0000000e+00 1.2600000e+01 
0.0000000e+00 0.0000000e+00 1.3200000e+01 
0.0000000e+00 0.0000000e+00 1.3800000e+01 
0.0000000e+00 0.0000000e+00 1.4400000e+01 
0.0000000e+00 0.0000000e+00 1.5000000e+01 
0.0000000e+00 0.0000000e+00 1.5600000e+01 
0.0000000e+00 0.0000000e+00 1.6200001e+01 
0.0000000e+00 0.0000000e+00 1.6799999e+01 
0.0000000e+00 0.0000000e+00 1.7400000e+01 
0.0000000e+00 0.0000000e+00 1.8000000e+01 
6.0000000e+00 0.0000000e+00 0.0000000e+00 
6.0000000e+00 0.0000000e+00 6.0000002e-01 
6.0000000e+00 0.0000000e+00 1.2000000e+00 
6.0000000e+00 0.0000000e+00 1.8000000e+00 
6.0000000e+00 0.0000000e+00 2.4000001e+00 
6.0000000e+00 0.0000000e+00 3.0000000e+00 
6.0000000e+00 0.0000000e+00 3.5999999e+00 
6.0000000e+00 0.0000000e+00 4.1999998e+00 
6.0000000e+00 0.0000000e+00 4.8000002e+00 
6.0000000e+00 0.0000000e+00 5.4000001e+00 
6.0000000e+00 0.0000000e+00 6.0000000e+00 
6.0000000e+00 0.0000000e+00 6.5999999e+00 
6.0000000e+00 0.0000000e+00 7.1999998e+00 
6.0000000e+00 0.0000000e+00 7.8000002e+00 
6.0000000e+00 0.0000000e+00 8.3999996e+00 
6.0000000e+00 0.0000000e+00 9.0000000e+00 
6.0000000e+00 0.0000000e+00 9.6000004e+00 
6.0000000e+00 0.0000000e+00 1.0200000e+01 
6.0000000e+00 0.0000000e+00 1.0800000e+01 
6.0000000e+00 0.0000000e+00 1.1400000e+01 
6.0000000e+00 0.0000000e+00 1.2000000e+01 
6.0000000e+00 0.0000000e+00 1.2600000e+01 
6.0000000e+00 0.0000000e+00 1.3200000e+01 
6.0000000e+00 0.0000000e+00 1.3800000e+01 
6.0000000e+00 0.0000000e+00 1.4400000e+01 
6.0000000e+00 0.0000000e+00 1.5000000e+01 
6.0000000e+00 0.0000000e+00 1.5600000e+01 
6.0000000e+00 0.0000000e+00 1.6200001e+01 
6.0000000e+00 0.0000000e+00 1.6799999e+01 
6.0000000e+00 0.0000000e+00 1.7400000e+01 
6.0000000e+00 0.0000000e+00 1.8000000e+01 
1.2000000e+00 0.0000000e+00 3.0000000e+00 
2.4000001e+00 0.0000000e+00 3.0000000e+00 
3.5999999e+00 0.0000000e+00 3.0000000e+00 
4.8000002e+00 0.0000000e+00 3.0000000e+00 
1.2000000e+00 0.0000000e+00 6.0000000e+00 
2.4000001e+00 0.0000000e+00 6.0000000e+00 
3.5999999e+00 0.0000000e+00 6.0000000e+00 
4.8000002e+00 0.0000000e+00 6.0000000e+00 
1.2000000e+00 0.0000000e+00 9.0000000e+00 
2.4000001e+00 0.0000000e+00 9.0000000e+00 
3.5999999e+00 0.0000000e+00 9.0000000e+00 
4.8000002e+00 0.0000000e+00 9.0000000e+00 
1.2000000e+00 0.0000000e+00 1.2000000e+01 
2.4000001e+00 0.0000000e+00 1.2000000e+01 
3.5999999e+00 0.0000000e+00 1.2000000e+01 
4.8000002e+00 0.0000000e+00 1.2000000e+01 
1.2000000e+00 0.0000000e+00 1.5000000e+01 
2.4000001e+00 0.0000000e+00 1.5000000e+01 
3.5999999e+00 0.0000000e+00 1.5000000e+01 
4.8000002e+00 0.0000000e+00 1.5000000e+01 
1.2000000e+00 0.0000000e+00 1.8000000e+01 
2.4000001e+00 0.0000000e+00 1.8000000e+01 
3.5999999e+00 0.0000000e+00 1.8000000e+01 
4.8000002e+00 0.0000000e+00 1.8000000e+01 

CELLS 90 270
2 0 1
2 1 2
2 2 3
2 3 4
2 4 5
2 5 6
2 6 7
2 7 8
2 8 9
2 9 10
2 10 11
2 11 12
2 12 13
2 13 14
2 14 15
2 15 16
2 16 17
2 17 18
2 18 19
2 19 20
2 20 21
2 21 22
2 22 23
2 23 24
2 24 25
2 25 26
2 26 27
2 27 28
2 28 29
2 29 30
2 31 32
2 32 33
2 33 34
2 34 35
2 35 36
2 36 37
2 37 38
2 38 39
2 39 40
2 40 41
2 41 42
2 42 43
2 43 44
2 44 45
2 45 46
2 46 47
2 47 48
2 48 49
2 49 50
2 50 51
2 51 52
2 52 53
2 53 54
2 54 55
2 55 56
2 56 57
2 57 58
2 58 59
2 59 60
2 60 61
2 5 62
2 62 63
2 63 64
2 64 65
2 65 36
2 10 66
2 66 67
2 67 68
2 68 69
2 69 41
2 15 70
2 70 71
2 71 72
2 72 73
2 73 46
2 20 74
2 74 75
2 75 76
2 76 77
2 77 51
2 25 78
2 78 79
2 79 80
2 80 81
2 81 56
2 30 82
2 82 83
2 83 84
2 84 85
2 85 61

CELL_TYPES 90
3
3
3
3
3
3
3
3
3
3
3
3
3
3
3
3
3
3
3
3
3
3
3
3
3
3
3
3
3
3
3
3
3
3
3
3
3
3
3
3
3
3
3
3
3
3
3
3
3
3
3
3
3
3
3
3
3
3
3
3
3
3
3
3
3
3
3
3
3
3
3
3
3
3
3
3
3
3
3
3
3
3
3
3
3
3
3
3
3
3
POINT_DATA 86
FIELD FieldData 3
ADJOINT_DISPLACEMENT 3 86  float
0.0000000e+00 0.0000000e+00 0.0000000e+00 
-9.1407201e-05 0.0000000e+00 2.7034804e-15 
-1.8144726e-04 0.0000000e+00 5.4069607e-15 
-2.6875304e-04 0.0000000e+00 8.1104413e-15 
-3.5195742e-04 0.0000000e+00 1.0813921e-14 
-4.2969320e-04 0.0000000e+00 1.3517402e-14 
-5.2725535e-04 0.0000000e+00 2.9487762e-06 
-6.7599781e-04 0.0000000e+00 5.8975525e-06 
-8.8364223e-04 0.0000000e+00 8.8463294e-06 
-1.1579102e-03 0.0000000e+00 1.1795105e-05 
-1.5065233e-03 0.0000000e+00 1.4743881e-05 
-2.0526845e-03 0.0000000e+00 2.9586055e-05 
-2.9395572e-03 0.0000000e+00 4.4428230e-05 
-4.2048031e-03 0.0000000e+00 5.9270405e-05 
-5.8860853e-03 0.0000000e+00 7.4112577e-05 
-8.0210650e-03 0.0000000e+00 8.8954752e-05 
-1.1064406e-02 0.0000000e+00 1.6071158e-04 
-1.4815954e-02 0.0000000e+00 2.3246842e-04 
-1.8331148e-02 0.0000000e+00 3.0422525e-04 
-2.0665418e-02 0.0000000e+00 3.7598208e-04 
-2.0874208e-02 0.0000000e+00 4.4773892e-04 
-2.0797629e-02 0.0000000e+00 7.9407281e-04 
-2.7256364e-02 0.0000000e+00 1.1404067e-03 
-4.6776708e-02 0.0000000e+00 1.4867405e-03 
-8.5884944e-02 0.0000000e+00 1.8330745e-03 
-1.5110737e-01 0.0000000e+00 2.1794084e-03 
-2.1686694e-01 0.0000000e+00 1.8508654e-03 
-2.5701392e-01 0.0000000e+00 1.5223225e-03 
-2.7721566e-01 0.0000000e+00 1.1937795e-03 
-2.8313941e-01 0.0000000e+00 8.6523662e-04 
-2.8045249e-01 0.0000000e+00 5.3669367e-04 
0.0000000e+00 0.0000000e+00 0.0000000e+00 
-8.5519372e-05 0.0000000e+00 -2.8237755e-15 
-1.7240590e-04 0.0000000e+00 -5.6475507e-15 
-2.6202668e-04 0.0000000e+00 -8.4713273e-15 
-3.5574890e-04 0.0000000e+00 -1.1295102e-14 
-4.5493967e-04 0.0000000e+00 -1.4118873e-14 
-5.8738212e-04 0.0000000e+00 -2.9487762e-06 
-7.7480014e-04 0.0000000e+00 -5.8975525e-06 
-1.0094722e-03 0.0000000e+00 -8.8463294e-06 
-1.2836765e-03 0.0000000e+00 -1.1795105e-05 
-1.5896917e-03 0.0000000e+00 -1.4743881e-05 
-2.0183960e-03 0.0000000e+00 -2.9586055e-05 
-2.6407072e-03 0.0000000e+00 -4.4428230e-05 
-3.4189632e-03 0.0000000e+00 -5.9270405e-05 
-4.3155015e-03 0.0000000e+00 -7.4112577e-05 
-5.2926601e-03 0.0000000e+00 -8.8954752e-05 
-6.9202394e-03 0.0000000e+00 -1.6071158e-04 
-1.0422857e-02 0.0000000e+00 -2.3246842e-04 
-1.6745077e-02 0.0000000e+00 -3.0422525e-04 
-2.6831465e-02 0.0000000e+00 -3.7598208e-04 
-4.1626580e-02 0.0000000e+00 -4.4773892e-04 
-6.4232700e-02 0.0000000e+00 -7.9407281e-04 
-9.2771523e-02 0.0000000e+00 -1.1404067e-03 
-1.2071675e-01 0.0000000e+00 -1.4867405e-03 
-1.4154211e-01 0.0000000e+00 -1.8330745e-03 
-1.4872131e-01 0.0000000e+00 -2.1794084e-03 
-1.5568359e-01 0.0000000e+00 -1.8508654e-03 
-1.7643091e-01 0.0000000e+00 -1.5223225e-03 
-2.0529595e-01 0.0000000e+00 -1.1937795e-03 
-2.3661141e-01 0.0000000e+00 -8.6523662e-04 
-2.6470998e-01 0.0000000e+00 -5.3669367e-04 
-4.3474251e-04 0.0000000e+00 6.2656785e-05 
-4.3979179e-04 0.0000000e+00 9.0604153e-06 
-4.4484111e-04 0.0000000e+00 -7.5864344e-05 
-4.4989039e-04 0.0000000e+00 -1.0719273e-04 
-1.5231570e-03 0.0000000e+00 4.0658642e-04 
-1.5397908e-03 0.0000000e+00 2.5702905e-04 
-1.5564244e-03 0.0000000e+00 -9.1398360e-05 
-1.5730581e-03 0.0000000e+00 -2.9616596e-04 
-7.4753840e-03 0.0000000e+00 2.7880897e-03 
-6.9297031e-03 0.0000000e+00 2.4807241e-03 
-6.3840221e-03 0.0000000e+00 8.0599997e-04 
-5.8383411e-03 0.0000000e+00 -5.9694034e-04 
-2.5024682e-02 0.0000000e+00 -6.7300517e-03 
-2.9175157e-02 0.0000000e+00 -1.8316314e-02 
-3.3325631e-02 0.0000000e+00 -2.6403228e-02 
-3.7476107e-02 0.0000000e+00 -2.3082977e-02 
-1.5063016e-01 0.0000000e+00 2.8769061e-01 
-1.5015295e-01 0.0000000e+00 8.0944681e-01 
-1.4967573e-01 0.0000000e+00 3.4801146e-01 
-1.4919852e-01 0.0000000e+00 8.3948225e-02 
-2.7730399e-01 0.0000000e+00 -1.3979279e-02 
-2.7415550e-01 0.0000000e+00 -3.0806640e-02 
-2.7100700e-01 0.0000000e+00 -4.0483356e-02 
-2.6785851e-01 0.0000000e+00 -3.3547383e-02 
ADJOINT_ROTATION 3 86  float
0.0000000e+00 -1.5272510e-04 0.0000000e+00 
0.0000000e+00 -1.5158582e-04 0.0000000e+00 
0.0000000e+00 -1.4816796e-04 0.0000000e+00 
0.0000000e+00 -1.4247154e-04 0.0000000e+00 
0.0000000e+00 -1.3449656e-04 0.0000000e+00 
0.0000000e+00 -1.2424300e-04 0.0000000e+00 
0.0000000e+00 -2.0310895e-04 0.0000000e+00 
0.0000000e+00 -2.9484421e-04 0.0000000e+00 
0.0000000e+00 -3.9944879e-04 0.0000000e+00 
0.0000000e+00 -5.1692268e-04 0.0000000e+00 
0.0000000e+00 -6.4726593e-04 0.0000000e+00 
0.0000000e+00 -1.1837330e-03 0.0000000e+00 
0.0000000e+00 -1.7829705e-03 0.0000000e+00 
0.0000000e+00 -2.4449783e-03 0.0000000e+00 
0.0000000e+00 -3.1697564e-03 0.0000000e+00 
0.0000000e+00 -3.9573051e-03 0.0000000e+00 
0.0000000e+00 -5.9247869e-03 0.0000000e+00 
0.0000000e+00 -6.3179960e-03 0.0000000e+00 
0.0000000e+00 -5.1369322e-03 0.0000000e+00 
0.0000000e+00 -2.3815962e-03 0.0000000e+00 
0.0000000e+00 1.9480126e-03 0.0000000e+00 
0.0000000e+00 -3.5056053e-03 0.0000000e+00 
0.0000000e+00 -1.9836374e-02 0.0000000e+00 
0.0000000e+00 -4.7044292e-02 0.0000000e+00 
0.0000000e+00 -8.5129365e-02 0.0000000e+00 
0.0000000e+00 -1.3409159e-01 0.0000000e+00 
0.0000000e+00 -8.6681210e-02 0.0000000e+00 
0.0000000e+00 -4.8716340e-02 0.0000000e+00 
0.0000000e+00 -2.0196980e-02 0.0000000e+00 
0.0000000e+00 -1.1231257e-03 0.0000000e+00 
0.0000000e+00 8.5052215e-03 0.0000000e+00 
0.0000000e+00 -1.4215252e-04 0.0000000e+00 
0.0000000e+00 -1.4329181e-04 0.0000000e+00 
0.0000000e+00 -1.4670966e-04 0.0000000e+00 
0.0000000e+00 -1.5240608e-04 0.0000000e+00 
0.0000000e+00 -1.6038107e-04 0.0000000e+00 
0.0000000e+00 -1.7063462e-04 0.0000000e+00 
0.0000000e+00 -2.6869526e-04 0.0000000e+00 
0.0000000e+00 -3.5388657e-04 0.0000000e+00 
0.0000000e+00 -4.2620857e-04 0.0000000e+00 
0.0000000e+00 -4.8566124e-04 0.0000000e+00 
0.0000000e+00 -5.3224462e-04 0.0000000e+00 
0.0000000e+00 -8.8630791e-04 0.0000000e+00 
0.0000000e+00 -1.1776009e-03 0.0000000e+00 
0.0000000e+00 -1.4061235e-03 0.0000000e+00 
0.0000000e+00 -1.5718759e-03 0.0000000e+00 
0.0000000e+00 -1.6748578e-03 0.0000000e+00 
0.0000000e+00 -4.0127859e-03 0.0000000e+00 
0.0000000e+00 -7.9249870e-03 0.0000000e+00 
0.0000000e+00 -1.3411460e-02 0.0000000e+00 
0.0000000e+00 -2.0472206e-02 0.0000000e+00 
0.0000000e+00 -2.9107226e-02 0.0000000e+00 
0.0000000e+00 -4.4433642e-02 0.0000000e+00 
0.0000000e+00 -4.8882905e-02 0.0000000e+00 
0.0000000e+00 -4.2455018e-02 0.0000000e+00 
0.0000000e+00 -2.5149981e-02 0.0000000e+00 
0.0000000e+00 3.0322066e-03 0.0000000e+00 
0.0000000e+00 -2.4665592e-02 0.0000000e+00 
0.0000000e+00 -4.2917885e-02 0.0000000e+00 
0.0000000e+00 -5.1724669e-02 0.0000000e+00 
0.0000000e+00 -5.1085949e-02 0.0000000e+00 
0.0000000e+00 -4.1001718e-02 0.0000000e+00 
0.0000000e+00 8.0199325e-06 0.0000000e+00 
0.0000000e+00 6.9512243e-05 0.0000000e+00 
0.0000000e+00 6.0233917e-05 0.0000000e+00 
0.0000000e+00 -1.9815037e-05 0.0000000e+00 
0.0000000e+00 -5.3378564e-05 0.0000000e+00 
0.0000000e+00 2.5506725e-04 0.0000000e+00 
0.0000000e+00 2.7807150e-04 0.0000000e+00 
0.0000000e+00 1.5634227e-05 0.0000000e+00 
0.0000000e+00 -7.6891191e-04 0.0000000e+00 
0.0000000e+00 1.0535293e-03 0.0000000e+00 
0.0000000e+00 1.5100188e-03 0.0000000e+00 
0.0000000e+00 6.0055644e-04 0.0000000e+00 
0.0000000e+00 8.9166639e-03 0.0000000e+00 
0.0000000e+00 9.2954654e-03 0.0000000e+00 
0.0000000e+00 3.0844177e-03 0.0000000e+00 
0.0000000e+00 -9.7164791e-03 0.0000000e+00 
0.0000000e+00 -3.3906090e-01 0.0000000e+00 
0.0000000e+00 -5.2783322e-01 0.0000000e+00 
0.0000000e+00 2.9959157e-01 0.0000000e+00 
0.0000000e+00 1.4321336e-01 0.0000000e+00 
0.0000000e+00 1.4373895e-02 0.0000000e+00 
0.0000000e+00 1.2357537e-02 0.0000000e+00 
0.0000000e+00 2.4561484e-03 0.0000000e+00 
0.0000000e+00 -1.5330270e-02 0.0000000e+00 
SHAPE_SENSITIVITY 3 86  float
0.0000000e+00 0.0000000e+00 0.0000000e+00 
0.0000000e+00 0.0000000e+00 0.0000000e+00 
0.0000000e+00 0.0000000e+00 0.0000000e+00 
0.0000000e+00 0.0000000e+00 0.0000000e+00 
0.0000000e+00 0.0000000e+00 0.0000000e+00 
0.0000000e+00 0.0000000e+00 0.0000000e+00 
0.0000000e+00 0.0000000e+00 0.0000000e+00 
0.0000000e+00 0.0000000e+00 0.0000000e+00 
0.0000000e+00 0.0000000e+00 0.0000000e+00 
0.0000000e+00 0.0000000e+00 0.0000000e+00 
0.0000000e+00 0.0000000e+00 0.0000000e+00 
0.0000000e+00 0.0000000e+00 0.0000000e+00 
0.0000000e+00 0.0000000e+00 0.0000000e+00 
0.0000000e+00 0.0000000e+00 0.0000000e+00 
0.0000000e+00 0.0000000e+00 0.0000000e+00 
0.0000000e+00 0.0000000e+00 0.0000000e+00 
0.0000000e+00 0.0000000e+00 0.0000000e+00 
0.0000000e+00 0.0000000e+00 0.0000000e+00 
0.0000000e+00 0.0000000e+00 0.0000000e+00 
0.0000000e+00 0.0000000e+00 0.0000000e+00 
0.0000000e+00 0.0000000e+00 0.0000000e+00 
0.0000000e+00 0.0000000e+00 0.0000000e+00 
0.0000000e+00 0.0000000e+00 0.0000000e+00 
0.0000000e+00 0.0000000e+00 0.0000000e+00 
0.0000000e+00 0.0000000e+00 0.0000000e+00 
0.0000000e+00 0.0000000e+00 0.0000000e+00 
0.0000000e+00 0.0000000e+00 0.0000000e+00 
0.0000000e+00 0.0000000e+00 0.0000000e+00 
0.0000000e+00 0.0000000e+00 0.0000000e+00 
0.0000000e+00 0.0000000e+00 0.0000000e+00 
0.0000000e+00 0.0000000e+00 0.0000000e+00 
0.0000000e+00 0.0000000e+00 0.0000000e+00 
0.0000000e+00 0.0000000e+00 0.0000000e+00 
0.0000000e+00 0.0000000e+00 0.0000000e+00 
0.0000000e+00 0.0000000e+00 0.0000000e+00 
0.0000000e+00 0.0000000e+00 0.0000000e+00 
0.0000000e+00 0.0000000e+00 0.0000000e+00 
0.0000000e+00 0.0000000e+00 0.0000000e+00 
0.0000000e+00 0.0000000e+00 0.0000000e+00 
0.0000000e+00 0.0000000e+00 0.0000000e+00 
0.0000000e+00 0.0000000e+00 0.0000000e+00 
0.0000000e+00 0.0000000e+00 0.0000000e+00 
0.0000000e+00 0.0000000e+00 0.0000000e+00 
0.0000000e+00 0.0000000e+00 0.0000000e+00 
0.0000000e+00 0.0000000e+00 0.0000000e+00 
0.0000000e+00 0.0000000e+00 0.0000000e+00 
0.0000000e+00 0.0000000e+00 0.0000000e+00 
0.0000000e+00 0.0000000e+00 0.0000000e+00 
0.0000000e+00 0.0000000e+00 0.0000000e+00 
0.0000000e+00 0.0000000e+00 0.0000000e+00 
0.0000000e+00 0.0000000e+00 0.0000000e+00 
0.0000000e+00 0.0000000e+00 0.0000000e+00 
0.0000000e+00 0.0000000e+00 0.0000000e+00 
0.0000000e+00 0.0000000e+00 0.0000000e+00 
0.0000000e+00 0.0000000e+00 0.0000000e+00 
0.0000000e+00 0.0000000e+00 0.0000000e+00 
0.0000000e+00 0.0000000e+00 0.0000000e+00 
0.0000000e+00 0.0000000e+00 0.0000000e+00 
0.0000000e+00 0.0000000e+00 0.0000000e+00 
0.0000000e+00 0.0000000e+00 0.0000000e+00 
0.0000000e+00 0.0000000e+00 0.0000000e+00 
0.0000000e+00 0.0000000e+00 0.0000000e+00 
0.0000000e+00 0.0000000e+00 0.0000000e+00 
0.0000000e+00 0.0000000e+00 0.0000000e+00 
0.0000000e+00 0.0000000e+00 0.0000000e+00 
0.0000000e+00 0.0000000e+00 0.0000000e+00 
0.0000000e+00 0.0000000e+00 0.0000000e+00 
0.0000000e+00 0.0000000e+00 0.0000000e+00 
0.0000000e+00 0.0000000e+00 0.0000000e+00 
0.0000000e+00 0.0000000e+00 0.0000000e+00 
0.0000000e+00 0.0000000e+00 0.0000000e+00 
0.0000000e+00 0.0000000e+00 0.0000000e+00 
0.0000000e+00 0.0000000e+00 0.0000000e+00 
0.0000000e+00 0.0000000e+00 0.0000000e+00 
0.0000000e+00 0.0000000e+00 0.0000000e+00 
0.0000000e+00 0.0000000e+00 0.0000000e+00 
0.0000000e+00 0.0000000e+00 0.0000000e+00 
0.0000000e+00 0.0000000e+00 0.0000000e+00 
0.0000000e+00 0.0000000e+00 0.0000000e+00 
0.0000000e+00 0.0000000e+00 0.0000000e+00 
0.0000000e+00 0.0000000e+00 0.0000000e+00 
0.0000000e+00 0.0000000e+00 0.0000000e+00 
0.0000000e+00 0.0000000e+00 0.0000000e+00 
0.0000000e+00 0.0000000e+00 0.0000000e+00 
0.0000000e+00 0.0000000e+00 0.0000000e+00 
0.0000000e+00 0.0000000e+00 0.0000000e+00 
CELL_DATA 90
FIELD FieldData 1
I22_SENSITIVITY 1 90  float
1.9140085e-04
1.3284105e-03
3.5659599e-03
6.8630413e-03
1.1178651e-02
1.8612564e-02
2.7037368e-03
-1.7905287e-02
-4.2983137e-02
-7.2297759e-02
1.2827723e-01
4.4546697e-02
-5.5926140e-02
-1.7201160e-01
-3.0257890e-01
3.5047221e-01
3.4117818e-02
9.7947404e-02
5.1362574e-01
1.2528151e+00
4.0191829e-01
3.8043659e-02
-1.9246771e+00
-5.2904582e+00
-9.8635521e+00
-7.8619343e-01
8.4919167e-01
1.5767255e+00
1.5664165e+00
9.8827970e-01
-1.9139760e-04
-1.3284102e-03
-3.5659671e-03
-6.8630506e-03
-1.1178648e-02
2.3647789e-02
2.9328181e-03
-1.2020317e-02
-2.1443287e-02
-2.5567686e-02
8.6120464e-02
2.2913564e-02
-1.8207915e-02
-3.8373768e-02
-3.8714256e-02
3.8028848e-01
1.6707818e-01
-4.0048563e-01
-1.2940612e+00
-2.4853220e+00
1.4196342e+00
1.0033561e-01
5.0454992e-01
2.4365125e+00
5.7004371e+00
4.7305980e-01
-3.9354977e-01
-4.7056428e-01
7.1962684e-02
1.0640732e+00
1.6699816e-01
4.1616153e-02
3.6419937e-03
5.3075686e-02
1.8991724e-01
4.7051942e-01
1.2902513e-01
9.2377886e-03
1.1115737e-01
4.3478388e-01
1.7861603e+00
5.3284466e-01
3.1324826e-02
2.8160089e-01
1.2836728e+00
2.7056537e+00
1.7331547e-01
1.0256620e-01
2.4934058e+00
7.3458343e+00
-4.3962936e+01
-2.0322292e+01
-1.4427599e-01
1.6571110e+01
2.9823868e+01
5.6079406e-01
-6.1501153e-02
2.9730286e-02
8.3448827e-01
2.3527730e+00
