# vtk DataFile Version 4.0
vtk output
ASCII
DATASET UNSTRUCTURED_GRID
POINTS 212 float
0.0000000e+00 0.0000000e+00 0.0000000e+00 
0.0000000e+00 0.0000000e+00 2.5000000e-01 
0.0000000e+00 0.0000000e+00 5.0000000e-01 
0.0000000e+00 0.0000000e+00 7.5000000e-01 
0.0000000e+00 0.0000000e+00 1.0000000e+00 
0.0000000e+00 0.0000000e+00 1.2500000e+00 
0.0000000e+00 0.0000000e+00 1.5000000e+00 
0.0000000e+00 0.0000000e+00 1.7500000e+00 
0.0000000e+00 0.0000000e+00 2.0000000e+00 
0.0000000e+00 0.0000000e+00 2.2500000e+00 
0.0000000e+00 0.0000000e+00 2.5000000e+00 
0.0000000e+00 0.0000000e+00 2.7500000e+00 
0.0000000e+00 0.0000000e+00 3.0000000e+00 
0.0000000e+00 0.0000000e+00 3.2500000e+00 
0.0000000e+00 0.0000000e+00 3.5000000e+00 
0.0000000e+00 0.0000000e+00 3.7500000e+00 
0.0000000e+00 0.0000000e+00 4.0000000e+00 
0.0000000e+00 0.0000000e+00 4.2500000e+00 
0.0000000e+00 0.0000000e+00 4.5000000e+00 
0.0000000e+00 0.0000000e+00 4.7500000e+00 
0.0000000e+00 0.0000000e+00 5.0000000e+00 
0.0000000e+00 0.0000000e+00 5.2500000e+00 
0.0000000e+00 0.0000000e+00 5.5000000e+00 
0.0000000e+00 0.0000000e+00 5.7500000e+00 
0.0000000e+00 0.0000000e+00 6.0000000e+00 
0.0000000e+00 0.0000000e+00 6.2500000e+00 
0.0000000e+00 0.0000000e+00 6.5000000e+00 
0.0000000e+00 0.0000000e+00 6.7500000e+00 
0.0000000e+00 0.0000000e+00 7.0000000e+00 
0.0000000e+00 0.0000000e+00 7.2500000e+00 
0.0000000e+00 0.0000000e+00 7.5000000e+00 
0.0000000e+00 0.0000000e+00 7.7500000e+00 
0.0000000e+00 0.0000000e+00 8.0000000e+00 
0.0000000e+00 0.0000000e+00 8.2500000e+00 
0.0000000e+00 0.0000000e+00 8.5000000e+00 
0.0000000e+00 0.0000000e+00 8.7500000e+00 
0.0000000e+00 0.0000000e+00 9.0000000e+00 
0.0000000e+00 0.0000000e+00 9.2500000e+00 
0.0000000e+00 0.0000000e+00 9.5000000e+00 
0.0000000e+00 0.0000000e+00 9.7500000e+00 
0.0000000e+00 0.0000000e+00 1.0000000e+01 
0.0000000e+00 0.0000000e+00 1.0250000e+01 
0.0000000e+00 0.0000000e+00 1.0500000e+01 
0.0000000e+00 0.0000000e+00 1.0750000e+01 
0.0000000e+00 0.0000000e+00 1.1000000e+01 
0.0000000e+00 0.0000000e+00 1.1250000e+01 
0.0000000e+00 0.0000000e+00 1.1500000e+01 
0.0000000e+00 0.0000000e+00 1.1750000e+01 
0.0000000e+00 0.0000000e+00 1.2000000e+01 
0.0000000e+00 0.0000000e+00 1.2250000e+01 
0.0000000e+00 0.0000000e+00 1.2500000e+01 
0.0000000e+00 0.0000000e+00 1.2750000e+01 
0.0000000e+00 0.0000000e+00 1.3000000e+01 
0.0000000e+00 0.0000000e+00 1.3250000e+01 
0.0000000e+00 0.0000000e+00 1.3500000e+01 
0.0000000e+00 0.0000000e+00 1.3750000e+01 
0.0000000e+00 0.0000000e+00 1.4000000e+01 
0.0000000e+00 0.0000000e+00 1.4250000e+01 
0.0000000e+00 0.0000000e+00 1.4500000e+01 
0.0000000e+00 0.0000000e+00 1.4750000e+01 
0.0000000e+00 0.0000000e+00 1.5000000e+01 
0.0000000e+00 0.0000000e+00 1.5250000e+01 
0.0000000e+00 0.0000000e+00 1.5500000e+01 
0.0000000e+00 0.0000000e+00 1.5750000e+01 
0.0000000e+00 0.0000000e+00 1.6000000e+01 
0.0000000e+00 0.0000000e+00 1.6250000e+01 
0.0000000e+00 0.0000000e+00 1.6500000e+01 
0.0000000e+00 0.0000000e+00 1.6750000e+01 
0.0000000e+00 0.0000000e+00 1.7000000e+01 
0.0000000e+00 0.0000000e+00 1.7250000e+01 
0.0000000e+00 0.0000000e+00 1.7500000e+01 
0.0000000e+00 0.0000000e+00 1.7750000e+01 
0.0000000e+00 0.0000000e+00 1.8000000e+01 
6.0000000e+00 0.0000000e+00 0.0000000e+00 
6.0000000e+00 0.0000000e+00 2.5000000e-01 
6.0000000e+00 0.0000000e+00 5.0000000e-01 
6.0000000e+00 0.0000000e+00 7.5000000e-01 
6.0000000e+00 0.0000000e+00 1.0000000e+00 
6.0000000e+00 0.0000000e+00 1.2500000e+00 
6.0000000e+00 0.0000000e+00 1.5000000e+00 
6.0000000e+00 0.0000000e+00 1.7500000e+00 
6.0000000e+00 0.0000000e+00 2.0000000e+00 
6.0000000e+00 0.0000000e+00 2.2500000e+00 
6.0000000e+00 0.0000000e+00 2.5000000e+00 
6.0000000e+00 0.0000000e+00 2.7500000e+00 
6.0000000e+00 0.0000000e+00 3.0000000e+00 
6.0000000e+00 0.0000000e+00 3.2500000e+00 
6.0000000e+00 0.0000000e+00 3.5000000e+00 
6.0000000e+00 0.0000000e+00 3.7500000e+00 
6.0000000e+00 0.0000000e+00 4.0000000e+00 
6.0000000e+00 0.0000000e+00 4.2500000e+00 
6.0000000e+00 0.0000000e+00 4.5000000e+00 
6.0000000e+00 0.0000000e+00 4.7500000e+00 
6.0000000e+00 0.0000000e+00 5.0000000e+00 
6.0000000e+00 0.0000000e+00 5.2500000e+00 
6.0000000e+00 0.0000000e+00 5.5000000e+00 
6.0000000e+00 0.0000000e+00 5.7500000e+00 
6.0000000e+00 0.0000000e+00 6.0000000e+00 
6.0000000e+00 0.0000000e+00 6.2500000e+00 
6.0000000e+00 0.0000000e+00 6.5000000e+00 
6.0000000e+00 0.0000000e+00 6.7500000e+00 
6.0000000e+00 0.0000000e+00 7.0000000e+00 
6.0000000e+00 0.0000000e+00 7.2500000e+00 
6.0000000e+00 0.0000000e+00 7.5000000e+00 
6.0000000e+00 0.0000000e+00 7.7500000e+00 
6.0000000e+00 0.0000000e+00 8.0000000e+00 
6.0000000e+00 0.0000000e+00 8.2500000e+00 
6.0000000e+00 0.0000000e+00 8.5000000e+00 
6.0000000e+00 0.0000000e+00 8.7500000e+00 
6.0000000e+00 0.0000000e+00 9.0000000e+00 
6.0000000e+00 0.0000000e+00 9.2500000e+00 
6.0000000e+00 0.0000000e+00 9.5000000e+00 
6.0000000e+00 0.0000000e+00 9.7500000e+00 
6.0000000e+00 0.0000000e+00 1.0000000e+01 
6.0000000e+00 0.0000000e+00 1.0250000e+01 
6.0000000e+00 0.0000000e+00 1.0500000e+01 
6.0000000e+00 0.0000000e+00 1.0750000e+01 
6.0000000e+00 0.0000000e+00 1.1000000e+01 
6.0000000e+00 0.0000000e+00 1.1250000e+01 
6.0000000e+00 0.0000000e+00 1.1500000e+01 
6.0000000e+00 0.0000000e+00 1.1750000e+01 
6.0000000e+00 0.0000000e+00 1.2000000e+01 
6.0000000e+00 0.0000000e+00 1.2250000e+01 
6.0000000e+00 0.0000000e+00 1.2500000e+01 
6.0000000e+00 0.0000000e+00 1.2750000e+01 
6.0000000e+00 0.0000000e+00 1.3000000e+01 
6.0000000e+00 0.0000000e+00 1.3250000e+01 
6.0000000e+00 0.0000000e+00 1.3500000e+01 
6.0000000e+00 0.0000000e+00 1.3750000e+01 
6.0000000e+00 0.0000000e+00 1.4000000e+01 
6.0000000e+00 0.0000000e+00 1.4250000e+01 
6.0000000e+00 0.0000000e+00 1.4500000e+01 
6.0000000e+00 0.0000000e+00 1.4750000e+01 
6.0000000e+00 0.0000000e+00 1.5000000e+01 
6.0000000e+00 0.0000000e+00 1.5250000e+01 
6.0000000e+00 0.0000000e+00 1.5500000e+01 
6.0000000e+00 0.0000000e+00 1.5750000e+01 
6.0000000e+00 0.0000000e+00 1.6000000e+01 
6.0000000e+00 0.0000000e+00 1.6250000e+01 
6.0000000e+00 0.0000000e+00 1.6500000e+01 
6.0000000e+00 0.0000000e+00 1.6750000e+01 
6.0000000e+00 0.0000000e+00 1.7000000e+01 
6.0000000e+00 0.0000000e+00 1.7250000e+01 
6.0000000e+00 0.0000000e+00 1.7500000e+01 
6.0000000e+00 0.0000000e+00 1.7750000e+01 
6.0000000e+00 0.0000000e+00 1.8000000e+01 
5.0000000e-01 0.0000000e+00 3.0000000e+00 
1.0000000e+00 0.0000000e+00 3.0000000e+00 
1.5000000e+00 0.0000000e+00 3.0000000e+00 
2.0000000e+00 0.0000000e+00 3.0000000e+00 
2.5000000e+00 0.0000000e+00 3.0000000e+00 
3.0000000e+00 0.0000000e+00 3.0000000e+00 
3.5000000e+00 0.0000000e+00 3.0000000e+00 
4.0000000e+00 0.0000000e+00 3.0000000e+00 
4.5000000e+00 0.0000000e+00 3.0000000e+00 
5.0000000e+00 0.0000000e+00 3.0000000e+00 
5.5000000e+00 0.0000000e+00 3.0000000e+00 
5.0000000e-01 0.0000000e+00 6.0000000e+00 
1.0000000e+00 0.0000000e+00 6.0000000e+00 
1.5000000e+00 0.0000000e+00 6.0000000e+00 
2.0000000e+00 0.0000000e+00 6.0000000e+00 
2.5000000e+00 0.0000000e+00 6.0000000e+00 
3.0000000e+00 0.0000000e+00 6.0000000e+00 
3.5000000e+00 0.0000000e+00 6.0000000e+00 
4.0000000e+00 0.0000000e+00 6.0000000e+00 
4.5000000e+00 0.0000000e+00 6.0000000e+00 
5.0000000e+00 0.0000000e+00 6.0000000e+00 
5.5000000e+00 0.0000000e+00 6.0000000e+00 
5.0000000e-01 0.0000000e+00 9.0000000e+00 
1.0000000e+00 0.0000000e+00 9.0000000e+00 
1.5000000e+00 0.0000000e+00 9.0000000e+00 
2.0000000e+00 0.0000000e+00 9.0000000e+00 
2.5000000e+00 0.0000000e+00 9.0000000e+00 
3.0000000e+00 0.0000000e+00 9.0000000e+00 
3.5000000e+00 0.0000000e+00 9.0000000e+00 
4.0000000e+00 0.0000000e+00 9.0000000e+00 
4.5000000e+00 0.0000000e+00 9.0000000e+00 
5.0000000e+00 0.0000000e+00 9.0000000e+00 
5.5000000e+00 0.0000000e+00 9.0000000e+00 
5.0000000e-01 0.0000000e+00 1.2000000e+01 
1.0000000e+00 0.0000000e+00 1.2000000e+01 
1.5000000e+00 0.0000000e+00 1.2000000e+01 
2.0000000e+00 0.0000000e+00 1.2000000e+01 
2.5000000e+00 0.0000000e+00 1.2000000e+01 
3.0000000e+00 0.0000000e+00 1.2000000e+01 
3.5000000e+00 0.0000000e+00 1.2000000e+01 
4.0000000e+00 0.0000000e+00 1.2000000e+01 
4.5000000e+00 0.0000000e+00 1.2000000e+01 
5.0000000e+00 0.0000000e+00 1.2000000e+01 
5.5000000e+00 0.0000000e+00 1.2000000e+01 
5.0000000e-01 0.0000000e+00 1.5000000e+01 
1.0000000e+00 0.0000000e+00 1.5000000e+01 
1.5000000e+00 0.0000000e+00 1.5000000e+01 
2.0000000e+00 0.0000000e+00 1.5000000e+01 
2.5000000e+00 0.0000000e+00 1.5000000e+01 
3.0000000e+00 0.0000000e+00 1.5000000e+01 
3.5000000e+00 0.0000000e+00 1.5000000e+01 
4.0000000e+00 0.0000000e+00 1.5000000e+01 
4.5000000e+00 0.0000000e+00 1.5000000e+01 
5.0000000e+00 0.0000000e+00 1.5000000e+01 
5.5000000e+00 0.0000000e+00 1.5000000e+01 
5.0000000e-01 0.0000000e+00 1.8000000e+01 
1.0000000e+00 0.0000000e+00 1.8000000e+01 
1.5000000e+00 0.0000000e+00 1.8000000e+01 
2.0000000e+00 0.0000000e+00 1.8000000e+01 
2.5000000e+00 0.0000000e+00 1.8000000e+01 
3.0000000e+00 0.0000000e+00 1.8000000e+01 
3.5000000e+00 0.0000000e+00 1.8000000e+01 
4.0000000e+00 0.0000000e+00 1.8000000e+01 
4.5000000e+00 0.0000000e+00 1.8000000e+01 
5.0000000e+00 0.0000000e+00 1.8000000e+01 
5.5000000e+00 0.0000000e+00 1.8000000e+01 

CELLS 216 648
2 0 1
2 1 2
2 2 3
2 3 4
2 4 5
2 5 6
2 6 7
2 7 8
2 8 9
2 9 10
2 10 11
2 11 12
2 12 13
2 13 14
2 14 15
2 15 16
2 16 17
2 17 18
2 18 19
2 19 20
2 20 21
2 21 22
2 22 23
2 23 24
2 24 25
2 25 26
2 26 27
2 27 28
2 28 29
2 29 30
2 30 31
2 31 32
2 32 33
2 33 34
2 34 35
2 35 36
2 36 37
2 37 38
2 38 39
2 39 40
2 40 41
2 41 42
2 42 43
2 43 44
2 44 45
2 45 46
2 46 47
2 47 48
2 48 49
2 49 50
2 50 51
2 51 52
2 52 53
2 53 54
2 54 55
2 55 56
2 56 57
2 57 58
2 58 59
2 59 60
2 60 61
2 61 62
2 62 63
2 63 64
2 64 65
2 65 66
2 66 67
2 67 68
2 68 69
2 69 70
2 70 71
2 71 72
2 73 74
2 74 75
2 75 76
2 76 77
2 77 78
2 78 79
2 79 80
2 80 81
2 81 82
2 82 83
2 83 84
2 84 85
2 85 86
2 86 87
2 87 88
2 88 89
2 89 90
2 90 91
2 91 92
2 92 93
2 93 94
2 94 95
2 95 96
2 96 97
2 97 98
2 98 99
2 99 100
2 100 101
2 101 102
2 102 103
2 103 104
2 104 105
2 105 106
2 106 107
2 107 108
2 108 109
2 109 110
2 110 111
2 111 112
2 112 113
2 113 114
2 114 115
2 115 116
2 116 117
2 117 118
2 118 119
2 119 120
2 120 121
2 121 122
2 122 123
2 123 124
2 124 125
2 125 126
2 126 127
2 127 128
2 128 129
2 129 130
2 130 131
2 131 132
2 132 133
2 133 134
2 134 135
2 135 136
2 136 137
2 137 138
2 138 139
2 139 140
2 140 141
2 141 142
2 142 143
2 143 144
2 144 145
2 12 146
2 146 147
2 147 148
2 148 149
2 149 150
2 150 151
2 151 152
2 152 153
2 153 154
2 154 155
2 155 156
2 156 85
2 24 157
2 157 158
2 158 159
2 159 160
2 160 161
2 161 162
2 162 163
2 163 164
2 164 165
2 165 166
2 166 167
2 167 97
2 36 168
2 168 169
2 169 170
2 170 171
2 171 172
2 172 173
2 173 174
2 174 175
2 175 176
2 176 177
2 177 178
2 178 109
2 48 179
2 179 180
2 180 181
2 181 182
2 182 183
2 183 184
2 184 185
2 185 186
2 186 187
2 187 188
2 188 189
2 189 121
2 60 190
2 190 191
2 191 192
2 192 193
2 193 194
2 194 195
2 195 196
2 196 197
2 197 198
2 198 199
2 199 200
2 200 133
2 72 201
2 201 202
2 202 203
2 203 204
2 204 205
2 205 206
2 206 207
2 207 208
2 208 209
2 209 210
2 210 211
2 211 145

CELL_TYPES 216
3
3
3
3
3
3
3
3
3
3
3
3
3
3
3
3
3
3
3
3
3
3
3
3
3
3
3
3
3
3
3
3
3
3
3
3
3
3
3
3
3
3
3
3
3
3
3
3
3
3
3
3
3
3
3
3
3
3
3
3
3
3
3
3
3
3
3
3
3
3
3
3
3
3
3
3
3
3
3
3
3
3
3
3
3
3
3
3
3
3
3
3
3
3
3
3
3
3
3
3
3
3
3
3
3
3
3
3
3
3
3
3
3
3
3
3
3
3
3
3
3
3
3
3
3
3
3
3
3
3
3
3
3
3
3
3
3
3
3
3
3
3
3
3
3
3
3
3
3
3
3
3
3
3
3
3
3
3
3
3
3
3
3
3
3
3
3
3
3
3
3
3
3
3
3
3
3
3
3
3
3
3
3
3
3
3
3
3
3
3
3
3
3
3
3
3
3
3
3
3
3
3
3
3
3
3
3
3
3
3
3
3
3
3
3
3
POINT_DATA 212
FIELD FieldData 3
ADJOINT_DISPLACEMENT 3 212  float
0.0000000e+00 0.0000000e+00 0.0000000e+00 
-6.4549364e-05 0.0000000e+00 5.3691867e-17 
-1.3632672e-04 0.0000000e+00 1.0738373e-16 
-2.2256006e-04 0.0000000e+00 1.6107560e-16 
-3.3047740e-04 0.0000000e+00 2.1476747e-16 
-4.6730670e-04 0.0000000e+00 2.6845934e-16 
-6.4027595e-04 0.0000000e+00 3.2215119e-16 
-8.5661316e-04 0.0000000e+00 3.7584305e-16 
-1.1235464e-03 0.0000000e+00 4.2953493e-16 
-1.4483035e-03 0.0000000e+00 4.8322679e-16 
-1.8381126e-03 0.0000000e+00 5.3691867e-16 
-2.3002014e-03 0.0000000e+00 5.9061050e-16 
-2.8417986e-03 0.0000000e+00 6.4430239e-16 
-3.5057459e-03 0.0000000e+00 7.8911855e-09 
-4.3011401e-03 0.0000000e+00 1.5782371e-08 
-5.1845894e-03 0.0000000e+00 2.3673556e-08 
-6.1127013e-03 0.0000000e+00 3.1564742e-08 
-7.0420848e-03 0.0000000e+00 3.9455927e-08 
-7.9293475e-03 0.0000000e+00 4.7347111e-08 
-8.7310979e-03 0.0000000e+00 5.5238296e-08 
-9.4039431e-03 0.0000000e+00 6.3129484e-08 
-9.9044926e-03 0.0000000e+00 7.1020665e-08 
-1.0189354e-02 0.0000000e+00 7.8911853e-08 
-1.0215136e-02 0.0000000e+00 8.6803034e-08 
-9.9384468e-03 0.0000000e+00 9.4694222e-08 
-9.4149681e-03 0.0000000e+00 1.3415041e-07 
-8.8547627e-03 0.0000000e+00 1.7360659e-07 
-8.4460070e-03 0.0000000e+00 2.1306279e-07 
-8.3768778e-03 0.0000000e+00 2.5251896e-07 
-8.8355513e-03 0.0000000e+00 2.9197517e-07 
-1.0010204e-02 0.0000000e+00 3.3143135e-07 
-1.2089014e-02 0.0000000e+00 3.7088753e-07 
-1.5260156e-02 0.0000000e+00 4.1034372e-07 
-1.9711807e-02 0.0000000e+00 4.4979990e-07 
-2.5632145e-02 0.0000000e+00 4.8925608e-07 
-3.3209346e-02 0.0000000e+00 5.2871229e-07 
-4.2631589e-02 0.0000000e+00 5.6816850e-07 
-5.4730196e-02 0.0000000e+00 7.5755952e-07 
-6.9675177e-02 0.0000000e+00 9.4695059e-07 
-8.6662717e-02 0.0000000e+00 1.1363417e-06 
-1.0488901e-01 0.0000000e+00 1.3257328e-06 
-1.2355024e-01 0.0000000e+00 1.5151238e-06 
-1.4184259e-01 0.0000000e+00 1.7045149e-06 
-1.5896225e-01 0.0000000e+00 1.8939060e-06 
-1.7410541e-01 0.0000000e+00 2.0832970e-06 
-1.8646824e-01 0.0000000e+00 2.2726881e-06 
-1.9524696e-01 0.0000000e+00 2.4620792e-06 
-1.9963774e-01 0.0000000e+00 2.6514701e-06 
-1.9883676e-01 0.0000000e+00 2.8408613e-06 
-1.9388202e-01 0.0000000e+00 3.7483667e-06 
-1.8660828e-01 0.0000000e+00 4.6558721e-06 
-1.7740697e-01 0.0000000e+00 5.5633777e-06 
-1.6666943e-01 0.0000000e+00 6.4708834e-06 
-1.5478706e-01 0.0000000e+00 7.3783885e-06 
-1.4215127e-01 0.0000000e+00 8.2858942e-06 
-1.2915342e-01 0.0000000e+00 9.1933998e-06 
-1.1618490e-01 0.0000000e+00 1.0100905e-05 
-1.0363711e-01 0.0000000e+00 1.1008410e-05 
-9.1901414e-02 0.0000000e+00 1.1915916e-05 
-8.1369221e-02 0.0000000e+00 1.2823421e-05 
-7.2431915e-02 0.0000000e+00 1.3730927e-05 
-6.3324325e-02 0.0000000e+00 1.3912427e-05 
-5.2249905e-02 0.0000000e+00 1.4093926e-05 
-3.9552934e-02 0.0000000e+00 1.4275427e-05 
-2.5577690e-02 0.0000000e+00 1.4456927e-05 
-1.0668458e-02 0.0000000e+00 1.4638426e-05 
4.8304806e-03 0.0000000e+00 1.4819926e-05 
2.0574845e-02 0.0000000e+00 1.5001427e-05 
3.6220353e-02 0.0000000e+00 1.5182926e-05 
5.1422723e-02 0.0000000e+00 1.5364427e-05 
6.5837674e-02 0.0000000e+00 1.5545926e-05 
7.9120919e-02 0.0000000e+00 1.5727426e-05 
9.0928189e-02 0.0000000e+00 1.5908925e-05 
0.0000000e+00 0.0000000e+00 0.0000000e+00 
-4.0892174e-04 0.0000000e+00 -5.7744321e-17 
-8.1061549e-04 0.0000000e+00 -1.1548843e-16 
-1.1978532e-03 0.0000000e+00 -1.7323248e-16 
-1.5634070e-03 0.0000000e+00 -2.3097622e-16 
-1.9000488e-03 0.0000000e+00 -2.8871984e-16 
-2.2005506e-03 0.0000000e+00 -3.4646382e-16 
-2.4576846e-03 0.0000000e+00 -4.0420807e-16 
-2.6642224e-03 0.0000000e+00 -4.6195160e-16 
-2.8129364e-03 0.0000000e+00 -5.1969458e-16 
-2.8965983e-03 0.0000000e+00 -5.7743792e-16 
-2.9079805e-03 0.0000000e+00 -6.3518101e-16 
-2.8398547e-03 0.0000000e+00 -6.9292457e-16 
-2.7085622e-03 0.0000000e+00 -7.8911855e-09 
-2.5641907e-03 0.0000000e+00 -1.5782371e-08 
-2.4501323e-03 0.0000000e+00 -2.3673556e-08 
-2.4097783e-03 0.0000000e+00 -3.1564742e-08 
-2.4865211e-03 0.0000000e+00 -3.9455927e-08 
-2.7237523e-03 0.0000000e+00 -4.7347111e-08 
-3.1648639e-03 0.0000000e+00 -5.5238296e-08 
-3.8532475e-03 0.0000000e+00 -6.3129484e-08 
-4.8322948e-03 0.0000000e+00 -7.1020665e-08 
-6.1453981e-03 0.0000000e+00 -7.8911853e-08 
-7.8359488e-03 0.0000000e+00 -8.6803034e-08 
-9.9473391e-03 0.0000000e+00 -9.4694222e-08 
-1.2660624e-02 0.0000000e+00 -1.3415041e-07 
-1.6002478e-02 0.0000000e+00 -1.7360659e-07 
-1.9784724e-02 0.0000000e+00 -2.1306279e-07 
-2.3819190e-02 0.0000000e+00 -2.5251896e-07 
-2.7917692e-02 0.0000000e+00 -2.9197517e-07 
-3.1892058e-02 0.0000000e+00 -3.3143135e-07 
-3.5554111e-02 0.0000000e+00 -3.7088753e-07 
-3.8715675e-02 0.0000000e+00 -4.1034372e-07 
-4.1188572e-02 0.0000000e+00 -4.4979990e-07 
-4.2784624e-02 0.0000000e+00 -4.8925608e-07 
-4.3315656e-02 0.0000000e+00 -5.2871229e-07 
-4.2593494e-02 0.0000000e+00 -5.6816850e-07 
-4.0911317e-02 0.0000000e+00 -7.5755952e-07 
-3.9223630e-02 0.0000000e+00 -9.4695059e-07 
-3.8334254e-02 0.0000000e+00 -1.1363417e-06 
-3.9046992e-02 0.0000000e+00 -1.3257328e-06 
-4.2165663e-02 0.0000000e+00 -1.5151238e-06 
-4.8494074e-02 0.0000000e+00 -1.7045149e-06 
-5.8836043e-02 0.0000000e+00 -1.8939060e-06 
-7.3995382e-02 0.0000000e+00 -2.0832970e-06 
-9.4775900e-02 0.0000000e+00 -2.2726881e-06 
-1.2198140e-01 0.0000000e+00 -2.4620792e-06 
-1.5641572e-01 0.0000000e+00 -2.6514701e-06 
-1.9888265e-01 0.0000000e+00 -2.8408613e-06 
-2.5373009e-01 0.0000000e+00 -3.7483667e-06 
-3.2450908e-01 0.0000000e+00 -4.6558721e-06 
-4.1082823e-01 0.0000000e+00 -5.5633777e-06 
-5.1229620e-01 0.0000000e+00 -6.4708834e-06 
-6.2852156e-01 0.0000000e+00 -7.3783885e-06 
-5.0911295e-01 0.0000000e+00 -8.2858942e-06 
-4.0367898e-01 0.0000000e+00 -9.1933998e-06 
-3.1182826e-01 0.0000000e+00 -1.0100905e-05 
-2.3316941e-01 0.0000000e+00 -1.1008410e-05 
-1.6731101e-01 0.0000000e+00 -1.1915916e-05 
-1.1386171e-01 0.0000000e+00 -1.2823421e-05 
-7.2430104e-02 0.0000000e+00 -1.3730927e-05 
-3.9336316e-02 0.0000000e+00 -1.3912427e-05 
-1.0931860e-02 0.0000000e+00 -1.4093926e-05 
1.3127546e-02 0.0000000e+00 -1.4275427e-05 
3.3186182e-02 0.0000000e+00 -1.4456927e-05 
4.9588330e-02 0.0000000e+00 -1.4638426e-05 
6.2678277e-02 0.0000000e+00 -1.4819926e-05 
7.2800294e-02 0.0000000e+00 -1.5001427e-05 
8.0298677e-02 0.0000000e+00 -1.5182926e-05 
8.5517697e-02 0.0000000e+00 -1.5364427e-05 
8.8801637e-02 0.0000000e+00 -1.5545926e-05 
9.0494782e-02 0.0000000e+00 -1.5727426e-05 
9.0941407e-02 0.0000000e+00 -1.5908925e-05 
-2.8416365e-03 0.0000000e+00 9.9789118e-04 
-2.8414745e-03 0.0000000e+00 1.6828279e-03 
-2.8413124e-03 0.0000000e+00 2.0942660e-03 
-2.8411506e-03 0.0000000e+00 2.2716615e-03 
-2.8409886e-03 0.0000000e+00 2.2544703e-03 
-2.8408265e-03 0.0000000e+00 2.0821481e-03 
-2.8406647e-03 0.0000000e+00 1.7941510e-03 
-2.8405027e-03 0.0000000e+00 1.4299351e-03 
-2.8403406e-03 0.0000000e+00 1.0289560e-03 
-2.8401786e-03 0.0000000e+00 6.3066994e-04 
-2.8400167e-03 0.0000000e+00 2.7453259e-04 
-9.9391881e-03 0.0000000e+00 -1.1002999e-03 
-9.9399285e-03 0.0000000e+00 -2.5267091e-03 
-9.9406699e-03 0.0000000e+00 -4.1213077e-03 
-9.9414112e-03 0.0000000e+00 -5.7262708e-03 
-9.9421516e-03 0.0000000e+00 -7.1837734e-03 
-9.9428929e-03 0.0000000e+00 -8.3359899e-03 
-9.9436343e-03 0.0000000e+00 -9.0250969e-03 
-9.9443747e-03 0.0000000e+00 -9.0932678e-03 
-9.9451160e-03 0.0000000e+00 -8.3826780e-03 
-9.9458573e-03 0.0000000e+00 -6.7355023e-03 
-9.9465977e-03 0.0000000e+00 -3.9939163e-03 
-4.2628411e-02 0.0000000e+00 1.7706547e-02 
-4.2625237e-02 0.0000000e+00 2.9694326e-02 
-4.2622063e-02 0.0000000e+00 3.6713578e-02 
-4.2618889e-02 0.0000000e+00 3.9513979e-02 
-4.2615715e-02 0.0000000e+00 3.8845200e-02 
-4.2612541e-02 0.0000000e+00 3.5456918e-02 
-4.2609368e-02 0.0000000e+00 3.0098809e-02 
-4.2606194e-02 0.0000000e+00 2.3520546e-02 
-4.2603020e-02 0.0000000e+00 1.6471801e-02 
-4.2599842e-02 0.0000000e+00 9.7022513e-03 
-4.2596668e-02 0.0000000e+00 3.9615696e-03 
-1.9884059e-01 0.0000000e+00 -1.3298692e-02 
-1.9884440e-01 0.0000000e+00 -3.6150422e-02 
-1.9884823e-01 0.0000000e+00 -6.4961784e-02 
-1.9885206e-01 0.0000000e+00 -9.6142195e-02 
-1.9885588e-01 0.0000000e+00 -1.2610109e-01 
-1.9885971e-01 0.0000000e+00 -1.5124790e-01 
-1.9886354e-01 0.0000000e+00 -1.6799204e-01 
-1.9886735e-01 0.0000000e+00 -1.7274296e-01 
-1.9887118e-01 0.0000000e+00 -1.6191007e-01 
-1.9887501e-01 0.0000000e+00 -1.3190280e-01 
-1.9887882e-01 0.0000000e+00 -7.9130583e-02 
-7.2431765e-02 0.0000000e+00 -8.0153253e-03 
-7.2431609e-02 0.0000000e+00 -2.4848753e-03 
-7.2431460e-02 0.0000000e+00 1.2975052e-02 
-7.2431311e-02 0.0000000e+00 3.4734428e-02 
-7.2431162e-02 0.0000000e+00 5.9163228e-02 
-7.2431006e-02 0.0000000e+00 8.2631417e-02 
-7.2430857e-02 0.0000000e+00 1.0150898e-01 
-7.2430708e-02 0.0000000e+00 1.1216587e-01 
-7.2430559e-02 0.0000000e+00 1.1097208e-01 
-7.2430409e-02 0.0000000e+00 9.4297566e-02 
-7.2430253e-02 0.0000000e+00 5.8512304e-02 
9.0929285e-02 0.0000000e+00 -1.8403837e-02 
9.0930387e-02 0.0000000e+00 -3.0450022e-02 
9.0931490e-02 0.0000000e+00 -3.7030146e-02 
9.0932593e-02 0.0000000e+00 -3.9051708e-02 
9.0933695e-02 0.0000000e+00 -3.7422206e-02 
9.0934798e-02 0.0000000e+00 -3.3049144e-02 
9.0935901e-02 0.0000000e+00 -2.6840016e-02 
9.0937003e-02 0.0000000e+00 -1.9702327e-02 
9.0938099e-02 0.0000000e+00 -1.2543570e-02 
9.0939201e-02 0.0000000e+00 -6.2712491e-03 
9.0940304e-02 0.0000000e+00 -1.7928622e-03 
ADJOINT_ROTATION 3 212  float
0.0000000e+00 -2.5337879e-04 0.0000000e+00 
0.0000000e+00 -2.6783478e-04 0.0000000e+00 
0.0000000e+00 -3.1120275e-04 0.0000000e+00 
0.0000000e+00 -3.8348269e-04 0.0000000e+00 
0.0000000e+00 -4.8467459e-04 0.0000000e+00 
0.0000000e+00 -6.1477849e-04 0.0000000e+00 
0.0000000e+00 -7.7379431e-04 0.0000000e+00 
0.0000000e+00 -9.6172217e-04 0.0000000e+00 
0.0000000e+00 -1.1785619e-03 0.0000000e+00 
0.0000000e+00 -1.4243138e-03 0.0000000e+00 
0.0000000e+00 -1.6989774e-03 0.0000000e+00 
0.0000000e+00 -2.0025531e-03 0.0000000e+00 
0.0000000e+00 -2.3350408e-03 0.0000000e+00 
0.0000000e+00 -2.9476113e-03 0.0000000e+00 
0.0000000e+00 -3.3866144e-03 0.0000000e+00 
0.0000000e+00 -3.6520502e-03 0.0000000e+00 
0.0000000e+00 -3.7439186e-03 0.0000000e+00 
0.0000000e+00 -3.6622197e-03 0.0000000e+00 
0.0000000e+00 -3.4069535e-03 0.0000000e+00 
0.0000000e+00 -2.9781200e-03 0.0000000e+00 
0.0000000e+00 -2.3757189e-03 0.0000000e+00 
0.0000000e+00 -1.5997507e-03 0.0000000e+00 
0.0000000e+00 -6.5021514e-04 0.0000000e+00 
0.0000000e+00 4.7288777e-04 0.0000000e+00 
0.0000000e+00 1.7695581e-03 0.0000000e+00 
0.0000000e+00 2.2928191e-03 0.0000000e+00 
0.0000000e+00 2.0633738e-03 0.0000000e+00 
0.0000000e+00 1.0812217e-03 0.0000000e+00 
0.0000000e+00 -6.5363693e-04 0.0000000e+00 
0.0000000e+00 -3.1412020e-03 0.0000000e+00 
0.0000000e+00 -6.3814740e-03 0.0000000e+00 
0.0000000e+00 -1.0374452e-02 0.0000000e+00 
0.0000000e+00 -1.5120137e-02 0.0000000e+00 
0.0000000e+00 -2.0618528e-02 0.0000000e+00 
0.0000000e+00 -2.6869627e-02 0.0000000e+00 
0.0000000e+00 -3.3873431e-02 0.0000000e+00 
0.0000000e+00 -4.1629944e-02 0.0000000e+00 
0.0000000e+00 -5.4623056e-02 0.0000000e+00 
0.0000000e+00 -6.4400926e-02 0.0000000e+00 
0.0000000e+00 -7.0963539e-02 0.0000000e+00 
0.0000000e+00 -7.4310906e-02 0.0000000e+00 
0.0000000e+00 -7.4443020e-02 0.0000000e+00 
0.0000000e+00 -7.1359888e-02 0.0000000e+00 
0.0000000e+00 -6.5061510e-02 0.0000000e+00 
0.0000000e+00 -5.5547874e-02 0.0000000e+00 
0.0000000e+00 -4.2818993e-02 0.0000000e+00 
0.0000000e+00 -2.6874861e-02 0.0000000e+00 
0.0000000e+00 -7.7154790e-03 0.0000000e+00 
0.0000000e+00 1.4659151e-02 0.0000000e+00 
0.0000000e+00 2.4717864e-02 0.0000000e+00 
0.0000000e+00 3.3211030e-02 0.0000000e+00 
0.0000000e+00 4.0138647e-02 0.0000000e+00 
0.0000000e+00 4.5500722e-02 0.0000000e+00 
0.0000000e+00 4.9297247e-02 0.0000000e+00 
0.0000000e+00 5.1528227e-02 0.0000000e+00 
0.0000000e+00 5.2193660e-02 0.0000000e+00 
0.0000000e+00 5.1293548e-02 0.0000000e+00 
0.0000000e+00 4.8827890e-02 0.0000000e+00 
0.0000000e+00 4.4796683e-02 0.0000000e+00 
0.0000000e+00 3.9199933e-02 0.0000000e+00 
0.0000000e+00 3.2037634e-02 0.0000000e+00 
0.0000000e+00 4.0593535e-02 0.0000000e+00 
0.0000000e+00 4.7772307e-02 0.0000000e+00 
0.0000000e+00 5.3573951e-02 0.0000000e+00 
0.0000000e+00 5.7998471e-02 0.0000000e+00 
0.0000000e+00 6.1045863e-02 0.0000000e+00 
0.0000000e+00 6.2716126e-02 0.0000000e+00 
0.0000000e+00 6.3009262e-02 0.0000000e+00 
0.0000000e+00 6.1925277e-02 0.0000000e+00 
0.0000000e+00 5.9464160e-02 0.0000000e+00 
0.0000000e+00 5.5625919e-02 0.0000000e+00 
0.0000000e+00 5.0410550e-02 0.0000000e+00 
0.0000000e+00 4.3818053e-02 0.0000000e+00 
0.0000000e+00 -1.6405056e-03 0.0000000e+00 
0.0000000e+00 -1.6260496e-03 0.0000000e+00 
0.0000000e+00 -1.5826817e-03 0.0000000e+00 
0.0000000e+00 -1.5104017e-03 0.0000000e+00 
0.0000000e+00 -1.4092098e-03 0.0000000e+00 
0.0000000e+00 -1.2791059e-03 0.0000000e+00 
0.0000000e+00 -1.1200900e-03 0.0000000e+00 
0.0000000e+00 -9.3216222e-04 0.0000000e+00 
0.0000000e+00 -7.1532244e-04 0.0000000e+00 
0.0000000e+00 -4.6957066e-04 0.0000000e+00 
0.0000000e+00 -1.9490691e-04 0.0000000e+00 
0.0000000e+00 1.0866880e-04 0.0000000e+00 
0.0000000e+00 4.4115650e-04 0.0000000e+00 
0.0000000e+00 5.8025587e-04 0.0000000e+00 
0.0000000e+00 5.4578786e-04 0.0000000e+00 
0.0000000e+00 3.3775254e-04 0.0000000e+00 
0.0000000e+00 -4.3850123e-05 0.0000000e+00 
0.0000000e+00 -5.9902010e-04 0.0000000e+00 
0.0000000e+00 -1.3277575e-03 0.0000000e+00 
0.0000000e+00 -2.2300621e-03 0.0000000e+00 
0.0000000e+00 -3.3059341e-03 0.0000000e+00 
0.0000000e+00 -4.5553735e-03 0.0000000e+00 
0.0000000e+00 -5.9783803e-03 0.0000000e+00 
0.0000000e+00 -7.5749541e-03 0.0000000e+00 
0.0000000e+00 -9.3450956e-03 0.0000000e+00 
0.0000000e+00 -1.2235728e-02 0.0000000e+00 
0.0000000e+00 -1.4373654e-02 0.0000000e+00 
0.0000000e+00 -1.5758874e-02 0.0000000e+00 
0.0000000e+00 -1.6391385e-02 0.0000000e+00 
0.0000000e+00 -1.6271193e-02 0.0000000e+00 
0.0000000e+00 -1.5398291e-02 0.0000000e+00 
0.0000000e+00 -1.3772684e-02 0.0000000e+00 
0.0000000e+00 -1.1394370e-02 0.0000000e+00 
0.0000000e+00 -8.2633505e-03 0.0000000e+00 
0.0000000e+00 -4.3796236e-03 0.0000000e+00 
0.0000000e+00 2.5680990e-04 0.0000000e+00 
0.0000000e+00 5.6459499e-03 0.0000000e+00 
0.0000000e+00 7.2756009e-03 0.0000000e+00 
0.0000000e+00 5.6900019e-03 0.0000000e+00 
0.0000000e+00 8.8915363e-04 0.0000000e+00 
0.0000000e+00 -7.1269441e-03 0.0000000e+00 
0.0000000e+00 -1.8358292e-02 0.0000000e+00 
0.0000000e+00 -3.2804888e-02 0.0000000e+00 
0.0000000e+00 -5.0466735e-02 0.0000000e+00 
0.0000000e+00 -7.1343832e-02 0.0000000e+00 
0.0000000e+00 -9.5436178e-02 0.0000000e+00 
0.0000000e+00 -1.2274378e-01 0.0000000e+00 
0.0000000e+00 -1.5326662e-01 0.0000000e+00 
0.0000000e+00 -1.8700472e-01 0.0000000e+00 
0.0000000e+00 -2.5151375e-01 0.0000000e+00 
0.0000000e+00 -3.1445724e-01 0.0000000e+00 
0.0000000e+00 -3.7583521e-01 0.0000000e+00 
0.0000000e+00 -4.3564761e-01 0.0000000e+00 
0.0000000e+00 -4.9389446e-01 0.0000000e+00 
0.0000000e+00 4.4942424e-01 0.0000000e+00 
0.0000000e+00 3.9430848e-01 0.0000000e+00 
0.0000000e+00 3.4075826e-01 0.0000000e+00 
0.0000000e+00 2.8877360e-01 0.0000000e+00 
0.0000000e+00 2.3835447e-01 0.0000000e+00 
0.0000000e+00 1.8950088e-01 0.0000000e+00 
0.0000000e+00 1.4221285e-01 0.0000000e+00 
0.0000000e+00 1.2276696e-01 0.0000000e+00 
0.0000000e+00 1.0469820e-01 0.0000000e+00 
0.0000000e+00 8.8006563e-02 0.0000000e+00 
0.0000000e+00 7.2692052e-02 0.0000000e+00 
0.0000000e+00 5.8754668e-02 0.0000000e+00 
0.0000000e+00 4.6194408e-02 0.0000000e+00 
0.0000000e+00 3.5011277e-02 0.0000000e+00 
0.0000000e+00 2.5205273e-02 0.0000000e+00 
0.0000000e+00 1.6776396e-02 0.0000000e+00 
0.0000000e+00 9.7246468e-03 0.0000000e+00 
0.0000000e+00 4.0500229e-03 0.0000000e+00 
0.0000000e+00 -2.4747330e-04 0.0000000e+00 
0.0000000e+00 -1.6696759e-03 0.0000000e+00 
0.0000000e+00 -1.0832228e-03 0.0000000e+00 
0.0000000e+00 -5.7568157e-04 0.0000000e+00 
0.0000000e+00 -1.4705217e-04 0.0000000e+00 
0.0000000e+00 2.0266540e-04 0.0000000e+00 
0.0000000e+00 4.7347110e-04 0.0000000e+00 
0.0000000e+00 6.6536496e-04 0.0000000e+00 
0.0000000e+00 7.7834696e-04 0.0000000e+00 
0.0000000e+00 8.1241713e-04 0.0000000e+00 
0.0000000e+00 7.6757540e-04 0.0000000e+00 
0.0000000e+00 6.4382190e-04 0.0000000e+00 
0.0000000e+00 2.5794120e-03 0.0000000e+00 
0.0000000e+00 3.0736160e-03 0.0000000e+00 
0.0000000e+00 3.2521700e-03 0.0000000e+00 
0.0000000e+00 3.1150740e-03 0.0000000e+00 
0.0000000e+00 2.6623278e-03 0.0000000e+00 
0.0000000e+00 1.8939318e-03 0.0000000e+00 
0.0000000e+00 8.0988556e-04 0.0000000e+00 
0.0000000e+00 -5.8981060e-04 0.0000000e+00 
0.0000000e+00 -2.3051568e-03 0.0000000e+00 
0.0000000e+00 -4.3361532e-03 0.0000000e+00 
0.0000000e+00 -6.6827992e-03 0.0000000e+00 
0.0000000e+00 -2.9443866e-02 0.0000000e+00 
0.0000000e+00 -1.8757138e-02 0.0000000e+00 
0.0000000e+00 -9.5697604e-03 0.0000000e+00 
0.0000000e+00 -1.8817307e-03 0.0000000e+00 
0.0000000e+00 4.3069501e-03 0.0000000e+00 
0.0000000e+00 8.9962827e-03 0.0000000e+00 
0.0000000e+00 1.2186266e-02 0.0000000e+00 
0.0000000e+00 1.3876900e-02 0.0000000e+00 
0.0000000e+00 1.4068185e-02 0.0000000e+00 
0.0000000e+00 1.2760122e-02 0.0000000e+00 
0.0000000e+00 9.9527109e-03 0.0000000e+00 
0.0000000e+00 3.7350122e-02 0.0000000e+00 
0.0000000e+00 5.2859947e-02 0.0000000e+00 
0.0000000e+00 6.1188631e-02 0.0000000e+00 
0.0000000e+00 6.2336169e-02 0.0000000e+00 
0.0000000e+00 5.6302562e-02 0.0000000e+00 
0.0000000e+00 4.3087810e-02 0.0000000e+00 
0.0000000e+00 2.2691917e-02 0.0000000e+00 
0.0000000e+00 -4.8851212e-03 0.0000000e+00 
0.0000000e+00 -3.9643303e-02 0.0000000e+00 
0.0000000e+00 -8.1582628e-02 0.0000000e+00 
0.0000000e+00 -1.3070311e-01 0.0000000e+00 
0.0000000e+00 1.2885970e-03 0.0000000e+00 
0.0000000e+00 -2.2200385e-02 0.0000000e+00 
0.0000000e+00 -3.8429312e-02 0.0000000e+00 
0.0000000e+00 -4.7398183e-02 0.0000000e+00 
0.0000000e+00 -4.9107000e-02 0.0000000e+00 
0.0000000e+00 -4.3555759e-02 0.0000000e+00 
0.0000000e+00 -3.0744461e-02 0.0000000e+00 
0.0000000e+00 -1.0673109e-02 0.0000000e+00 
0.0000000e+00 1.6658299e-02 0.0000000e+00 
0.0000000e+00 5.1249765e-02 0.0000000e+00 
0.0000000e+00 9.3101285e-02 0.0000000e+00 
0.0000000e+00 3.0163432e-02 0.0000000e+00 
0.0000000e+00 1.8323809e-02 0.0000000e+00 
0.0000000e+00 8.2991859e-03 0.0000000e+00 