# vtk DataFile Version 4.0
vtk output
ASCII
DATASET UNSTRUCTURED_GRID
POINTS 212 float
0.0000000e+00 0.0000000e+00 0.0000000e+00 
0.0000000e+00 0.0000000e+00 2.5000000e-01 
0.0000000e+00 0.0000000e+00 5.0000000e-01 
0.0000000e+00 0.0000000e+00 7.5000000e-01 
0.0000000e+00 0.0000000e+00 1.0000000e+00 
0.0000000e+00 0.0000000e+00 1.2500000e+00 
0.0000000e+00 0.0000000e+00 1.5000000e+00 
0.0000000e+00 0.0000000e+00 1.7500000e+00 
0.0000000e+00 0.0000000e+00 2.0000000e+00 
0.0000000e+00 0.0000000e+00 2.2500000e+00 
0.0000000e+00 0.0000000e+00 2.5000000e+00 
0.0000000e+00 0.0000000e+00 2.7500000e+00 
0.0000000e+00 0.0000000e+00 3.0000000e+00 
0.0000000e+00 0.0000000e+00 3.2500000e+00 
0.0000000e+00 0.0000000e+00 3.5000000e+00 
0.0000000e+00 0.0000000e+00 3.7500000e+00 
0.0000000e+00 0.0000000e+00 4.0000000e+00 
0.0000000e+00 0.0000000e+00 4.2500000e+00 
0.0000000e+00 0.0000000e+00 4.5000000e+00 
0.0000000e+00 0.0000000e+00 4.7500000e+00 
0.0000000e+00 0.0000000e+00 5.0000000e+00 
0.0000000e+00 0.0000000e+00 5.2500000e+00 
0.0000000e+00 0.0000000e+00 5.5000000e+00 
0.0000000e+00 0.0000000e+00 5.7500000e+00 
0.0000000e+00 0.0000000e+00 6.0000000e+00 
0.0000000e+00 0.0000000e+00 6.2500000e+00 
0.0000000e+00 0.0000000e+00 6.5000000e+00 
0.0000000e+00 0.0000000e+00 6.7500000e+00 
0.0000000e+00 0.0000000e+00 7.0000000e+00 
0.0000000e+00 0.0000000e+00 7.2500000e+00 
0.0000000e+00 0.0000000e+00 7.5000000e+00 
0.0000000e+00 0.0000000e+00 7.7500000e+00 
0.0000000e+00 0.0000000e+00 8.0000000e+00 
0.0000000e+00 0.0000000e+00 8.2500000e+00 
0.0000000e+00 0.0000000e+00 8.5000000e+00 
0.0000000e+00 0.0000000e+00 8.7500000e+00 
0.0000000e+00 0.0000000e+00 9.0000000e+00 
0.0000000e+00 0.0000000e+00 9.2500000e+00 
0.0000000e+00 0.0000000e+00 9.5000000e+00 
0.0000000e+00 0.0000000e+00 9.7500000e+00 
0.0000000e+00 0.0000000e+00 1.0000000e+01 
0.0000000e+00 0.0000000e+00 1.0250000e+01 
0.0000000e+00 0.0000000e+00 1.0500000e+01 
0.0000000e+00 0.0000000e+00 1.0750000e+01 
0.0000000e+00 0.0000000e+00 1.1000000e+01 
0.0000000e+00 0.0000000e+00 1.1250000e+01 
0.0000000e+00 0.0000000e+00 1.1500000e+01 
0.0000000e+00 0.0000000e+00 1.1750000e+01 
0.0000000e+00 0.0000000e+00 1.2000000e+01 
0.0000000e+00 0.0000000e+00 1.2250000e+01 
0.0000000e+00 0.0000000e+00 1.2500000e+01 
0.0000000e+00 0.0000000e+00 1.2750000e+01 
0.0000000e+00 0.0000000e+00 1.3000000e+01 
0.0000000e+00 0.0000000e+00 1.3250000e+01 
0.0000000e+00 0.0000000e+00 1.3500000e+01 
0.0000000e+00 0.0000000e+00 1.3750000e+01 
0.0000000e+00 0.0000000e+00 1.4000000e+01 
0.0000000e+00 0.0000000e+00 1.4250000e+01 
0.0000000e+00 0.0000000e+00 1.4500000e+01 
0.0000000e+00 0.0000000e+00 1.4750000e+01 
0.0000000e+00 0.0000000e+00 1.5000000e+01 
0.0000000e+00 0.0000000e+00 1.5250000e+01 
0.0000000e+00 0.0000000e+00 1.5500000e+01 
0.0000000e+00 0.0000000e+00 1.5750000e+01 
0.0000000e+00 0.0000000e+00 1.6000000e+01 
0.0000000e+00 0.0000000e+00 1.6250000e+01 
0.0000000e+00 0.0000000e+00 1.6500000e+01 
0.0000000e+00 0.0000000e+00 1.6750000e+01 
0.0000000e+00 0.0000000e+00 1.7000000e+01 
0.0000000e+00 0.0000000e+00 1.7250000e+01 
0.0000000e+00 0.0000000e+00 1.7500000e+01 
0.0000000e+00 0.0000000e+00 1.7750000e+01 
0.0000000e+00 0.0000000e+00 1.8000000e+01 
6.0000000e+00 0.0000000e+00 0.0000000e+00 
6.0000000e+00 0.0000000e+00 2.5000000e-01 
6.0000000e+00 0.0000000e+00 5.0000000e-01 
6.0000000e+00 0.0000000e+00 7.5000000e-01 
6.0000000e+00 0.0000000e+00 1.0000000e+00 
6.0000000e+00 0.0000000e+00 1.2500000e+00 
6.0000000e+00 0.0000000e+00 1.5000000e+00 
6.0000000e+00 0.0000000e+00 1.7500000e+00 
6.0000000e+00 0.0000000e+00 2.0000000e+00 
6.0000000e+00 0.0000000e+00 2.2500000e+00 
6.0000000e+00 0.0000000e+00 2.5000000e+00 
6.0000000e+00 0.0000000e+00 2.7500000e+00 
6.0000000e+00 0.0000000e+00 3.0000000e+00 
6.0000000e+00 0.0000000e+00 3.2500000e+00 
6.0000000e+00 0.0000000e+00 3.5000000e+00 
6.0000000e+00 0.0000000e+00 3.7500000e+00 
6.0000000e+00 0.0000000e+00 4.0000000e+00 
6.0000000e+00 0.0000000e+00 4.2500000e+00 
6.0000000e+00 0.0000000e+00 4.5000000e+00 
6.0000000e+00 0.0000000e+00 4.7500000e+00 
6.0000000e+00 0.0000000e+00 5.0000000e+00 
6.0000000e+00 0.0000000e+00 5.2500000e+00 
6.0000000e+00 0.0000000e+00 5.5000000e+00 
6.0000000e+00 0.0000000e+00 5.7500000e+00 
6.0000000e+00 0.0000000e+00 6.0000000e+00 
6.0000000e+00 0.0000000e+00 6.2500000e+00 
6.0000000e+00 0.0000000e+00 6.5000000e+00 
6.0000000e+00 0.0000000e+00 6.7500000e+00 
6.0000000e+00 0.0000000e+00 7.0000000e+00 
6.0000000e+00 0.0000000e+00 7.2500000e+00 
6.0000000e+00 0.0000000e+00 7.5000000e+00 
6.0000000e+00 0.0000000e+00 7.7500000e+00 
6.0000000e+00 0.0000000e+00 8.0000000e+00 
6.0000000e+00 0.0000000e+00 8.2500000e+00 
6.0000000e+00 0.0000000e+00 8.5000000e+00 
6.0000000e+00 0.0000000e+00 8.7500000e+00 
6.0000000e+00 0.0000000e+00 9.0000000e+00 
6.0000000e+00 0.0000000e+00 9.2500000e+00 
6.0000000e+00 0.0000000e+00 9.5000000e+00 
6.0000000e+00 0.0000000e+00 9.7500000e+00 
6.0000000e+00 0.0000000e+00 1.0000000e+01 
6.0000000e+00 0.0000000e+00 1.0250000e+01 
6.0000000e+00 0.0000000e+00 1.0500000e+01 
6.0000000e+00 0.0000000e+00 1.0750000e+01 
6.0000000e+00 0.0000000e+00 1.1000000e+01 
6.0000000e+00 0.0000000e+00 1.1250000e+01 
6.0000000e+00 0.0000000e+00 1.1500000e+01 
6.0000000e+00 0.0000000e+00 1.1750000e+01 
6.0000000e+00 0.0000000e+00 1.2000000e+01 
6.0000000e+00 0.0000000e+00 1.2250000e+01 
6.0000000e+00 0.0000000e+00 1.2500000e+01 
6.0000000e+00 0.0000000e+00 1.2750000e+01 
6.0000000e+00 0.0000000e+00 1.3000000e+01 
6.0000000e+00 0.0000000e+00 1.3250000e+01 
6.0000000e+00 0.0000000e+00 1.3500000e+01 
6.0000000e+00 0.0000000e+00 1.3750000e+01 
6.0000000e+00 0.0000000e+00 1.4000000e+01 
6.0000000e+00 0.0000000e+00 1.4250000e+01 
6.0000000e+00 0.0000000e+00 1.4500000e+01 
6.0000000e+00 0.0000000e+00 1.4750000e+01 
6.0000000e+00 0.0000000e+00 1.5000000e+01 
6.0000000e+00 0.0000000e+00 1.5250000e+01 
6.0000000e+00 0.0000000e+00 1.5500000e+01 
6.0000000e+00 0.0000000e+00 1.5750000e+01 
6.0000000e+00 0.0000000e+00 1.6000000e+01 
6.0000000e+00 0.0000000e+00 1.6250000e+01 
6.0000000e+00 0.0000000e+00 1.6500000e+01 
6.0000000e+00 0.0000000e+00 1.6750000e+01 
6.0000000e+00 0.0000000e+00 1.7000000e+01 
6.0000000e+00 0.0000000e+00 1.7250000e+01 
6.0000000e+00 0.0000000e+00 1.7500000e+01 
6.0000000e+00 0.0000000e+00 1.7750000e+01 
6.0000000e+00 0.0000000e+00 1.8000000e+01 
5.0000000e-01 0.0000000e+00 3.0000000e+00 
1.0000000e+00 0.0000000e+00 3.0000000e+00 
1.5000000e+00 0.0000000e+00 3.0000000e+00 
2.0000000e+00 0.0000000e+00 3.0000000e+00 
2.5000000e+00 0.0000000e+00 3.0000000e+00 
3.0000000e+00 0.0000000e+00 3.0000000e+00 
3.5000000e+00 0.0000000e+00 3.0000000e+00 
4.0000000e+00 0.0000000e+00 3.0000000e+00 
4.5000000e+00 0.0000000e+00 3.0000000e+00 
5.0000000e+00 0.0000000e+00 3.0000000e+00 
5.5000000e+00 0.0000000e+00 3.0000000e+00 
5.0000000e-01 0.0000000e+00 6.0000000e+00 
1.0000000e+00 0.0000000e+00 6.0000000e+00 
1.5000000e+00 0.0000000e+00 6.0000000e+00 
2.0000000e+00 0.0000000e+00 6.0000000e+00 
2.5000000e+00 0.0000000e+00 6.0000000e+00 
3.0000000e+00 0.0000000e+00 6.0000000e+00 
3.5000000e+00 0.0000000e+00 6.0000000e+00 
4.0000000e+00 0.0000000e+00 6.0000000e+00 
4.5000000e+00 0.0000000e+00 6.0000000e+00 
5.0000000e+00 0.0000000e+00 6.0000000e+00 
5.5000000e+00 0.0000000e+00 6.0000000e+00 
5.0000000e-01 0.0000000e+00 9.0000000e+00 
1.0000000e+00 0.0000000e+00 9.0000000e+00 
1.5000000e+00 0.0000000e+00 9.0000000e+00 
2.0000000e+00 0.0000000e+00 9.0000000e+00 
2.5000000e+00 0.0000000e+00 9.0000000e+00 
3.0000000e+00 0.0000000e+00 9.0000000e+00 
3.5000000e+00 0.0000000e+00 9.0000000e+00 
4.0000000e+00 0.0000000e+00 9.0000000e+00 
4.5000000e+00 0.0000000e+00 9.0000000e+00 
5.0000000e+00 0.0000000e+00 9.0000000e+00 
5.5000000e+00 0.0000000e+00 9.0000000e+00 
5.0000000e-01 0.0000000e+00 1.2000000e+01 
1.0000000e+00 0.0000000e+00 1.2000000e+01 
1.5000000e+00 0.0000000e+00 1.2000000e+01 
2.0000000e+00 0.0000000e+00 1.2000000e+01 
2.5000000e+00 0.0000000e+00 1.2000000e+01 
3.0000000e+00 0.0000000e+00 1.2000000e+01 
3.5000000e+00 0.0000000e+00 1.2000000e+01 
4.0000000e+00 0.0000000e+00 1.2000000e+01 
4.5000000e+00 0.0000000e+00 1.2000000e+01 
5.0000000e+00 0.0000000e+00 1.2000000e+01 
5.5000000e+00 0.0000000e+00 1.2000000e+01 
5.0000000e-01 0.0000000e+00 1.5000000e+01 
1.0000000e+00 0.0000000e+00 1.5000000e+01 
1.5000000e+00 0.0000000e+00 1.5000000e+01 
2.0000000e+00 0.0000000e+00 1.5000000e+01 
2.5000000e+00 0.0000000e+00 1.5000000e+01 
3.0000000e+00 0.0000000e+00 1.5000000e+01 
3.5000000e+00 0.0000000e+00 1.5000000e+01 
4.0000000e+00 0.0000000e+00 1.5000000e+01 
4.5000000e+00 0.0000000e+00 1.5000000e+01 
5.0000000e+00 0.0000000e+00 1.5000000e+01 
5.5000000e+00 0.0000000e+00 1.5000000e+01 
5.0000000e-01 0.0000000e+00 1.8000000e+01 
1.0000000e+00 0.0000000e+00 1.8000000e+01 
1.5000000e+00 0.0000000e+00 1.8000000e+01 
2.0000000e+00 0.0000000e+00 1.8000000e+01 
2.5000000e+00 0.0000000e+00 1.8000000e+01 
3.0000000e+00 0.0000000e+00 1.8000000e+01 
3.5000000e+00 0.0000000e+00 1.8000000e+01 
4.0000000e+00 0.0000000e+00 1.8000000e+01 
4.5000000e+00 0.0000000e+00 1.8000000e+01 
5.0000000e+00 0.0000000e+00 1.8000000e+01 
5.5000000e+00 0.0000000e+00 1.8000000e+01 

CELLS 216 648
2 0 1
2 1 2
2 2 3
2 3 4
2 4 5
2 5 6
2 6 7
2 7 8
2 8 9
2 9 10
2 10 11
2 11 12
2 12 13
2 13 14
2 14 15
2 15 16
2 16 17
2 17 18
2 18 19
2 19 20
2 20 21
2 21 22
2 22 23
2 23 24
2 24 25
2 25 26
2 26 27
2 27 28
2 28 29
2 29 30
2 30 31
2 31 32
2 32 33
2 33 34
2 34 35
2 35 36
2 36 37
2 37 38
2 38 39
2 39 40
2 40 41
2 41 42
2 42 43
2 43 44
2 44 45
2 45 46
2 46 47
2 47 48
2 48 49
2 49 50
2 50 51
2 51 52
2 52 53
2 53 54
2 54 55
2 55 56
2 56 57
2 57 58
2 58 59
2 59 60
2 60 61
2 61 62
2 62 63
2 63 64
2 64 65
2 65 66
2 66 67
2 67 68
2 68 69
2 69 70
2 70 71
2 71 72
2 73 74
2 74 75
2 75 76
2 76 77
2 77 78
2 78 79
2 79 80
2 80 81
2 81 82
2 82 83
2 83 84
2 84 85
2 85 86
2 86 87
2 87 88
2 88 89
2 89 90
2 90 91
2 91 92
2 92 93
2 93 94
2 94 95
2 95 96
2 96 97
2 97 98
2 98 99
2 99 100
2 100 101
2 101 102
2 102 103
2 103 104
2 104 105
2 105 106
2 106 107
2 107 108
2 108 109
2 109 110
2 110 111
2 111 112
2 112 113
2 113 114
2 114 115
2 115 116
2 116 117
2 117 118
2 118 119
2 119 120
2 120 121
2 121 122
2 122 123
2 123 124
2 124 125
2 125 126
2 126 127
2 127 128
2 128 129
2 129 130
2 130 131
2 131 132
2 132 133
2 133 134
2 134 135
2 135 136
2 136 137
2 137 138
2 138 139
2 139 140
2 140 141
2 141 142
2 142 143
2 143 144
2 144 145
2 12 146
2 146 147
2 147 148
2 148 149
2 149 150
2 150 151
2 151 152
2 152 153
2 153 154
2 154 155
2 155 156
2 156 85
2 24 157
2 157 158
2 158 159
2 159 160
2 160 161
2 161 162
2 162 163
2 163 164
2 164 165
2 165 166
2 166 167
2 167 97
2 36 168
2 168 169
2 169 170
2 170 171
2 171 172
2 172 173
2 173 174
2 174 175
2 175 176
2 176 177
2 177 178
2 178 109
2 48 179
2 179 180
2 180 181
2 181 182
2 182 183
2 183 184
2 184 185
2 185 186
2 186 187
2 187 188
2 188 189
2 189 121
2 60 190
2 190 191
2 191 192
2 192 193
2 193 194
2 194 195
2 195 196
2 196 197
2 197 198
2 198 199
2 199 200
2 200 133
2 72 201
2 201 202
2 202 203
2 203 204
2 204 205
2 205 206
2 206 207
2 207 208
2 208 209
2 209 210
2 210 211
2 211 145

CELL_TYPES 216
3
3
3
3
3
3
3
3
3
3
3
3
3
3
3
3
3
3
3
3
3
3
3
3
3
3
3
3
3
3
3
3
3
3
3
3
3
3
3
3
3
3
3
3
3
3
3
3
3
3
3
3
3
3
3
3
3
3
3
3
3
3
3
3
3
3
3
3
3
3
3
3
3
3
3
3
3
3
3
3
3
3
3
3
3
3
3
3
3
3
3
3
3
3
3
3
3
3
3
3
3
3
3
3
3
3
3
3
3
3
3
3
3
3
3
3
3
3
3
3
3
3
3
3
3
3
3
3
3
3
3
3
3
3
3
3
3
3
3
3
3
3
3
3
3
3
3
3
3
3
3
3
3
3
3
3
3
3
3
3
3
3
3
3
3
3
3
3
3
3
3
3
3
3
3
3
3
3
3
3
3
3
3
3
3
3
3
3
3
3
3
3
3
3
3
3
3
3
3
3
3
3
3
3
3
3
3
3
3
3
3
3
3
3
3
3
POINT_DATA 212
FIELD FieldData 3
ADJOINT_DISPLACEMENT 3 212  float
0.0000000e+00 0.0000000e+00 0.0000000e+00 
-1.0038182e-04 0.0000000e+00 -7.6153863e-16 
-2.0184991e-04 0.0000000e+00 -1.5230773e-15 
-3.0549057e-04 0.0000000e+00 -2.2846160e-15 
-4.1239001e-04 0.0000000e+00 -3.0461545e-15 
-5.2363460e-04 0.0000000e+00 -3.8076930e-15 
-6.4031052e-04 0.0000000e+00 -4.5692320e-15 
-7.6350407e-04 0.0000000e+00 -5.3307705e-15 
-8.9430157e-04 0.0000000e+00 -6.0923090e-15 
-1.0337892e-03 0.0000000e+00 -6.8538480e-15 
-1.1830534e-03 0.0000000e+00 -7.6153861e-15 
-1.3431803e-03 0.0000000e+00 -8.3769255e-15 
-1.5152562e-03 0.0000000e+00 -9.1384640e-15 
-1.7170550e-03 0.0000000e+00 4.2086294e-09 
-1.9612787e-03 0.0000000e+00 8.4172678e-09 
-2.2414061e-03 0.0000000e+00 1.2625907e-08 
-2.5509160e-03 0.0000000e+00 1.6834544e-08 
-2.8832871e-03 0.0000000e+00 2.1043183e-08 
-3.2319983e-03 0.0000000e+00 2.5251822e-08 
-3.5905284e-03 0.0000000e+00 2.9460459e-08 
-3.9523561e-03 0.0000000e+00 3.3669100e-08 
-4.3109600e-03 0.0000000e+00 3.7877737e-08 
-4.6598190e-03 0.0000000e+00 4.2086373e-08 
-4.9924115e-03 0.0000000e+00 4.6295014e-08 
-5.3022173e-03 0.0000000e+00 5.0503651e-08 
-5.6429445e-03 0.0000000e+00 7.1546985e-08 
-6.0915039e-03 0.0000000e+00 9.2590319e-08 
-6.6761766e-03 0.0000000e+00 1.1363365e-07 
-7.4252421e-03 0.0000000e+00 1.3467699e-07 
-8.3669815e-03 0.0000000e+00 1.5572033e-07 
-9.5296754e-03 0.0000000e+00 1.7676366e-07 
-1.0941604e-02 0.0000000e+00 1.9780700e-07 
-1.2631048e-02 0.0000000e+00 2.1885033e-07 
-1.4626289e-02 0.0000000e+00 2.3989367e-07 
-1.6955605e-02 0.0000000e+00 2.6093701e-07 
-1.9647278e-02 0.0000000e+00 2.8198033e-07 
-2.2729589e-02 0.0000000e+00 3.0302368e-07 
-2.6542842e-02 0.0000000e+00 4.0403242e-07 
-3.1327929e-02 0.0000000e+00 5.0504116e-07 
-3.6964018e-02 0.0000000e+00 6.0604987e-07 
-4.3330278e-02 0.0000000e+00 7.0705863e-07 
-5.0305873e-02 0.0000000e+00 8.0806734e-07 
-5.7769969e-02 0.0000000e+00 9.0907611e-07 
-6.5601736e-02 0.0000000e+00 1.0100848e-06 
-7.3680341e-02 0.0000000e+00 1.1110935e-06 
-8.1884950e-02 0.0000000e+00 1.2121023e-06 
-9.0094730e-02 0.0000000e+00 1.3131111e-06 
-9.8188847e-02 0.0000000e+00 1.4141198e-06 
-1.0604647e-01 0.0000000e+00 1.5151286e-06 
-1.1493114e-01 0.0000000e+00 1.9991323e-06 
-1.2653074e-01 0.0000000e+00 2.4831361e-06 
-1.4136097e-01 0.0000000e+00 2.9671396e-06 
-1.5993750e-01 0.0000000e+00 3.4511434e-06 
-1.8277603e-01 0.0000000e+00 3.9351471e-06 
-2.1039225e-01 0.0000000e+00 4.4191511e-06 
-2.4330185e-01 0.0000000e+00 4.9031546e-06 
-2.8202051e-01 0.0000000e+00 5.3871581e-06 
-3.2706392e-01 0.0000000e+00 5.8711621e-06 
-3.7894776e-01 0.0000000e+00 6.3551656e-06 
-4.3818775e-01 0.0000000e+00 6.8391696e-06 
-5.0529951e-01 0.0000000e+00 7.3231731e-06 
-5.7271028e-01 0.0000000e+00 6.8644217e-06 
-6.3277292e-01 0.0000000e+00 6.4056699e-06 
-6.8589163e-01 0.0000000e+00 5.9469180e-06 
-7.3247057e-01 0.0000000e+00 5.4881662e-06 
-7.7291411e-01 0.0000000e+00 5.0294143e-06 
-8.0762637e-01 0.0000000e+00 4.5706629e-06 
-8.3701158e-01 0.0000000e+00 4.1119110e-06 
-8.6147398e-01 0.0000000e+00 3.6531592e-06 
-8.8141781e-01 0.0000000e+00 3.1944076e-06 
-8.9724725e-01 0.0000000e+00 2.7356557e-06 
-9.0936655e-01 0.0000000e+00 2.2769041e-06 
-9.1817993e-01 0.0000000e+00 1.8181522e-06 
0.0000000e+00 0.0000000e+00 0.0000000e+00 
-1.5213655e-04 0.0000000e+00 7.4744866e-16 
-3.0318683e-04 0.0000000e+00 1.4948973e-15 
-4.5206453e-04 0.0000000e+00 2.2423461e-15 
-5.9768342e-04 0.0000000e+00 2.9897949e-15 
-7.3895726e-04 0.0000000e+00 3.7372440e-15 
-8.7479968e-04 0.0000000e+00 4.4846926e-15 
-1.0041244e-03 0.0000000e+00 5.2321416e-15 
-1.1258454e-03 0.0000000e+00 5.9795906e-15 
-1.2388760e-03 0.0000000e+00 6.7270395e-15 
-1.3421301e-03 0.0000000e+00 7.4744889e-15 
-1.4345216e-03 0.0000000e+00 8.2219379e-15 
-1.5149640e-03 0.0000000e+00 8.9693869e-15 
-1.5972485e-03 0.0000000e+00 -4.2086294e-09 
-1.7002375e-03 0.0000000e+00 -8.4172678e-09 
-1.8304525e-03 0.0000000e+00 -1.2625907e-08 
-1.9944145e-03 0.0000000e+00 -1.6834544e-08 
-2.1986447e-03 0.0000000e+00 -2.1043183e-08 
-2.4496645e-03 0.0000000e+00 -2.5251822e-08 
-2.7539954e-03 0.0000000e+00 -2.9460461e-08 
-3.1181579e-03 0.0000000e+00 -3.3669100e-08 
-3.5486738e-03 0.0000000e+00 -3.7877737e-08 
-4.0520644e-03 0.0000000e+00 -4.2086377e-08 
-4.6348507e-03 0.0000000e+00 -4.6295014e-08 
-5.3035533e-03 0.0000000e+00 -5.0503651e-08 
-6.1307247e-03 0.0000000e+00 -7.1546985e-08 
-7.1657132e-03 0.0000000e+00 -9.2590319e-08 
-8.3802398e-03 0.0000000e+00 -1.1363365e-07 
-9.7460225e-03 0.0000000e+00 -1.3467699e-07 
-1.1234781e-02 0.0000000e+00 -1.5572033e-07 
-1.2818236e-02 0.0000000e+00 -1.7676366e-07 
-1.4468106e-02 0.0000000e+00 -1.9780700e-07 
-1.6156111e-02 0.0000000e+00 -2.1885033e-07 
-1.7853968e-02 0.0000000e+00 -2.3989367e-07 
-1.9533401e-02 0.0000000e+00 -2.6093701e-07 
-2.1166125e-02 0.0000000e+00 -2.8198033e-07 
-2.2723863e-02 0.0000000e+00 -3.0302368e-07 
-2.4466051e-02 0.0000000e+00 -4.0403242e-07 
-2.6751533e-02 0.0000000e+00 -5.0504116e-07 
-2.9701145e-02 0.0000000e+00 -6.0604987e-07 
-3.3435721e-02 0.0000000e+00 -7.0705863e-07 
-3.8076088e-02 0.0000000e+00 -8.0806734e-07 
-4.3743085e-02 0.0000000e+00 -9.0907611e-07 
-5.0557543e-02 0.0000000e+00 -1.0100848e-06 
-5.8640294e-02 0.0000000e+00 -1.1110935e-06 
-6.8112172e-02 0.0000000e+00 -1.2121023e-06 
-7.9094015e-02 0.0000000e+00 -1.3131111e-06 
-9.1706648e-02 0.0000000e+00 -1.4141198e-06 
-1.0607091e-01 0.0000000e+00 -1.5151286e-06 
-1.2379572e-01 0.0000000e+00 -1.9991323e-06 
-1.4606565e-01 0.0000000e+00 -2.4831361e-06 
-1.7236501e-01 0.0000000e+00 -2.9671396e-06 
-2.0217811e-01 0.0000000e+00 -3.4511434e-06 
-2.3498927e-01 0.0000000e+00 -3.9351471e-06 
-2.7028280e-01 0.0000000e+00 -4.4191511e-06 
-3.0754301e-01 0.0000000e+00 -4.9031546e-06 
-3.4625423e-01 0.0000000e+00 -5.3871581e-06 
-3.8590074e-01 0.0000000e+00 -5.8711621e-06 
-4.2596686e-01 0.0000000e+00 -6.3551656e-06 
-4.6593693e-01 0.0000000e+00 -6.8391696e-06 
-5.0529522e-01 0.0000000e+00 -7.3231731e-06 
-5.4454392e-01 0.0000000e+00 -6.8644217e-06 
-5.8425951e-01 0.0000000e+00 -6.4056699e-06 
-6.2403774e-01 0.0000000e+00 -5.9469180e-06 
-6.6347444e-01 0.0000000e+00 -5.4881662e-06 
-7.0216531e-01 0.0000000e+00 -5.0294143e-06 
-7.3970616e-01 0.0000000e+00 -4.5706629e-06 
-7.7569276e-01 0.0000000e+00 -4.1119110e-06 
-8.0972087e-01 0.0000000e+00 -3.6531592e-06 
-8.4138632e-01 0.0000000e+00 -3.1944076e-06 
-8.7028491e-01 0.0000000e+00 -2.7356557e-06 
-8.9601231e-01 0.0000000e+00 -2.2769041e-06 
-9.1816437e-01 0.0000000e+00 -1.8181522e-06 
-1.5152319e-03 0.0000000e+00 2.8851040e-04 
-1.5152076e-03 0.0000000e+00 4.5442037e-04 
-1.5151831e-03 0.0000000e+00 5.1877316e-04 
-1.5151588e-03 0.0000000e+00 5.0261186e-04 
-1.5151345e-03 0.0000000e+00 4.2697974e-04 
-1.5151101e-03 0.0000000e+00 3.1291999e-04 
-1.5150858e-03 0.0000000e+00 1.8147579e-04 
-1.5150615e-03 0.0000000e+00 5.3690339e-05 
-1.5150371e-03 0.0000000e+00 -4.9393158e-05 
-1.5150128e-03 0.0000000e+00 -1.0673151e-04 
-1.5149885e-03 0.0000000e+00 -9.7281525e-05 
-5.3023286e-03 0.0000000e+00 3.8883486e-04 
-5.3024399e-03 0.0000000e+00 4.2635133e-04 
-5.3025512e-03 0.0000000e+00 1.9677344e-04 
-5.3026625e-03 0.0000000e+00 -2.1572538e-04 
-5.3027738e-03 0.0000000e+00 -7.2697160e-04 
-5.3028855e-03 0.0000000e+00 -1.2527917e-03 
-5.3029968e-03 0.0000000e+00 -1.7090124e-03 
-5.3031081e-03 0.0000000e+00 -2.0114600e-03 
-5.3032194e-03 0.0000000e+00 -2.0759611e-03 
-5.3033307e-03 0.0000000e+00 -1.8183421e-03 
-5.3034420e-03 0.0000000e+00 -1.1544299e-03 
-2.2729112e-02 0.0000000e+00 5.2935532e-03 
-2.2728635e-02 0.0000000e+00 8.2916282e-03 
-2.2728158e-02 0.0000000e+00 9.3943551e-03 
-2.2727681e-02 0.0000000e+00 9.0015614e-03 
-2.2727204e-02 0.0000000e+00 7.5130733e-03 
-2.2726726e-02 0.0000000e+00 5.3287186e-03 
-2.2726249e-02 0.0000000e+00 2.8483237e-03 
-2.2725772e-02 0.0000000e+00 4.7171599e-04 
-2.2725295e-02 0.0000000e+00 -1.4012775e-03 
-2.2724818e-02 0.0000000e+00 -2.3708299e-03 
-2.2724342e-02 0.0000000e+00 -2.0371140e-03 
-1.0604850e-01 0.0000000e+00 1.0605714e-02 
-1.0605054e-01 0.0000000e+00 1.2898581e-02 
-1.0605258e-01 0.0000000e+00 8.7950919e-03 
-1.0605461e-01 0.0000000e+00 2.1021967e-04 
-1.0605665e-01 0.0000000e+00 -1.0941059e-02 
-1.0605869e-01 0.0000000e+00 -2.2743771e-02 
-1.0606073e-01 0.0000000e+00 -3.3282939e-02 
-1.0606276e-01 0.0000000e+00 -4.0643588e-02 
-1.0606480e-01 0.0000000e+00 -4.2910747e-02 
-1.0606684e-01 0.0000000e+00 -3.8169436e-02 
-1.0606887e-01 0.0000000e+00 -2.4504686e-02 
-5.0529915e-01 0.0000000e+00 1.7394061e-01 
-5.0529879e-01 0.0000000e+00 4.0771961e-01 
-5.0529844e-01 0.0000000e+00 1.9663054e-01 
-5.0529808e-01 0.0000000e+00 3.5959627e-02 
-5.0529772e-01 0.0000000e+00 -7.9006903e-02 
-5.0529736e-01 0.0000000e+00 -1.5298283e-01 
-5.0529701e-01 0.0000000e+00 -1.9068195e-01 
-5.0529665e-01 0.0000000e+00 -1.9681801e-01 
-5.0529629e-01 0.0000000e+00 -1.7610480e-01 
-5.0529593e-01 0.0000000e+00 -1.3325609e-01 
-5.0529557e-01 0.0000000e+00 -7.2985679e-02 
-9.1817862e-01 0.0000000e+00 9.1710147e-03 
-9.1817731e-01 0.0000000e+00 9.0271663e-03 
-9.1817600e-01 0.0000000e+00 1.8640327e-03 
-9.1817474e-01 0.0000000e+00 -1.0024628e-02 
-9.1817343e-01 0.0000000e+00 -2.4345055e-02 
-9.1817212e-01 0.0000000e+00 -3.8803492e-02 
-9.1817087e-01 0.0000000e+00 -5.1106181e-02 
-9.1816956e-01 0.0000000e+00 -5.8959361e-02 
-9.1816825e-01 0.0000000e+00 -6.0069270e-02 
-9.1816694e-01 0.0000000e+00 -5.2142158e-02 
-9.1816568e-01 0.0000000e+00 -3.2884259e-02 
ADJOINT_ROTATION 3 212  float
0.0000000e+00 -4.0080311e-04 0.0000000e+00 
0.0000000e+00 -4.0297565e-04 0.0000000e+00 
0.0000000e+00 -4.0949328e-04 0.0000000e+00 
0.0000000e+00 -4.2035602e-04 0.0000000e+00 
0.0000000e+00 -4.3556388e-04 0.0000000e+00 
0.0000000e+00 -4.5511679e-04 0.0000000e+00 
0.0000000e+00 -4.7901482e-04 0.0000000e+00 
0.0000000e+00 -5.0725794e-04 0.0000000e+00 
0.0000000e+00 -5.3984619e-04 0.0000000e+00 
0.0000000e+00 -5.7677948e-04 0.0000000e+00 
0.0000000e+00 -6.1805791e-04 0.0000000e+00 
0.0000000e+00 -6.6368142e-04 0.0000000e+00 
0.0000000e+00 -7.1365002e-04 0.0000000e+00 
0.0000000e+00 -8.9639233e-04 0.0000000e+00 
0.0000000e+00 -1.0530497e-03 0.0000000e+00 
0.0000000e+00 -1.1836222e-03 0.0000000e+00 
0.0000000e+00 -1.2881097e-03 0.0000000e+00 
0.0000000e+00 -1.3665123e-03 0.0000000e+00 
0.0000000e+00 -1.4188299e-03 0.0000000e+00 
0.0000000e+00 -1.4450626e-03 0.0000000e+00 
0.0000000e+00 -1.4452104e-03 0.0000000e+00 
0.0000000e+00 -1.4192732e-03 0.0000000e+00 
0.0000000e+00 -1.3672512e-03 0.0000000e+00 
0.0000000e+00 -1.2891442e-03 0.0000000e+00 
0.0000000e+00 -1.1849522e-03 0.0000000e+00 
0.0000000e+00 -1.5597203e-03 0.0000000e+00 
0.0000000e+00 -2.0476102e-03 0.0000000e+00 
0.0000000e+00 -2.6486225e-03 0.0000000e+00 
0.0000000e+00 -3.3627567e-03 0.0000000e+00 
0.0000000e+00 -4.1900133e-03 0.0000000e+00 
0.0000000e+00 -5.1303916e-03 0.0000000e+00 
0.0000000e+00 -6.1838920e-03 0.0000000e+00 
0.0000000e+00 -7.3505146e-03 0.0000000e+00 
0.0000000e+00 -8.6302599e-03 0.0000000e+00 
0.0000000e+00 -1.0023126e-02 0.0000000e+00 
0.0000000e+00 -1.1529115e-02 0.0000000e+00 
0.0000000e+00 -1.3148227e-02 0.0000000e+00 
0.0000000e+00 -1.7277233e-02 0.0000000e+00 
0.0000000e+00 -2.0922910e-02 0.0000000e+00 
0.0000000e+00 -2.4085253e-02 0.0000000e+00 
0.0000000e+00 -2.6764262e-02 0.0000000e+00 
0.0000000e+00 -2.8959941e-02 0.0000000e+00 
0.0000000e+00 -3.0672288e-02 0.0000000e+00 
0.0000000e+00 -3.1901300e-02 0.0000000e+00 
0.0000000e+00 -3.2646980e-02 0.0000000e+00 
0.0000000e+00 -3.2909330e-02 0.0000000e+00 
0.0000000e+00 -3.2688346e-02 0.0000000e+00 
0.0000000e+00 -3.1984027e-02 0.0000000e+00 
0.0000000e+00 -3.0796381e-02 0.0000000e+00 
0.0000000e+00 -4.0624745e-02 0.0000000e+00 
0.0000000e+00 -5.2515864e-02 0.0000000e+00 
0.0000000e+00 -6.6469736e-02 0.0000000e+00 
0.0000000e+00 -8.2486354e-02 0.0000000e+00 
0.0000000e+00 -1.0056572e-01 0.0000000e+00 
0.0000000e+00 -1.2070785e-01 0.0000000e+00 
0.0000000e+00 -1.4291272e-01 0.0000000e+00 
0.0000000e+00 -1.6718034e-01 0.0000000e+00 
0.0000000e+00 -1.9351071e-01 0.0000000e+00 
0.0000000e+00 -2.2190385e-01 0.0000000e+00 
0.0000000e+00 -2.5235972e-01 0.0000000e+00 
0.0000000e+00 -2.8487834e-01 0.0000000e+00 
0.0000000e+00 -2.5467730e-01 0.0000000e+00 
0.0000000e+00 -2.2609316e-01 0.0000000e+00 
0.0000000e+00 -1.9912589e-01 0.0000000e+00 
0.0000000e+00 -1.7377552e-01 0.0000000e+00 
0.0000000e+00 -1.5004204e-01 0.0000000e+00 
0.0000000e+00 -1.2792546e-01 0.0000000e+00 
0.0000000e+00 -1.0742575e-01 0.0000000e+00 
0.0000000e+00 -8.8542946e-02 0.0000000e+00 
0.0000000e+00 -7.1277022e-02 0.0000000e+00 
0.0000000e+00 -5.5627994e-02 0.0000000e+00 
0.0000000e+00 -4.1595858e-02 0.0000000e+00 
0.0000000e+00 -2.9180609e-02 0.0000000e+00 
0.0000000e+00 -6.0927036e-04 0.0000000e+00 
0.0000000e+00 -6.0709781e-04 0.0000000e+00 
0.0000000e+00 -6.0058018e-04 0.0000000e+00 
0.0000000e+00 -5.8971741e-04 0.0000000e+00 
0.0000000e+00 -5.7450956e-04 0.0000000e+00 
0.0000000e+00 -5.5495667e-04 0.0000000e+00 
0.0000000e+00 -5.3105858e-04 0.0000000e+00 
0.0000000e+00 -5.0281547e-04 0.0000000e+00 
0.0000000e+00 -4.7022724e-04 0.0000000e+00 
0.0000000e+00 -4.3329393e-04 0.0000000e+00 
0.0000000e+00 -3.9201550e-04 0.0000000e+00 
0.0000000e+00 -3.4639199e-04 0.0000000e+00 
0.0000000e+00 -2.9642339e-04 0.0000000e+00 
0.0000000e+00 -3.6619941e-04 0.0000000e+00 
0.0000000e+00 -4.6206039e-04 0.0000000e+00 
0.0000000e+00 -5.8400625e-04 0.0000000e+00 
0.0000000e+00 -7.3203712e-04 0.0000000e+00 
0.0000000e+00 -9.0615288e-04 0.0000000e+00 
0.0000000e+00 -1.1063536e-03 0.0000000e+00 
0.0000000e+00 -1.3326391e-03 0.0000000e+00 
0.0000000e+00 -1.5850097e-03 0.0000000e+00 
0.0000000e+00 -1.8634652e-03 0.0000000e+00 
0.0000000e+00 -2.1680056e-03 0.0000000e+00 
0.0000000e+00 -2.4986309e-03 0.0000000e+00 
0.0000000e+00 -2.8553412e-03 0.0000000e+00 
0.0000000e+00 -3.7431733e-03 0.0000000e+00 
0.0000000e+00 -4.5178835e-03 0.0000000e+00 
0.0000000e+00 -5.1794713e-03 0.0000000e+00 
0.0000000e+00 -5.7279370e-03 0.0000000e+00 
0.0000000e+00 -6.1632809e-03 0.0000000e+00 
0.0000000e+00 -6.4855027e-03 0.0000000e+00 
0.0000000e+00 -6.6946023e-03 0.0000000e+00 
0.0000000e+00 -6.7905798e-03 0.0000000e+00 
0.0000000e+00 -6.7734350e-03 0.0000000e+00 
0.0000000e+00 -6.6431682e-03 0.0000000e+00 
0.0000000e+00 -6.3997796e-03 0.0000000e+00 
0.0000000e+00 -6.0432684e-03 0.0000000e+00 
0.0000000e+00 -7.9747848e-03 0.0000000e+00 
0.0000000e+00 -1.0389633e-02 0.0000000e+00 
0.0000000e+00 -1.3287815e-02 0.0000000e+00 
0.0000000e+00 -1.6669329e-02 0.0000000e+00 
0.0000000e+00 -2.0534175e-02 0.0000000e+00 
0.0000000e+00 -2.4882354e-02 0.0000000e+00 
0.0000000e+00 -2.9713865e-02 0.0000000e+00 
0.0000000e+00 -3.5028707e-02 0.0000000e+00 
0.0000000e+00 -4.0826883e-02 0.0000000e+00 
0.0000000e+00 -4.7108393e-02 0.0000000e+00 
0.0000000e+00 -5.3873233e-02 0.0000000e+00 
0.0000000e+00 -6.1121408e-02 0.0000000e+00 
0.0000000e+00 -8.0333263e-02 0.0000000e+00 
0.0000000e+00 -9.7482368e-02 0.0000000e+00 
0.0000000e+00 -1.1256872e-01 0.0000000e+00 
0.0000000e+00 -1.2559232e-01 0.0000000e+00 
0.0000000e+00 -1.3655318e-01 0.0000000e+00 
0.0000000e+00 -1.4545128e-01 0.0000000e+00 
0.0000000e+00 -1.5228663e-01 0.0000000e+00 
0.0000000e+00 -1.5705924e-01 0.0000000e+00 
0.0000000e+00 -1.5976909e-01 0.0000000e+00 
0.0000000e+00 -1.6041619e-01 0.0000000e+00 
0.0000000e+00 -1.5900053e-01 0.0000000e+00 
0.0000000e+00 -1.5552212e-01 0.0000000e+00 
0.0000000e+00 -1.5819806e-01 0.0000000e+00 
0.0000000e+00 -1.5925711e-01 0.0000000e+00 
0.0000000e+00 -1.5869926e-01 0.0000000e+00 
0.0000000e+00 -1.5652452e-01 0.0000000e+00 
0.0000000e+00 -1.5273291e-01 0.0000000e+00 
0.0000000e+00 -1.4732438e-01 0.0000000e+00 
0.0000000e+00 -1.4029898e-01 0.0000000e+00 
0.0000000e+00 -1.3165669e-01 0.0000000e+00 
0.0000000e+00 -1.2139750e-01 0.0000000e+00 
0.0000000e+00 -1.0952143e-01 0.0000000e+00 
0.0000000e+00 -9.6028455e-02 0.0000000e+00 
0.0000000e+00 -8.0918603e-02 0.0000000e+00 
0.0000000e+00 -4.4740597e-04 0.0000000e+00 
0.0000000e+00 -2.2324834e-04 0.0000000e+00 
0.0000000e+00 -4.1177074e-05 0.0000000e+00 
0.0000000e+00 9.8807795e-05 0.0000000e+00 
0.0000000e+00 1.9670627e-04 0.0000000e+00 
0.0000000e+00 2.5251834e-04 0.0000000e+00 
0.0000000e+00 2.6624405e-04 0.0000000e+00 
0.0000000e+00 2.3788335e-04 0.0000000e+00 
0.0000000e+00 1.6743624e-04 0.0000000e+00 
0.0000000e+00 5.4902765e-05 0.0000000e+00 
0.0000000e+00 -9.9717116e-05 0.0000000e+00 
0.0000000e+00 -3.9824302e-04 0.0000000e+00 
0.0000000e+00 2.2011924e-04 0.0000000e+00 
0.0000000e+00 6.7013456e-04 0.0000000e+00 
0.0000000e+00 9.5180288e-04 0.0000000e+00 
0.0000000e+00 1.0651242e-03 0.0000000e+00 
0.0000000e+00 1.0100986e-03 0.0000000e+00 
0.0000000e+00 7.8672607e-04 0.0000000e+00 
0.0000000e+00 3.9500653e-04 0.0000000e+00 
0.0000000e+00 -1.6505997e-04 0.0000000e+00 
0.0000000e+00 -8.9347345e-04 0.0000000e+00 
0.0000000e+00 -1.7902339e-03 0.0000000e+00 
0.0000000e+00 -8.1580495e-03 0.0000000e+00 
0.0000000e+00 -3.9675264e-03 0.0000000e+00 
0.0000000e+00 -5.7665736e-04 0.0000000e+00 
0.0000000e+00 2.0145576e-03 0.0000000e+00 
0.0000000e+00 3.8061184e-03 0.0000000e+00 
0.0000000e+00 4.7980254e-03 0.0000000e+00 
0.0000000e+00 4.9902778e-03 0.0000000e+00 
0.0000000e+00 4.3828767e-03 0.0000000e+00 
0.0000000e+00 2.9758215e-03 0.0000000e+00 
0.0000000e+00 7.6911220e-04 0.0000000e+00 
0.0000000e+00 -2.2372513e-03 0.0000000e+00 
0.0000000e+00 -1.2258741e-02 0.0000000e+00 
0.0000000e+00 2.4489476e-03 0.0000000e+00 
0.0000000e+00 1.3326687e-02 0.0000000e+00 
0.0000000e+00 2.0374475e-02 0.0000000e+00 
0.0000000e+00 2.3592316e-02 0.0000000e+00 
0.0000000e+00 2.2980204e-02 0.0000000e+00 
0.0000000e+00 1.8538143e-02 0.0000000e+00 
0.0000000e+00 1.0266134e-02 0.0000000e+00 
0.0000000e+00 -1.8358269e-03 0.0000000e+00 
0.0000000e+00 -1.7767737e-02 0.0000000e+00 
0.0000000e+00 -3.7529599e-02 0.0000000e+00 
0.0000000e+00 -4.0928355e-01 0.0000000e+00 
0.0000000e+00 -5.2426118e-01 0.0000000e+00 
0.0000000e+00 3.7018871e-01 0.0000000e+00 
0.0000000e+00 2.7406618e-01 0.0000000e+00 
0.0000000e+00 1.8737121e-01 0.0000000e+00 
0.0000000e+00 1.1010378e-01 0.0000000e+00 
0.0000000e+00 4.2263906e-02 0.0000000e+00 
0.0000000e+00 -1.6148409e-02 0.0000000e+00 
0.0000000e+00 -6.5133169e-02 0.0000000e+00 
0.0000000e+00 -1.0469037e-01 0.0000000e+00 
0.0000000e+00 -1.3482003e-01 0.0000000e+00 
0.0000000e+00 -8.2607614e-03 0.0000000e+00 