# vtk DataFile Version 4.0
vtk output
ASCII
DATASET UNSTRUCTURED_GRID
POINTS 30 float
0.0000000e+00 0.0000000e+00 0.0000000e+00 
0.0000000e+00 0.0000000e+00 8.0000001e-01 
0.0000000e+00 0.0000000e+00 1.6000000e+00 
0.0000000e+00 0.0000000e+00 2.4000001e+00 
0.0000000e+00 0.0000000e+00 3.2000000e+00 
0.0000000e+00 0.0000000e+00 4.0000000e+00 
0.0000000e+00 0.0000000e+00 4.8000002e+00 
0.0000000e+00 0.0000000e+00 5.5999999e+00 
0.0000000e+00 0.0000000e+00 6.4000001e+00 
0.0000000e+00 0.0000000e+00 7.1999998e+00 
0.0000000e+00 0.0000000e+00 8.0000000e+00 
1.0000000e+01 0.0000000e+00 0.0000000e+00 
1.0000000e+01 0.0000000e+00 8.0000001e-01 
1.0000000e+01 0.0000000e+00 1.6000000e+00 
1.0000000e+01 0.0000000e+00 2.4000001e+00 
1.0000000e+01 0.0000000e+00 3.2000000e+00 
1.0000000e+01 0.0000000e+00 4.0000000e+00 
1.0000000e+01 0.0000000e+00 4.8000002e+00 
1.0000000e+01 0.0000000e+00 5.5999999e+00 
1.0000000e+01 0.0000000e+00 6.4000001e+00 
1.0000000e+01 0.0000000e+00 7.1999998e+00 
1.0000000e+01 0.0000000e+00 8.0000000e+00 
2.0000000e+00 0.0000000e+00 4.0000000e+00 
4.0000000e+00 0.0000000e+00 4.0000000e+00 
6.0000000e+00 0.0000000e+00 4.0000000e+00 
8.0000000e+00 0.0000000e+00 4.0000000e+00 
2.0000000e+00 0.0000000e+00 8.0000000e+00 
4.0000000e+00 0.0000000e+00 8.0000000e+00 
6.0000000e+00 0.0000000e+00 8.0000000e+00 
8.0000000e+00 0.0000000e+00 8.0000000e+00 

CELLS 30 90
2 0 1
2 1 2
2 2 3
2 3 4
2 4 5
2 5 6
2 6 7
2 7 8
2 8 9
2 9 10
2 11 12
2 12 13
2 13 14
2 14 15
2 15 16
2 16 17
2 17 18
2 18 19
2 19 20
2 20 21
2 5 22
2 22 23
2 23 24
2 24 25
2 25 16
2 10 26
2 26 27
2 27 28
2 28 29
2 29 21

CELL_TYPES 30
3
3
3
3
3
3
3
3
3
3
3
3
3
3
3
3
3
3
3
3
3
3
3
3
3
3
3
3
3
3
POINT_DATA 30
FIELD FieldData 7
DISPLACEMENT 3 30  float
0.0000000e+00 0.0000000e+00 0.0000000e+00 
-1.0223903e-03 0.0000000e+00 -6.0634375e-06 
-1.9246468e-03 0.0000000e+00 -8.5002039e-06 
-2.6637577e-03 0.0000000e+00 -1.1068746e-05 
-3.2133949e-03 0.0000000e+00 -1.0945796e-05 
-3.4954466e-03 0.0000000e+00 -1.2574787e-05 
-3.5446445e-03 0.0000000e+00 -1.2275378e-05 
-3.5261288e-03 0.0000000e+00 -1.0832604e-05 
-3.4320066e-03 0.0000000e+00 -1.2139208e-05 
-3.3225038e-03 0.0000000e+00 -1.3445812e-05 
-3.2728270e-03 0.0000000e+00 -1.5030546e-05 
0.0000000e+00 0.0000000e+00 0.0000000e+00 
-8.1961695e-04 0.0000000e+00 -5.1951993e-06 
-1.6081521e-03 0.0000000e+00 -1.2461615e-05 
-2.3386150e-03 0.0000000e+00 -1.9728031e-05 
-2.9850383e-03 0.0000000e+00 -2.6994447e-05 
-3.5214545e-03 0.0000000e+00 -3.4260862e-05 
-3.9176038e-03 0.0000000e+00 -4.0828327e-05 
-4.1019069e-03 0.0000000e+00 -4.7395795e-05 
-4.0106494e-03 0.0000000e+00 -5.0188126e-05 
-3.6918290e-03 0.0000000e+00 -4.9941991e-05 
-3.2790313e-03 0.0000000e+00 -4.9615417e-05 
-3.5026164e-03 0.0000000e+00 -3.9440847e-04 
-3.5097862e-03 0.0000000e+00 -1.1791438e-03 
-3.5103227e-03 0.0000000e+00 -1.3715161e-03 
-3.5115606e-03 0.0000000e+00 -1.0396367e-03 
-3.2793563e-03 0.0000000e+00 3.0811396e-04 
-3.2820627e-03 0.0000000e+00 1.0590558e-03 
-3.2786222e-03 0.0000000e+00 1.1773680e-03 
-3.2788266e-03 0.0000000e+00 7.6977647e-04 
ROTATION 3 30  float
0.0000000e+00 -1.3069313e-03 0.0000000e+00 
0.0000000e+00 -1.2201010e-03 0.0000000e+00 
0.0000000e+00 -1.0300899e-03 0.0000000e+00 
0.0000000e+00 -8.1466656e-04 0.0000000e+00 
0.0000000e+00 -5.4404943e-04 0.0000000e+00 
0.0000000e+00 -1.2796976e-04 0.0000000e+00 
0.0000000e+00 -1.5070445e-05 0.0000000e+00 
0.0000000e+00 7.3193398e-05 0.0000000e+00 
0.0000000e+00 1.4468892e-04 0.0000000e+00 
0.0000000e+00 1.1164524e-04 0.0000000e+00 
0.0000000e+00 5.6538524e-06 0.0000000e+00 
0.0000000e+00 -1.0312096e-03 0.0000000e+00 
0.0000000e+00 -1.0111443e-03 0.0000000e+00 
0.0000000e+00 -9.5478370e-04 0.0000000e+00 
0.0000000e+00 -8.6596381e-04 0.0000000e+00 
0.0000000e+00 -7.4468466e-04 0.0000000e+00 
0.0000000e+00 -5.9094612e-04 0.0000000e+00 
0.0000000e+00 -3.8110468e-04 0.0000000e+00 
0.0000000e+00 -6.1331877e-05 0.0000000e+00 
0.0000000e+00 2.7751128e-04 0.0000000e+00 
0.0000000e+00 4.8907951e-04 0.0000000e+00 
0.0000000e+00 5.0973840e-04 0.0000000e+00 
0.0000000e+00 4.0072287e-04 0.0000000e+00 
0.0000000e+00 2.7493190e-04 0.0000000e+00 
0.0000000e+00 -3.4788925e-05 0.0000000e+00 
0.0000000e+00 -3.4503697e-04 0.0000000e+00 
0.0000000e+00 -3.3768764e-04 0.0000000e+00 
0.0000000e+00 -2.6603285e-04 0.0000000e+00 
0.0000000e+00 9.7938057e-05 0.0000000e+00 
0.0000000e+00 3.0819964e-04 0.0000000e+00 
REACTION 3 30  float
8.5473525e+03 -0.0000000e+00 1.5916522e+04 
6.1845640e-11 -0.0000000e+00 -0.0000000e+00 
-7.0576789e-10 -0.0000000e+00 -9.0949470e-12 
4.6202331e-10 -0.0000000e+00 1.1823431e-11 
2.1263986e-09 -0.0000000e+00 1.8189894e-12 
-2.3555913e-10 -0.0000000e+00 1.6370905e-10 
-4.6929927e-10 -0.0000000e+00 6.8212103e-11 
-1.3460522e-10 -0.0000000e+00 -8.1854523e-12 
-3.3469405e-10 -0.0000000e+00 2.5465852e-11 
-1.1823431e-10 -0.0000000e+00 -7.2759576e-12 
3.3469405e-10 -0.0000000e+00 4.5474735e-13 
1.9751904e+03 -0.0000000e+00 1.3637398e+04 
1.3096724e-10 -0.0000000e+00 -0.0000000e+00 
-3.7834980e-10 -0.0000000e+00 -3.6379788e-11 
5.5297278e-10 -0.0000000e+00 3.6379788e-11 
1.1641532e-10 -0.0000000e+00 8.0035534e-11 
2.0027073e-09 -0.0000000e+00 7.8580342e-10 
-9.8225428e-10 -0.0000000e+00 -1.4551915e-11 
4.9658411e-10 -0.0000000e+00 1.6370905e-11 
1.7644197e-10 -0.0000000e+00 1.8735591e-10 
-9.6406438e-11 -0.0000000e+00 -1.4551915e-11 
-5.0567905e-10 -0.0000000e+00 -4.0199666e-10 
-0.0000000e+00 -0.0000000e+00 -3.4560799e-10 
-1.9463187e-09 -0.0000000e+00 1.8189894e-11 
6.5483619e-11 -0.0000000e+00 9.0949470e-13 
-4.4747139e-10 -0.0000000e+00 4.0927262e-11 
-6.3801053e-10 -0.0000000e+00 1.1823431e-11 
9.3314156e-10 -0.0000000e+00 -2.7284841e-12 
-7.2031980e-10 -0.0000000e+00 2.6830094e-10 
4.6566129e-10 -0.0000000e+00 -5.4569682e-12 
REACTION_MOMENT 3 30  float
-0.0000000e+00 1.4551915e-11 -0.0000000e+00 
-0.0000000e+00 -1.0186341e-10 -0.0000000e+00 
-0.0000000e+00 -2.6921043e-10 -0.0000000e+00 
-0.0000000e+00 -1.4551915e-11 -0.0000000e+00 
-0.0000000e+00 -4.7657522e-10 -0.0000000e+00 
-0.0000000e+00 5.9117156e-10 -0.0000000e+00 
-0.0000000e+00 -8.4583007e-10 -0.0000000e+00 
-0.0000000e+00 4.2746251e-10 -0.0000000e+00 
-0.0000000e+00 -4.7839421e-10 -0.0000000e+00 
-0.0000000e+00 2.7375791e-10 -0.0000000e+00 
-0.0000000e+00 1.5097612e-10 -0.0000000e+00 
-0.0000000e+00 -1.4551915e-11 -0.0000000e+00 
-0.0000000e+00 4.3655746e-11 -0.0000000e+00 
-0.0000000e+00 -0.0000000e+00 -0.0000000e+00 
-0.0000000e+00 4.3655746e-11 -0.0000000e+00 
-0.0000000e+00 5.0931703e-11 -0.0000000e+00 
-0.0000000e+00 -7.2759576e-11 -0.0000000e+00 
-0.0000000e+00 1.9645086e-10 -0.0000000e+00 
-0.0000000e+00 -3.4742698e-10 -0.0000000e+00 
-0.0000000e+00 1.6734703e-10 -0.0000000e+00 
-0.0000000e+00 5.4569682e-10 -0.0000000e+00 
-0.0000000e+00 4.7293724e-11 -0.0000000e+00 
-0.0000000e+00 -3.6379788e-12 -0.0000000e+00 
-0.0000000e+00 8.8220986e-11 -0.0000000e+00 
-0.0000000e+00 9.0494723e-11 -0.0000000e+00 
-0.0000000e+00 2.5465852e-11 -0.0000000e+00 
-0.0000000e+00 1.8189894e-12 -0.0000000e+00 
-0.0000000e+00 -2.7284841e-12 -0.0000000e+00 
-0.0000000e+00 -1.8189894e-12 -0.0000000e+00 
-0.0000000e+00 -1.2732926e-11 -0.0000000e+00 
VOLUME_ACCELERATION 3 30  float
0.0000000e+00 0.0000000e+00 0.0000000e+00 
0.0000000e+00 0.0000000e+00 0.0000000e+00 
0.0000000e+00 0.0000000e+00 0.0000000e+00 
0.0000000e+00 0.0000000e+00 0.0000000e+00 
0.0000000e+00 0.0000000e+00 0.0000000e+00 
0.0000000e+00 0.0000000e+00 0.0000000e+00 
0.0000000e+00 0.0000000e+00 0.0000000e+00 
0.0000000e+00 0.0000000e+00 0.0000000e+00 
0.0000000e+00 0.0000000e+00 0.0000000e+00 
0.0000000e+00 0.0000000e+00 0.0000000e+00 
0.0000000e+00 0.0000000e+00 0.0000000e+00 
0.0000000e+00 0.0000000e+00 0.0000000e+00 
0.0000000e+00 0.0000000e+00 0.0000000e+00 
0.0000000e+00 0.0000000e+00 0.0000000e+00 
0.0000000e+00 0.0000000e+00 0.0000000e+00 
0.0000000e+00 0.0000000e+00 0.0000000e+00 
0.0000000e+00 0.0000000e+00 0.0000000e+00 
0.0000000e+00 0.0000000e+00 0.0000000e+00 
0.0000000e+00 0.0000000e+00 0.0000000e+00 
0.0000000e+00 0.0000000e+00 0.0000000e+00 
0.0000000e+00 0.0000000e+00 0.0000000e+00 
0.0000000e+00 0.0000000e+00 0.0000000e+00 
0.0000000e+00 0.0000000e+00 0.0000000e+00 
0.0000000e+00 0.0000000e+00 0.0000000e+00 
0.0000000e+00 0.0000000e+00 0.0000000e+00 
0.0000000e+00 0.0000000e+00 0.0000000e+00 
0.0000000e+00 0.0000000e+00 0.0000000e+00 
0.0000000e+00 0.0000000e+00 0.0000000e+00 
0.0000000e+00 0.0000000e+00 0.0000000e+00 
0.0000000e+00 0.0000000e+00 0.0000000e+00 
POINT_LOAD 3 30  float
0.0000000e+00 0.0000000e+00 0.0000000e+00 
-6.9378320e+03 0.0000000e+00 -9.5200098e+03 
-7.1753009e+02 0.0000000e+00 3.4590948e+02 
3.6491599e+03 0.0000000e+00 -7.0651675e+03 
5.2366680e+03 0.0000000e+00 4.5988452e+03 
-8.1692988e+03 0.0000000e+00 9.2009064e+01 
9.4143750e+03 0.0000000e+00 -3.0013335e+03 
-8.6399502e+03 0.0000000e+00 7.2171182e+03 
0.0000000e+00 0.0000000e+00 0.0000000e+00 
3.1097913e+03 0.0000000e+00 7.3009021e+02 
8.8912852e+03 0.0000000e+00 -3.7399082e+03 
0.0000000e+00 0.0000000e+00 0.0000000e+00 
-3.7758249e+02 0.0000000e+00 5.4369429e+03 
0.0000000e+00 0.0000000e+00 0.0000000e+00 
0.0000000e+00 0.0000000e+00 0.0000000e+00 
0.0000000e+00 0.0000000e+00 0.0000000e+00 
-6.5755728e+03 0.0000000e+00 1.4440599e+03 
0.0000000e+00 0.0000000e+00 0.0000000e+00 
-8.9441318e+03 0.0000000e+00 -9.9097266e+03 
-5.4617261e+03 0.0000000e+00 -7.9759731e+03 
-8.0229504e+02 0.0000000e+00 -2.1115242e+02 
9.5827549e+03 0.0000000e+00 7.8856348e+02 
0.0000000e+00 0.0000000e+00 0.0000000e+00 
-6.9647744e+03 0.0000000e+00 -7.4112217e+03 
7.3635358e+02 0.0000000e+00 4.5226304e+03 
9.0888350e+03 0.0000000e+00 -5.5442715e+03 
-4.0139060e+03 0.0000000e+00 -7.3762271e+03 
-6.4544980e+03 0.0000000e+00 9.3084385e+03 
3.8273320e+03 0.0000000e+00 -2.2835378e+03 
0.0000000e+00 0.0000000e+00 0.0000000e+00 
POINT_MOMENT 3 30  float
0.0000000e+00 0.0000000e+00 0.0000000e+00 
0.0000000e+00 0.0000000e+00 0.0000000e+00 
0.0000000e+00 0.0000000e+00 0.0000000e+00 
0.0000000e+00 0.0000000e+00 0.0000000e+00 
0.0000000e+00 0.0000000e+00 0.0000000e+00 
0.0000000e+00 0.0000000e+00 0.0000000e+00 
0.0000000e+00 0.0000000e+00 0.0000000e+00 
0.0000000e+00 0.0000000e+00 0.0000000e+00 
0.0000000e+00 0.0000000e+00 0.0000000e+00 
0.0000000e+00 0.0000000e+00 0.0000000e+00 
0.0000000e+00 0.0000000e+00 0.0000000e+00 
0.0000000e+00 0.0000000e+00 0.0000000e+00 
0.0000000e+00 0.0000000e+00 0.0000000e+00 
0.0000000e+00 0.0000000e+00 0.0000000e+00 
0.0000000e+00 0.0000000e+00 0.0000000e+00 
0.0000000e+00 0.0000000e+00 0.0000000e+00 
0.0000000e+00 0.0000000e+00 0.0000000e+00 
0.0000000e+00 0.0000000e+00 0.0000000e+00 
0.0000000e+00 0.0000000e+00 0.0000000e+00 
0.0000000e+00 0.0000000e+00 0.0000000e+00 
0.0000000e+00 0.0000000e+00 0.0000000e+00 
0.0000000e+00 0.0000000e+00 0.0000000e+00 
0.0000000e+00 0.0000000e+00 0.0000000e+00 
0.0000000e+00 0.0000000e+00 0.0000000e+00 
0.0000000e+00 0.0000000e+00 0.0000000e+00 
0.0000000e+00 0.0000000e+00 0.0000000e+00 
0.0000000e+00 0.0000000e+00 0.0000000e+00 
0.0000000e+00 0.0000000e+00 0.0000000e+00 
0.0000000e+00 0.0000000e+00 0.0000000e+00 
0.0000000e+00 0.0000000e+00 0.0000000e+00 
CELL_DATA 30
FIELD FieldData 9
YOUNG_MODULUS 1 30  float
2.1000000e+11
2.1000000e+11
2.1000000e+11
2.1000000e+11
2.1000000e+11
2.1000000e+11
2.1000000e+11
2.1000000e+11
2.1000000e+11
2.1000000e+11
2.1000000e+11
2.1000000e+11
2.1000000e+11
2.1000000e+11
2.1000000e+11
2.1000000e+11
2.1000000e+11
2.1000000e+11
2.1000000e+11
2.1000000e+11
2.1000000e+11
2.1000000e+11
2.1000000e+11
2.1000000e+11
2.1000000e+11
2.1000000e+11
2.1000000e+11
2.1000000e+11
2.1000000e+11
2.1000000e+11
DENSITY 1 30  float
7.8500000e+03
7.8500000e+03
7.8500000e+03
7.8500000e+03
7.8500000e+03
7.8500000e+03
7.8500000e+03
7.8500000e+03
7.8500000e+03
7.8500000e+03
7.8500000e+03
7.8500000e+03
7.8500000e+03
7.8500000e+03
7.8500000e+03
7.8500000e+03
7.8500000e+03
7.8500000e+03
7.8500000e+03
7.8500000e+03
7.8500000e+03
7.8500000e+03
7.8500000e+03
7.8500000e+03
7.8500000e+03
7.8500000e+03
7.8500000e+03
7.8500000e+03
7.8500000e+03
7.8500000e+03
CROSS_AREA 1 30  float
9.9999998e-03
9.9999998e-03
9.9999998e-03
9.9999998e-03
9.9999998e-03
9.9999998e-03
9.9999998e-03
9.9999998e-03
9.9999998e-03
9.9999998e-03
9.9999998e-03
9.9999998e-03
9.9999998e-03
9.9999998e-03
9.9999998e-03
9.9999998e-03
9.9999998e-03
9.9999998e-03
9.9999998e-03
9.9999998e-03
9.9999998e-03
9.9999998e-03
9.9999998e-03
9.9999998e-03
9.9999998e-03
9.9999998e-03
9.9999998e-03
9.9999998e-03
9.9999998e-03
9.9999998e-03
I22 1 30  float
1.5000001e-04
1.5000001e-04
1.5000001e-04
1.5000001e-04
1.5000001e-04
1.5000001e-04
1.5000001e-04
1.5000001e-04
1.5000001e-04
1.5000001e-04
1.5000001e-04
1.5000001e-04
1.5000001e-04
1.5000001e-04
1.5000001e-04
1.5000001e-04
1.5000001e-04
1.5000001e-04
1.5000001e-04
1.5000001e-04
1.5000001e-04
1.5000001e-04
1.5000001e-04
1.5000001e-04
1.5000001e-04
1.5000001e-04
1.5000001e-04
1.5000001e-04
1.5000001e-04
1.5000001e-04
I33 1 30  float
1.5000001e-04
1.5000001e-04
1.5000001e-04
1.5000001e-04
1.5000001e-04
1.5000001e-04
1.5000001e-04
1.5000001e-04
1.5000001e-04
1.5000001e-04
1.5000001e-04
1.5000001e-04
1.5000001e-04
1.5000001e-04
1.5000001e-04
1.5000001e-04
1.5000001e-04
1.5000001e-04
1.5000001e-04
1.5000001e-04
1.5000001e-04
1.5000001e-04
1.5000001e-04
1.5000001e-04
1.5000001e-04
1.5000001e-04
1.5000001e-04
1.5000001e-04
1.5000001e-04
1.5000001e-04
TORSIONAL_INERTIA 1 30  float
3.0000001e-04
3.0000001e-04
3.0000001e-04
3.0000001e-04
3.0000001e-04
3.0000001e-04
3.0000001e-04
3.0000001e-04
3.0000001e-04
3.0000001e-04
3.0000001e-04
3.0000001e-04
3.0000001e-04
3.0000001e-04
3.0000001e-04
3.0000001e-04
3.0000001e-04
3.0000001e-04
3.0000001e-04
3.0000001e-04
3.0000001e-04
3.0000001e-04
3.0000001e-04
3.0000001e-04
3.0000001e-04
3.0000001e-04
3.0000001e-04
3.0000001e-04
3.0000001e-04
3.0000001e-04
POISSON_RATIO 1 30  float
3.0000001e-01
3.0000001e-01
3.0000001e-01
3.0000001e-01
3.0000001e-01
3.0000001e-01
3.0000001e-01
3.0000001e-01
3.0000001e-01
3.0000001e-01
3.0000001e-01
3.0000001e-01
3.0000001e-01
3.0000001e-01
3.0000001e-01
3.0000001e-01
3.0000001e-01
3.0000001e-01
3.0000001e-01
3.0000001e-01
3.0000001e-01
3.0000001e-01
3.0000001e-01
3.0000001e-01
3.0000001e-01
3.0000001e-01
3.0000001e-01
3.0000001e-01
3.0000001e-01
3.0000001e-01
MOMENT 3 30  float
0.0000000e+00 3.4189409e+03 0.0000000e+00 
0.0000000e+00 7.4816899e+03 0.0000000e+00 
0.0000000e+00 8.4822939e+03 0.0000000e+00 
0.0000000e+00 1.0655550e+04 0.0000000e+00 
0.0000000e+00 1.6383137e+04 0.0000000e+00 
0.0000000e+00 4.4454106e+03 0.0000000e+00 
0.0000000e+00 3.4753887e+03 0.0000000e+00 
0.0000000e+00 2.8151367e+03 0.0000000e+00 
0.0000000e+00 -1.3010953e+03 0.0000000e+00 
0.0000000e+00 -4.1734106e+03 0.0000000e+00 
0.0000000e+00 7.9007617e+02 0.0000000e+00 
0.0000000e+00 2.2191956e+03 0.0000000e+00 
0.0000000e+00 3.4972817e+03 0.0000000e+00 
0.0000000e+00 4.7753682e+03 0.0000000e+00 
0.0000000e+00 6.0534546e+03 0.0000000e+00 
0.0000000e+00 8.2625068e+03 0.0000000e+00 
0.0000000e+00 1.2591055e+04 0.0000000e+00 
0.0000000e+00 1.3341949e+04 0.0000000e+00 
0.0000000e+00 8.3305010e+03 0.0000000e+00 
0.0000000e+00 8.1344373e+02 0.0000000e+00 
0.0000000e+00 8.3269092e+03 0.0000000e+00 
0.0000000e+00 -1.9812078e+03 0.0000000e+00 
0.0000000e+00 -4.8781030e+03 0.0000000e+00 
0.0000000e+00 -4.8864067e+03 0.0000000e+00 
0.0000000e+00 -3.8730693e+03 0.0000000e+00 
0.0000000e+00 -5.4076284e+03 0.0000000e+00 
0.0000000e+00 1.1285627e+03 0.0000000e+00 
0.0000000e+00 5.7325420e+03 0.0000000e+00 
0.0000000e+00 3.3116199e+03 0.0000000e+00 
0.0000000e+00 3.1742358e+03 0.0000000e+00 
FORCE 3 30  float
-1.5916522e+04 0.0000000e+00 8.5473525e+03 
-6.3965137e+03 0.0000000e+00 1.6095200e+03 
-6.7424229e+03 0.0000000e+00 8.9198987e+02 
3.2274454e+02 0.0000000e+00 4.5411499e+03 
-4.2761006e+03 0.0000000e+00 9.7778184e+03 
7.8594855e+02 0.0000000e+00 -5.9197153e+03 
3.7872820e+03 0.0000000e+00 3.4946599e+03 
-3.4298359e+03 0.0000000e+00 -5.1452900e+03 
-3.4298359e+03 0.0000000e+00 -5.1452900e+03 
-4.1599263e+03 0.0000000e+00 -2.0354988e+03 
-1.3637398e+04 0.0000000e+00 1.9751904e+03 
-1.9074342e+04 0.0000000e+00 1.5976079e+03 
-1.9074342e+04 0.0000000e+00 1.5976079e+03 
-1.9074342e+04 0.0000000e+00 1.5976079e+03 
-1.9074342e+04 0.0000000e+00 1.5976079e+03 
-1.7239598e+04 0.0000000e+00 5.4106846e+03 
-1.7239598e+04 0.0000000e+00 5.4106846e+03 
-7.3298701e+03 0.0000000e+00 -3.5334475e+03 
6.4610315e+02 0.0000000e+00 -8.9951738e+03 
8.5725562e+02 0.0000000e+00 -9.7974688e+03 
-7.5282349e+03 0.0000000e+00 -5.1540581e+03 
-7.5282349e+03 0.0000000e+00 -5.1540581e+03 
-5.6346033e+02 0.0000000e+00 2.2571633e+03 
-1.2998140e+03 0.0000000e+00 -2.2654670e+03 
-1.0388649e+04 0.0000000e+00 3.2788044e+03 
-6.8557861e+03 0.0000000e+00 -4.2001801e+02 
-2.8418804e+03 0.0000000e+00 6.9562090e+03 
3.6126179e+03 0.0000000e+00 -2.3522297e+03 
-2.1471419e+02 0.0000000e+00 -6.8692093e+01 
-2.1471419e+02 0.0000000e+00 -6.8692093e+01 
