# vtk DataFile Version 4.0
vtk output
ASCII
DATASET UNSTRUCTURED_GRID
POINTS 30 float
0.0000000e+00 0.0000000e+00 0.0000000e+00 
0.0000000e+00 0.0000000e+00 8.0000001e-01 
0.0000000e+00 0.0000000e+00 1.6000000e+00 
0.0000000e+00 0.0000000e+00 2.4000001e+00 
0.0000000e+00 0.0000000e+00 3.2000000e+00 
0.0000000e+00 0.0000000e+00 4.0000000e+00 
0.0000000e+00 0.0000000e+00 4.8000002e+00 
0.0000000e+00 0.0000000e+00 5.5999999e+00 
0.0000000e+00 0.0000000e+00 6.4000001e+00 
0.0000000e+00 0.0000000e+00 7.1999998e+00 
0.0000000e+00 0.0000000e+00 8.0000000e+00 
1.0000000e+01 0.0000000e+00 0.0000000e+00 
1.0000000e+01 0.0000000e+00 8.0000001e-01 
1.0000000e+01 0.0000000e+00 1.6000000e+00 
1.0000000e+01 0.0000000e+00 2.4000001e+00 
1.0000000e+01 0.0000000e+00 3.2000000e+00 
1.0000000e+01 0.0000000e+00 4.0000000e+00 
1.0000000e+01 0.0000000e+00 4.8000002e+00 
1.0000000e+01 0.0000000e+00 5.5999999e+00 
1.0000000e+01 0.0000000e+00 6.4000001e+00 
1.0000000e+01 0.0000000e+00 7.1999998e+00 
1.0000000e+01 0.0000000e+00 8.0000000e+00 
2.0000000e+00 0.0000000e+00 4.0000000e+00 
4.0000000e+00 0.0000000e+00 4.0000000e+00 
6.0000000e+00 0.0000000e+00 4.0000000e+00 
8.0000000e+00 0.0000000e+00 4.0000000e+00 
2.0000000e+00 0.0000000e+00 8.0000000e+00 
4.0000000e+00 0.0000000e+00 8.0000000e+00 
6.0000000e+00 0.0000000e+00 8.0000000e+00 
8.0000000e+00 0.0000000e+00 8.0000000e+00 

CELLS 30 90
2 0 1
2 1 2
2 2 3
2 3 4
2 4 5
2 5 6
2 6 7
2 7 8
2 8 9
2 9 10
2 11 12
2 12 13
2 13 14
2 14 15
2 15 16
2 16 17
2 17 18
2 18 19
2 19 20
2 20 21
2 5 22
2 22 23
2 23 24
2 24 25
2 25 16
2 10 26
2 26 27
2 27 28
2 28 29
2 29 21

CELL_TYPES 30
3
3
3
3
3
3
3
3
3
3
3
3
3
3
3
3
3
3
3
3
3
3
3
3
3
3
3
3
3
3
POINT_DATA 30
FIELD FieldData 3
ADJOINT_DISPLACEMENT 3 30  float
0.0000000e+00 0.0000000e+00 0.0000000e+00 
-4.3385345e-02 0.0000000e+00 -4.9367975e-17 
-9.8826490e-02 0.0000000e+00 -9.8735951e-17 
-1.7837922e-01 0.0000000e+00 -1.4810392e-16 
-2.9409936e-01 0.0000000e+00 -1.9747190e-16 
-4.5804268e-01 0.0000000e+00 -2.4683988e-16 
-7.0802331e-01 0.0000000e+00 1.6358282e-04 
-1.0652622e+00 0.0000000e+00 3.2716565e-04 
-7.1692544e-01 0.0000000e+00 4.9074850e-04 
-4.5017922e-01 0.0000000e+00 6.5433129e-04 
-2.5218961e-01 0.0000000e+00 8.1791414e-04 
0.0000000e+00 0.0000000e+00 0.0000000e+00 
-1.3837335e-01 0.0000000e+00 7.7698915e-17 
-2.6469091e-01 0.0000000e+00 1.5537759e-16 
-3.6689687e-01 0.0000000e+00 2.3481559e-16 
-4.3293542e-01 0.0000000e+00 3.1423347e-16 
-4.5075080e-01 0.0000000e+00 3.9077190e-16 
-4.2615095e-01 0.0000000e+00 -1.6358282e-04 
-3.8153702e-01 0.0000000e+00 -3.2716565e-04 
-3.2974291e-01 0.0000000e+00 -4.9074850e-04 
-2.8360245e-01 0.0000000e+00 -6.5433129e-04 
-2.5594953e-01 0.0000000e+00 -8.1791414e-04 
-4.5658430e-01 0.0000000e+00 3.1144357e-01 
-4.5512593e-01 0.0000000e+00 3.5811013e-01 
-4.5366755e-01 0.0000000e+00 2.4905492e-01 
-4.5220917e-01 0.0000000e+00 9.3333133e-02 
-2.5294161e-01 0.0000000e+00 -2.6232257e-01 
-2.5369358e-01 0.0000000e+00 -2.8500119e-01 
-2.5444558e-01 0.0000000e+00 -1.7627312e-01 
-2.5519755e-01 0.0000000e+00 -4.5193635e-02 
ADJOINT_ROTATION 3 30  float
0.0000000e+00 -5.1720057e-02 0.0000000e+00 
0.0000000e+00 -5.9254929e-02 0.0000000e+00 
0.0000000e+00 -8.1859551e-02 0.0000000e+00 
0.0000000e+00 -1.1953392e-01 0.0000000e+00 
0.0000000e+00 -1.7227805e-01 0.0000000e+00 
0.0000000e+00 -2.4009190e-01 0.0000000e+00 
0.0000000e+00 -3.8218591e-01 0.0000000e+00 
0.0000000e+00 -5.0823754e-01 0.0000000e+00 
0.0000000e+00 3.8175312e-01 0.0000000e+00 
0.0000000e+00 2.8778619e-01 0.0000000e+00 
0.0000000e+00 2.0986158e-01 0.0000000e+00 
0.0000000e+00 -1.7547831e-01 0.0000000e+00 
0.0000000e+00 -1.6794345e-01 0.0000000e+00 
0.0000000e+00 -1.4533882e-01 0.0000000e+00 
0.0000000e+00 -1.0766445e-01 0.0000000e+00 
0.0000000e+00 -5.4920331e-02 0.0000000e+00 
0.0000000e+00 1.2893535e-02 0.0000000e+00 
0.0000000e+00 4.5932326e-02 0.0000000e+00 
0.0000000e+00 6.2928759e-02 0.0000000e+00 
0.0000000e+00 6.3882843e-02 0.0000000e+00 
0.0000000e+00 4.8794575e-02 0.0000000e+00 
0.0000000e+00 1.7663954e-02 0.0000000e+00 
0.0000000e+00 -8.0439597e-02 0.0000000e+00 
0.0000000e+00 2.4685098e-02 0.0000000e+00 
0.0000000e+00 7.5282186e-02 0.0000000e+00 
0.0000000e+00 7.1351662e-02 0.0000000e+00 
0.0000000e+00 6.2366839e-02 0.0000000e+00 
0.0000000e+00 -3.0600296e-02 0.0000000e+00 
0.0000000e+00 -6.9039822e-02 0.0000000e+00 
0.0000000e+00 -5.2951738e-02 0.0000000e+00 
SHAPE_SENSITIVITY 3 30  float
0.0000000e+00 0.0000000e+00 0.0000000e+00 
0.0000000e+00 0.0000000e+00 0.0000000e+00 
0.0000000e+00 0.0000000e+00 0.0000000e+00 
0.0000000e+00 0.0000000e+00 0.0000000e+00 
0.0000000e+00 0.0000000e+00 0.0000000e+00 
0.0000000e+00 0.0000000e+00 0.0000000e+00 
0.0000000e+00 0.0000000e+00 0.0000000e+00 
0.0000000e+00 0.0000000e+00 0.0000000e+00 
0.0000000e+00 0.0000000e+00 0.0000000e+00 
0.0000000e+00 0.0000000e+00 0.0000000e+00 
0.0000000e+00 0.0000000e+00 0.0000000e+00 
0.0000000e+00 0.0000000e+00 0.0000000e+00 
0.0000000e+00 0.0000000e+00 0.0000000e+00 
0.0000000e+00 0.0000000e+00 0.0000000e+00 
0.0000000e+00 0.0000000e+00 0.0000000e+00 
0.0000000e+00 0.0000000e+00 0.0000000e+00 
0.0000000e+00 0.0000000e+00 0.0000000e+00 
0.0000000e+00 0.0000000e+00 0.0000000e+00 
0.0000000e+00 0.0000000e+00 0.0000000e+00 
0.0000000e+00 0.0000000e+00 0.0000000e+00 
0.0000000e+00 0.0000000e+00 0.0000000e+00 
0.0000000e+00 0.0000000e+00 0.0000000e+00 
0.0000000e+00 0.0000000e+00 0.0000000e+00 
0.0000000e+00 0.0000000e+00 0.0000000e+00 
0.0000000e+00 0.0000000e+00 0.0000000e+00 
0.0000000e+00 0.0000000e+00 0.0000000e+00 
0.0000000e+00 0.0000000e+00 0.0000000e+00 
0.0000000e+00 0.0000000e+00 0.0000000e+00 
0.0000000e+00 0.0000000e+00 0.0000000e+00 
0.0000000e+00 0.0000000e+00 0.0000000e+00 
CELL_DATA 30
FIELD FieldData 1
I22_SENSITIVITY 1 30  float
-6.8277898e+04
-6.7808256e+05
-1.6647440e+06
-2.4350670e+06
-1.8736772e+06
-3.9009850e+06
-4.6095550e+06
-5.3096085e+06
-5.1093190e+06
-4.2066045e+06
4.0451500e+04
6.2343381e+05
2.2972422e+06
4.9572305e+06
8.4507400e+06
4.1127300e+05
-3.0446256e+05
-1.3275406e+04
6.8369669e+05
1.2287048e+06
-3.6434228e+05
2.4219995e+06
1.8711194e+06
-7.5675773e+04
2.8809532e+06
-2.7270662e+06
3.4388105e+06
2.2729940e+06
-5.0649543e+04
1.6199582e+06
