# vtk DataFile Version 4.0
vtk output
ASCII
DATASET UNSTRUCTURED_GRID
POINTS 11 float
0.0000000e+00 0.0000000e+00 0.0000000e+00 
1.0000000e-01 0.0000000e+00 0.0000000e+00 
2.0000000e-01 0.0000000e+00 0.0000000e+00 
3.0000001e-01 0.0000000e+00 0.0000000e+00 
4.0000001e-01 0.0000000e+00 0.0000000e+00 
5.0000000e-01 0.0000000e+00 0.0000000e+00 
6.0000002e-01 0.0000000e+00 0.0000000e+00 
6.9999999e-01 0.0000000e+00 0.0000000e+00 
8.0000001e-01 0.0000000e+00 0.0000000e+00 
8.9999998e-01 0.0000000e+00 0.0000000e+00 
1.0000000e+00 0.0000000e+00 0.0000000e+00 

CELLS 10 30
2 0 1
2 1 2
2 2 3
2 3 4
2 4 5
2 5 6
2 6 7
2 7 8
2 8 9
2 9 10

CELL_TYPES 10
3
3
3
3
3
3
3
3
3
3
POINT_DATA 11
FIELD FieldData 3
ADJOINT_DISPLACEMENT 3 11  float
0.0000000e+00 0.0000000e+00 0.0000000e+00 
0.0000000e+00 0.0000000e+00 4.9999999e-03 
0.0000000e+00 0.0000000e+00 2.0000000e-02 
0.0000000e+00 0.0000000e+00 4.5000002e-02 
0.0000000e+00 0.0000000e+00 7.9999998e-02 
0.0000000e+00 0.0000000e+00 1.2500000e-01 
0.0000000e+00 0.0000000e+00 7.9999998e-02 
0.0000000e+00 0.0000000e+00 4.5000002e-02 
0.0000000e+00 0.0000000e+00 2.0000000e-02 
0.0000000e+00 0.0000000e+00 4.9999999e-03 
0.0000000e+00 0.0000000e+00 0.0000000e+00 
ADJOINT_ROTATION 3 11  float
0.0000000e+00 0.0000000e+00 0.0000000e+00 
0.0000000e+00 -1.0000000e-01 0.0000000e+00 
0.0000000e+00 -2.0000000e-01 0.0000000e+00 
0.0000000e+00 -3.0000001e-01 0.0000000e+00 
0.0000000e+00 -4.0000001e-01 0.0000000e+00 
0.0000000e+00 -5.0000000e-01 0.0000000e+00 
0.0000000e+00 4.0000001e-01 0.0000000e+00 
0.0000000e+00 3.0000001e-01 0.0000000e+00 
0.0000000e+00 2.0000000e-01 0.0000000e+00 
0.0000000e+00 1.0000000e-01 0.0000000e+00 
0.0000000e+00 0.0000000e+00 0.0000000e+00 
SHAPE_SENSITIVITY 3 11  float
0.0000000e+00 0.0000000e+00 0.0000000e+00 
0.0000000e+00 0.0000000e+00 0.0000000e+00 
0.0000000e+00 0.0000000e+00 0.0000000e+00 
0.0000000e+00 0.0000000e+00 0.0000000e+00 
0.0000000e+00 0.0000000e+00 0.0000000e+00 
0.0000000e+00 0.0000000e+00 0.0000000e+00 
0.0000000e+00 0.0000000e+00 0.0000000e+00 
0.0000000e+00 0.0000000e+00 0.0000000e+00 
0.0000000e+00 0.0000000e+00 0.0000000e+00 
0.0000000e+00 0.0000000e+00 0.0000000e+00 
0.0000000e+00 0.0000000e+00 0.0000000e+00 
CELL_DATA 10
FIELD FieldData 1
I22_SENSITIVITY 1 10  float
2.3999999e-01
7.9999998e-02
-3.9999999e-02
-1.2000000e-01
-1.6000000e-01
-1.6000000e-01
-1.2000000e-01
-3.9999999e-02
8.0000006e-02
2.3999999e-01
