# vtk DataFile Version 4.0
vtk output
ASCII
DATASET UNSTRUCTURED_GRID
POINTS 30 float
0.0000000e+00 0.0000000e+00 0.0000000e+00 
0.0000000e+00 0.0000000e+00 8.0000001e-01 
0.0000000e+00 0.0000000e+00 1.6000000e+00 
0.0000000e+00 0.0000000e+00 2.4000001e+00 
0.0000000e+00 0.0000000e+00 3.2000000e+00 
0.0000000e+00 0.0000000e+00 4.0000000e+00 
0.0000000e+00 0.0000000e+00 4.8000002e+00 
0.0000000e+00 0.0000000e+00 5.5999999e+00 
0.0000000e+00 0.0000000e+00 6.4000001e+00 
0.0000000e+00 0.0000000e+00 7.1999998e+00 
0.0000000e+00 0.0000000e+00 8.0000000e+00 
1.0000000e+01 0.0000000e+00 0.0000000e+00 
1.0000000e+01 0.0000000e+00 8.0000001e-01 
1.0000000e+01 0.0000000e+00 1.6000000e+00 
1.0000000e+01 0.0000000e+00 2.4000001e+00 
1.0000000e+01 0.0000000e+00 3.2000000e+00 
1.0000000e+01 0.0000000e+00 4.0000000e+00 
1.0000000e+01 0.0000000e+00 4.8000002e+00 
1.0000000e+01 0.0000000e+00 5.5999999e+00 
1.0000000e+01 0.0000000e+00 6.4000001e+00 
1.0000000e+01 0.0000000e+00 7.1999998e+00 
1.0000000e+01 0.0000000e+00 8.0000000e+00 
2.0000000e+00 0.0000000e+00 4.0000000e+00 
4.0000000e+00 0.0000000e+00 4.0000000e+00 
6.0000000e+00 0.0000000e+00 4.0000000e+00 
8.0000000e+00 0.0000000e+00 4.0000000e+00 
2.0000000e+00 0.0000000e+00 8.0000000e+00 
4.0000000e+00 0.0000000e+00 8.0000000e+00 
6.0000000e+00 0.0000000e+00 8.0000000e+00 
8.0000000e+00 0.0000000e+00 8.0000000e+00 

CELLS 30 90
2 0 1
2 1 2
2 2 3
2 3 4
2 4 5
2 5 6
2 6 7
2 7 8
2 8 9
2 9 10
2 11 12
2 12 13
2 13 14
2 14 15
2 15 16
2 16 17
2 17 18
2 18 19
2 19 20
2 20 21
2 5 22
2 22 23
2 23 24
2 24 25
2 25 16
2 10 26
2 26 27
2 27 28
2 28 29
2 29 21

CELL_TYPES 30
3
3
3
3
3
3
3
3
3
3
3
3
3
3
3
3
3
3
3
3
3
3
3
3
3
3
3
3
3
3
POINT_DATA 30
FIELD FieldData 3
ADJOINT_DISPLACEMENT 3 30  float
0.0000000e+00 0.0000000e+00 0.0000000e+00 
-9.9288672e-02 0.0000000e+00 -3.6092309e-17 
-1.9636209e-01 0.0000000e+00 -7.2184618e-17 
-2.8900504e-01 0.0000000e+00 -1.0827692e-16 
-3.7500224e-01 0.0000000e+00 -1.4436924e-16 
-4.5213845e-01 0.0000000e+00 -1.8046153e-16 
-5.4106593e-01 0.0000000e+00 1.6358282e-04 
-6.7271483e-01 0.0000000e+00 3.2716565e-04 
-8.6028641e-01 0.0000000e+00 4.9074850e-04 
-1.1169821e+00 0.0000000e+00 6.5433129e-04 
-1.4560034e+00 0.0000000e+00 8.1791414e-04 
0.0000000e+00 0.0000000e+00 0.0000000e+00 
-8.2470030e-02 0.0000000e+00 4.4969575e-17 
-1.6715530e-01 0.0000000e+00 9.0370872e-17 
-2.5627106e-01 0.0000000e+00 1.3647325e-16 
-3.5203257e-01 0.0000000e+00 1.8185449e-16 
-4.5665506e-01 0.0000000e+00 2.2579291e-16 
-5.9310830e-01 0.0000000e+00 -1.6358282e-04 
-7.7408439e-01 0.0000000e+00 -3.2716565e-04 
-9.8638195e-01 0.0000000e+00 -4.9074850e-04 
-1.2167995e+00 0.0000000e+00 -6.5433129e-04 
-1.4521358e+00 0.0000000e+00 -8.1791414e-04 
-4.5304176e-01 0.0000000e+00 7.1231149e-02 
-4.5394507e-01 0.0000000e+00 -2.2084962e-03 
-4.5484841e-01 0.0000000e+00 -1.1126371e-01 
-4.5575172e-01 0.0000000e+00 -1.4687929e-01 
-1.4552299e+00 0.0000000e+00 -7.5737506e-01 
-1.4544563e+00 0.0000000e+00 -1.0275799e+00 
-1.4536828e+00 0.0000000e+00 -9.1885185e-01 
-1.4529094e+00 0.0000000e+00 -5.4024613e-01 
ADJOINT_ROTATION 3 30  float
0.0000000e+00 -1.2457234e-01 0.0000000e+00 
0.0000000e+00 -1.2318782e-01 0.0000000e+00 
0.0000000e+00 -1.1903423e-01 0.0000000e+00 
0.0000000e+00 -1.1211159e-01 0.0000000e+00 
0.0000000e+00 -1.0241990e-01 0.0000000e+00 
0.0000000e+00 -8.9959145e-02 0.0000000e+00 
0.0000000e+00 -1.3510993e-01 0.0000000e+00 
0.0000000e+00 -1.9676249e-01 0.0000000e+00 
0.0000000e+00 -2.7491677e-01 0.0000000e+00 
0.0000000e+00 -3.6957282e-01 0.0000000e+00 
0.0000000e+00 -4.8073062e-01 0.0000000e+00 
0.0000000e+00 -1.0262603e-01 0.0000000e+00 
0.0000000e+00 -1.0401055e-01 0.0000000e+00 
0.0000000e+00 -1.0816414e-01 0.0000000e+00 
0.0000000e+00 -1.1508678e-01 0.0000000e+00 
0.0000000e+00 -1.2477848e-01 0.0000000e+00 
0.0000000e+00 -1.3723923e-01 0.0000000e+00 
0.0000000e+00 -2.0114365e-01 0.0000000e+00 
0.0000000e+00 -2.4854633e-01 0.0000000e+00 
0.0000000e+00 -2.7944726e-01 0.0000000e+00 
0.0000000e+00 -2.9384643e-01 0.0000000e+00 
0.0000000e+00 -2.9174384e-01 0.0000000e+00 
0.0000000e+00 9.6400585e-03 0.0000000e+00 
0.0000000e+00 5.4711651e-02 0.0000000e+00 
0.0000000e+00 4.5255631e-02 0.0000000e+00 
0.0000000e+00 -1.8727994e-02 0.0000000e+00 
0.0000000e+00 2.4801151e-01 0.0000000e+00 
0.0000000e+00 3.1281266e-02 0.0000000e+00 
0.0000000e+00 -1.3092138e-01 0.0000000e+00 
0.0000000e+00 -2.3859642e-01 0.0000000e+00 
SHAPE_SENSITIVITY 3 30  float
0.0000000e+00 0.0000000e+00 0.0000000e+00 
0.0000000e+00 0.0000000e+00 0.0000000e+00 
0.0000000e+00 0.0000000e+00 0.0000000e+00 
0.0000000e+00 0.0000000e+00 0.0000000e+00 
0.0000000e+00 0.0000000e+00 0.0000000e+00 
0.0000000e+00 0.0000000e+00 0.0000000e+00 
0.0000000e+00 0.0000000e+00 0.0000000e+00 
0.0000000e+00 0.0000000e+00 0.0000000e+00 
0.0000000e+00 0.0000000e+00 0.0000000e+00 
0.0000000e+00 0.0000000e+00 0.0000000e+00 
0.0000000e+00 0.0000000e+00 0.0000000e+00 
0.0000000e+00 0.0000000e+00 0.0000000e+00 
0.0000000e+00 0.0000000e+00 0.0000000e+00 
0.0000000e+00 0.0000000e+00 0.0000000e+00 
0.0000000e+00 0.0000000e+00 0.0000000e+00 
0.0000000e+00 0.0000000e+00 0.0000000e+00 
0.0000000e+00 0.0000000e+00 0.0000000e+00 
0.0000000e+00 0.0000000e+00 0.0000000e+00 
0.0000000e+00 0.0000000e+00 0.0000000e+00 
0.0000000e+00 0.0000000e+00 0.0000000e+00 
0.0000000e+00 0.0000000e+00 0.0000000e+00 
0.0000000e+00 0.0000000e+00 0.0000000e+00 
0.0000000e+00 0.0000000e+00 0.0000000e+00 
0.0000000e+00 0.0000000e+00 0.0000000e+00 
0.0000000e+00 0.0000000e+00 0.0000000e+00 
0.0000000e+00 0.0000000e+00 0.0000000e+00 
0.0000000e+00 0.0000000e+00 0.0000000e+00 
0.0000000e+00 0.0000000e+00 0.0000000e+00 
0.0000000e+00 0.0000000e+00 0.0000000e+00 
0.0000000e+00 0.0000000e+00 0.0000000e+00 
CELL_DATA 30
FIELD FieldData 1
I22_SENSITIVITY 1 30  float
-8.8663418e+03
-9.3523742e+04
-3.1317391e+05
-5.5387675e+05
-5.3178244e+05
2.8904752e+06
3.3111068e+06
2.8674355e+06
1.1886426e+06
-1.7714974e+06
5.1695629e+04
3.0361544e+05
6.7118800e+05
9.8159038e+05
1.0660735e+06
2.0576859e+05
1.1788132e+05
3.3723039e+04
-5.0494262e+04
1.8200258e+04
2.6679385e+06
-1.4307100e+05
5.0420566e+05
2.7857522e+06
-2.6097980e+06
-9.4777690e+06
-6.6055775e+06
-2.1960210e+06
2.6154170e+06
2.0101426e+06
