# vtk DataFile Version 4.0
vtk output
ASCII
DATASET UNSTRUCTURED_GRID
POINTS 30 float
0.0000000e+00 0.0000000e+00 0.0000000e+00 
0.0000000e+00 0.0000000e+00 8.0000001e-01 
0.0000000e+00 0.0000000e+00 1.6000000e+00 
0.0000000e+00 0.0000000e+00 2.4000001e+00 
0.0000000e+00 0.0000000e+00 3.2000000e+00 
0.0000000e+00 0.0000000e+00 4.0000000e+00 
0.0000000e+00 0.0000000e+00 4.8000002e+00 
0.0000000e+00 0.0000000e+00 5.5999999e+00 
0.0000000e+00 0.0000000e+00 6.4000001e+00 
0.0000000e+00 0.0000000e+00 7.1999998e+00 
0.0000000e+00 0.0000000e+00 8.0000000e+00 
1.0000000e+01 0.0000000e+00 0.0000000e+00 
1.0000000e+01 0.0000000e+00 8.0000001e-01 
1.0000000e+01 0.0000000e+00 1.6000000e+00 
1.0000000e+01 0.0000000e+00 2.4000001e+00 
1.0000000e+01 0.0000000e+00 3.2000000e+00 
1.0000000e+01 0.0000000e+00 4.0000000e+00 
1.0000000e+01 0.0000000e+00 4.8000002e+00 
1.0000000e+01 0.0000000e+00 5.5999999e+00 
1.0000000e+01 0.0000000e+00 6.4000001e+00 
1.0000000e+01 0.0000000e+00 7.1999998e+00 
1.0000000e+01 0.0000000e+00 8.0000000e+00 
2.0000000e+00 0.0000000e+00 4.0000000e+00 
4.0000000e+00 0.0000000e+00 4.0000000e+00 
6.0000000e+00 0.0000000e+00 4.0000000e+00 
8.0000000e+00 0.0000000e+00 4.0000000e+00 
2.0000000e+00 0.0000000e+00 8.0000000e+00 
4.0000000e+00 0.0000000e+00 8.0000000e+00 
6.0000000e+00 0.0000000e+00 8.0000000e+00 
8.0000000e+00 0.0000000e+00 8.0000000e+00 

CELLS 30 90
2 0 1
2 1 2
2 2 3
2 3 4
2 4 5
2 5 6
2 6 7
2 7 8
2 8 9
2 9 10
2 11 12
2 12 13
2 13 14
2 14 15
2 15 16
2 16 17
2 17 18
2 18 19
2 19 20
2 20 21
2 5 22
2 22 23
2 23 24
2 24 25
2 25 16
2 10 26
2 26 27
2 27 28
2 28 29
2 29 21

CELL_TYPES 30
3
3
3
3
3
3
3
3
3
3
3
3
3
3
3
3
3
3
3
3
3
3
3
3
3
3
3
3
3
3
POINT_DATA 30
FIELD FieldData 7
DISPLACEMENT 3 30  float
0.0000000e+00 0.0000000e+00 0.0000000e+00 
1.3588365e-03 0.0000000e+00 -4.1720004e-06 
2.6914987e-03 0.0000000e+00 -6.8112709e-06 
3.8974530e-03 0.0000000e+00 -9.6230406e-06 
4.9443902e-03 0.0000000e+00 -1.2434810e-05 
5.8100093e-03 0.0000000e+00 -1.1583343e-05 
6.5712207e-03 0.0000000e+00 -1.0213257e-05 
7.3712175e-03 0.0000000e+00 -1.2441534e-05 
8.1982929e-03 0.0000000e+00 -1.2524485e-05 
8.9684604e-03 0.0000000e+00 -1.0753084e-05 
9.6490122e-03 0.0000000e+00 -1.0298162e-05 
0.0000000e+00 0.0000000e+00 0.0000000e+00 
1.6081830e-03 0.0000000e+00 -1.7749859e-06 
3.0785610e-03 0.0000000e+00 -3.5499718e-06 
4.2934255e-03 0.0000000e+00 -7.1220966e-06 
5.2154530e-03 0.0000000e+00 -1.0694222e-05 
5.8388105e-03 0.0000000e+00 -1.2711183e-05 
6.4314371e-03 0.0000000e+00 -8.2874940e-06 
7.2174440e-03 0.0000000e+00 -5.0339977e-06 
8.1030857e-03 0.0000000e+00 -1.7805007e-06 
8.9632040e-03 0.0000000e+00 2.5820320e-06 
9.6443594e-03 0.0000000e+00 3.1452428e-06 
5.8171172e-03 0.0000000e+00 -1.1590449e-03 
5.8242250e-03 0.0000000e+00 -1.1708863e-03 
5.8291564e-03 0.0000000e+00 -5.5565237e-04 
5.8340882e-03 0.0000000e+00 1.2645980e-04 
9.6499585e-03 0.0000000e+00 -9.9106273e-04 
9.6447710e-03 0.0000000e+00 -1.1079301e-03 
9.6424734e-03 0.0000000e+00 -2.5964557e-04 
9.6463999e-03 0.0000000e+00 6.0684641e-04 
ROTATION 3 30  float
0.0000000e+00 1.6989200e-03 0.0000000e+00 
0.0000000e+00 1.6977970e-03 0.0000000e+00 
0.0000000e+00 1.6030123e-03 0.0000000e+00 
0.0000000e+00 1.4099651e-03 0.0000000e+00 
0.0000000e+00 1.2054701e-03 0.0000000e+00 
0.0000000e+00 9.4024121e-04 0.0000000e+00 
0.0000000e+00 9.7105344e-04 0.0000000e+00 
0.0000000e+00 1.0300763e-03 0.0000000e+00 
0.0000000e+00 1.0101635e-03 0.0000000e+00 
0.0000000e+00 9.1893109e-04 0.0000000e+00 
0.0000000e+00 7.5430796e-04 0.0000000e+00 
0.0000000e+00 2.0389382e-03 0.0000000e+00 
0.0000000e+00 1.9528101e-03 0.0000000e+00 
0.0000000e+00 1.6944257e-03 0.0000000e+00 
0.0000000e+00 1.3391465e-03 0.0000000e+00 
0.0000000e+00 9.6233358e-04 0.0000000e+00 
0.0000000e+00 6.0671312e-04 0.0000000e+00 
0.0000000e+00 8.7378954e-04 0.0000000e+00 
0.0000000e+00 1.0680036e-03 0.0000000e+00 
0.0000000e+00 1.1228772e-03 0.0000000e+00 
0.0000000e+00 9.8708959e-04 0.0000000e+00 
0.0000000e+00 7.0854014e-04 0.0000000e+00 
0.0000000e+00 2.4852305e-04 0.0000000e+00 
0.0000000e+00 -1.9537908e-04 0.0000000e+00 
0.0000000e+00 -3.7209567e-04 0.0000000e+00 
0.0000000e+00 -2.6225729e-04 0.0000000e+00 
0.0000000e+00 2.7383151e-04 0.0000000e+00 
0.0000000e+00 -2.0318617e-04 0.0000000e+00 
0.0000000e+00 -5.5821252e-04 0.0000000e+00 
0.0000000e+00 -1.3612845e-04 0.0000000e+00 
REACTION 3 30  float
-1.1055094e+02 -0.0000000e+00 1.0951501e+04 
-2.1464075e-10 -0.0000000e+00 -1.8189894e-12 
-2.5647751e-10 -0.0000000e+00 -1.8189894e-12 
-5.2386895e-10 -0.0000000e+00 3.6379788e-12 
8.5310603e-10 -0.0000000e+00 7.2759576e-12 
-1.0822987e-09 -0.0000000e+00 -3.8198777e-11 
1.0413714e-09 -0.0000000e+00 -2.4010660e-10 
9.9680619e-10 -0.0000000e+00 1.2732926e-11 
-2.3646862e-10 -0.0000000e+00 -9.0949470e-13 
4.6748028e-10 -0.0000000e+00 5.0022209e-12 
-2.0627340e-09 -0.0000000e+00 -1.8189894e-12 
-8.4782354e+03 -0.0000000e+00 4.6593379e+03 
2.9103830e-10 -0.0000000e+00 7.2759576e-12 
6.4756023e-10 -0.0000000e+00 3.2741809e-11 
-1.7462298e-10 -0.0000000e+00 -7.4578566e-11 
-1.6616468e-09 -0.0000000e+00 -1.4551915e-11 
-3.9181032e-09 -0.0000000e+00 -3.2378011e-10 
1.7089405e-09 -0.0000000e+00 5.4569682e-12 
-8.1490725e-10 -0.0000000e+00 -0.0000000e+00 
-8.0945028e-10 -0.0000000e+00 -5.8389560e-10 
-1.3096724e-10 -0.0000000e+00 -1.8189894e-12 
9.3132257e-10 -0.0000000e+00 1.8208084e-09 
-0.0000000e+00 -0.0000000e+00 3.7289283e-10 
2.4738256e-10 -0.0000000e+00 5.8207661e-11 
-0.0000000e+00 -0.0000000e+00 -7.9307938e-10 
1.8535502e-09 -0.0000000e+00 -9.0949470e-12 
3.4879122e-09 -0.0000000e+00 -1.5461410e-11 
-2.3155735e-09 -0.0000000e+00 5.4569682e-12 
-2.0063453e-09 -0.0000000e+00 -2.2000677e-09 
3.2605385e-09 -0.0000000e+00 1.0004442e-11 
REACTION_MOMENT 3 30  float
-0.0000000e+00 3.2014214e-10 -0.0000000e+00 
-0.0000000e+00 2.0372681e-10 -0.0000000e+00 
-0.0000000e+00 5.6752469e-10 -0.0000000e+00 
-0.0000000e+00 -5.0931703e-10 -0.0000000e+00 
-0.0000000e+00 2.1245796e-09 -0.0000000e+00 
-0.0000000e+00 1.0331860e-09 -0.0000000e+00 
-0.0000000e+00 1.2951205e-09 -0.0000000e+00 
-0.0000000e+00 -7.2759576e-10 -0.0000000e+00 
-0.0000000e+00 1.1204975e-09 -0.0000000e+00 
-0.0000000e+00 -1.0259100e-09 -0.0000000e+00 
-0.0000000e+00 -6.3482730e-10 -0.0000000e+00 
-0.0000000e+00 -5.8207661e-11 -0.0000000e+00 
-0.0000000e+00 1.7462298e-10 -0.0000000e+00 
-0.0000000e+00 3.7834980e-10 -0.0000000e+00 
-0.0000000e+00 1.6007107e-10 -0.0000000e+00 
-0.0000000e+00 -2.4010660e-10 -0.0000000e+00 
-0.0000000e+00 1.8917490e-10 -0.0000000e+00 
-0.0000000e+00 -0.0000000e+00 -0.0000000e+00 
-0.0000000e+00 7.8580342e-10 -0.0000000e+00 
-0.0000000e+00 -5.2386895e-10 -0.0000000e+00 
-0.0000000e+00 -3.8562575e-10 -0.0000000e+00 
-0.0000000e+00 5.0931703e-10 -0.0000000e+00 
-0.0000000e+00 6.7302608e-11 -0.0000000e+00 
-0.0000000e+00 -7.2759576e-12 -0.0000000e+00 
-0.0000000e+00 -8.9130481e-11 -0.0000000e+00 
-0.0000000e+00 -5.4569682e-11 -0.0000000e+00 
-0.0000000e+00 3.6379788e-12 -0.0000000e+00 
-0.0000000e+00 3.6379788e-12 -0.0000000e+00 
-0.0000000e+00 -9.0949470e-13 -0.0000000e+00 
-0.0000000e+00 1.8189894e-12 -0.0000000e+00 
VOLUME_ACCELERATION 3 30  float
0.0000000e+00 0.0000000e+00 0.0000000e+00 
0.0000000e+00 0.0000000e+00 0.0000000e+00 
0.0000000e+00 0.0000000e+00 0.0000000e+00 
0.0000000e+00 0.0000000e+00 0.0000000e+00 
0.0000000e+00 0.0000000e+00 0.0000000e+00 
0.0000000e+00 0.0000000e+00 0.0000000e+00 
0.0000000e+00 0.0000000e+00 0.0000000e+00 
0.0000000e+00 0.0000000e+00 0.0000000e+00 
0.0000000e+00 0.0000000e+00 0.0000000e+00 
0.0000000e+00 0.0000000e+00 0.0000000e+00 
0.0000000e+00 0.0000000e+00 0.0000000e+00 
0.0000000e+00 0.0000000e+00 0.0000000e+00 
0.0000000e+00 0.0000000e+00 0.0000000e+00 
0.0000000e+00 0.0000000e+00 0.0000000e+00 
0.0000000e+00 0.0000000e+00 0.0000000e+00 
0.0000000e+00 0.0000000e+00 0.0000000e+00 
0.0000000e+00 0.0000000e+00 0.0000000e+00 
0.0000000e+00 0.0000000e+00 0.0000000e+00 
0.0000000e+00 0.0000000e+00 0.0000000e+00 
0.0000000e+00 0.0000000e+00 0.0000000e+00 
0.0000000e+00 0.0000000e+00 0.0000000e+00 
0.0000000e+00 0.0000000e+00 0.0000000e+00 
0.0000000e+00 0.0000000e+00 0.0000000e+00 
0.0000000e+00 0.0000000e+00 0.0000000e+00 
0.0000000e+00 0.0000000e+00 0.0000000e+00 
0.0000000e+00 0.0000000e+00 0.0000000e+00 
0.0000000e+00 0.0000000e+00 0.0000000e+00 
0.0000000e+00 0.0000000e+00 0.0000000e+00 
0.0000000e+00 0.0000000e+00 0.0000000e+00 
0.0000000e+00 0.0000000e+00 0.0000000e+00 
POINT_LOAD 3 30  float
0.0000000e+00 0.0000000e+00 0.0000000e+00 
-8.9987129e+03 0.0000000e+00 -4.0234160e+03 
8.5458115e+03 0.0000000e+00 4.5280920e+02 
0.0000000e+00 0.0000000e+00 0.0000000e+00 
-4.8515630e+03 0.0000000e+00 -9.6159951e+03 
3.9297934e+02 0.0000000e+00 -3.3129253e+03 
-2.1055408e+03 0.0000000e+00 9.4457002e+03 
-8.4416885e+03 0.0000000e+00 -5.6314795e+03 
9.1914062e+03 0.0000000e+00 -4.8676733e+03 
-9.3952871e+03 0.0000000e+00 3.4557554e+03 
7.3156450e+03 0.0000000e+00 -1.0442964e+03 
0.0000000e+00 0.0000000e+00 0.0000000e+00 
0.0000000e+00 0.0000000e+00 0.0000000e+00 
7.4183740e+03 0.0000000e+00 4.7174897e+03 
0.0000000e+00 0.0000000e+00 0.0000000e+00 
4.2058545e+03 0.0000000e+00 -4.0823044e+03 
1.4984265e+03 0.0000000e+00 -7.2069966e+03 
-6.5439160e+03 0.0000000e+00 3.0717524e+03 
0.0000000e+00 0.0000000e+00 0.0000000e+00 
-5.0519028e+03 0.0000000e+00 -2.9112192e+03 
9.7670127e+03 0.0000000e+00 9.9732197e+03 
0.0000000e+00 0.0000000e+00 0.0000000e+00 
0.0000000e+00 0.0000000e+00 0.0000000e+00 
2.2852629e+03 0.0000000e+00 -3.0506946e+02 
0.0000000e+00 0.0000000e+00 0.0000000e+00 
2.1937775e+02 0.0000000e+00 -7.4430874e+03 
6.4413223e+03 0.0000000e+00 4.4224595e+03 
-3.0349453e+03 0.0000000e+00 -6.2893462e+03 
-6.5347427e+03 0.0000000e+00 -4.0287803e+03 
6.2656123e+03 0.0000000e+00 9.6125635e+03 
POINT_MOMENT 3 30  float
0.0000000e+00 0.0000000e+00 0.0000000e+00 
0.0000000e+00 0.0000000e+00 0.0000000e+00 
0.0000000e+00 0.0000000e+00 0.0000000e+00 
0.0000000e+00 0.0000000e+00 0.0000000e+00 
0.0000000e+00 0.0000000e+00 0.0000000e+00 
0.0000000e+00 0.0000000e+00 0.0000000e+00 
0.0000000e+00 0.0000000e+00 0.0000000e+00 
0.0000000e+00 0.0000000e+00 0.0000000e+00 
0.0000000e+00 0.0000000e+00 0.0000000e+00 
0.0000000e+00 0.0000000e+00 0.0000000e+00 
0.0000000e+00 0.0000000e+00 0.0000000e+00 
0.0000000e+00 0.0000000e+00 0.0000000e+00 
0.0000000e+00 0.0000000e+00 0.0000000e+00 
0.0000000e+00 0.0000000e+00 0.0000000e+00 
0.0000000e+00 0.0000000e+00 0.0000000e+00 
0.0000000e+00 0.0000000e+00 0.0000000e+00 
0.0000000e+00 0.0000000e+00 0.0000000e+00 
0.0000000e+00 0.0000000e+00 0.0000000e+00 
0.0000000e+00 0.0000000e+00 0.0000000e+00 
0.0000000e+00 0.0000000e+00 0.0000000e+00 
0.0000000e+00 0.0000000e+00 0.0000000e+00 
0.0000000e+00 0.0000000e+00 0.0000000e+00 
0.0000000e+00 0.0000000e+00 0.0000000e+00 
0.0000000e+00 0.0000000e+00 0.0000000e+00 
0.0000000e+00 0.0000000e+00 0.0000000e+00 
0.0000000e+00 0.0000000e+00 0.0000000e+00 
0.0000000e+00 0.0000000e+00 0.0000000e+00 
0.0000000e+00 0.0000000e+00 0.0000000e+00 
0.0000000e+00 0.0000000e+00 0.0000000e+00 
0.0000000e+00 0.0000000e+00 0.0000000e+00 
CELL_DATA 30
FIELD FieldData 9
YOUNG_MODULUS 1 30  float
2.1000000e+11
2.1000000e+11
2.1000000e+11
2.1000000e+11
2.1000000e+11
2.1000000e+11
2.1000000e+11
2.1000000e+11
2.1000000e+11
2.1000000e+11
2.1000000e+11
2.1000000e+11
2.1000000e+11
2.1000000e+11
2.1000000e+11
2.1000000e+11
2.1000000e+11
2.1000000e+11
2.1000000e+11
2.1000000e+11
2.1000000e+11
2.1000000e+11
2.1000000e+11
2.1000000e+11
2.1000000e+11
2.1000000e+11
2.1000000e+11
2.1000000e+11
2.1000000e+11
2.1000000e+11
DENSITY 1 30  float
7.8500000e+03
7.8500000e+03
7.8500000e+03
7.8500000e+03
7.8500000e+03
7.8500000e+03
7.8500000e+03
7.8500000e+03
7.8500000e+03
7.8500000e+03
7.8500000e+03
7.8500000e+03
7.8500000e+03
7.8500000e+03
7.8500000e+03
7.8500000e+03
7.8500000e+03
7.8500000e+03
7.8500000e+03
7.8500000e+03
7.8500000e+03
7.8500000e+03
7.8500000e+03
7.8500000e+03
7.8500000e+03
7.8500000e+03
7.8500000e+03
7.8500000e+03
7.8500000e+03
7.8500000e+03
CROSS_AREA 1 30  float
9.9999998e-03
9.9999998e-03
9.9999998e-03
9.9999998e-03
9.9999998e-03
9.9999998e-03
9.9999998e-03
9.9999998e-03
9.9999998e-03
9.9999998e-03
9.9999998e-03
9.9999998e-03
9.9999998e-03
9.9999998e-03
9.9999998e-03
9.9999998e-03
9.9999998e-03
9.9999998e-03
9.9999998e-03
9.9999998e-03
9.9999998e-03
9.9999998e-03
9.9999998e-03
9.9999998e-03
9.9999998e-03
9.9999998e-03
9.9999998e-03
9.9999998e-03
9.9999998e-03
9.9999998e-03
I22 1 30  float
1.5000001e-04
1.5000001e-04
1.5000001e-04
1.5000001e-04
1.5000001e-04
1.5000001e-04
1.5000001e-04
1.5000001e-04
1.5000001e-04
1.5000001e-04
1.5000001e-04
1.5000001e-04
1.5000001e-04
1.5000001e-04
1.5000001e-04
1.5000001e-04
1.5000001e-04
1.5000001e-04
1.5000001e-04
1.5000001e-04
1.5000001e-04
1.5000001e-04
1.5000001e-04
1.5000001e-04
1.5000001e-04
1.5000001e-04
1.5000001e-04
1.5000001e-04
1.5000001e-04
1.5000001e-04
I33 1 30  float
1.5000001e-04
1.5000001e-04
1.5000001e-04
1.5000001e-04
1.5000001e-04
1.5000001e-04
1.5000001e-04
1.5000001e-04
1.5000001e-04
1.5000001e-04
1.5000001e-04
1.5000001e-04
1.5000001e-04
1.5000001e-04
1.5000001e-04
1.5000001e-04
1.5000001e-04
1.5000001e-04
1.5000001e-04
1.5000001e-04
1.5000001e-04
1.5000001e-04
1.5000001e-04
1.5000001e-04
1.5000001e-04
1.5000001e-04
1.5000001e-04
1.5000001e-04
1.5000001e-04
1.5000001e-04
TORSIONAL_INERTIA 1 30  float
3.0000001e-04
3.0000001e-04
3.0000001e-04
3.0000001e-04
3.0000001e-04
3.0000001e-04
3.0000001e-04
3.0000001e-04
3.0000001e-04
3.0000001e-04
3.0000001e-04
3.0000001e-04
3.0000001e-04
3.0000001e-04
3.0000001e-04
3.0000001e-04
3.0000001e-04
3.0000001e-04
3.0000001e-04
3.0000001e-04
3.0000001e-04
3.0000001e-04
3.0000001e-04
3.0000001e-04
3.0000001e-04
3.0000001e-04
3.0000001e-04
3.0000001e-04
3.0000001e-04
3.0000001e-04
POISSON_RATIO 1 30  float
3.0000001e-01
3.0000001e-01
3.0000001e-01
3.0000001e-01
3.0000001e-01
3.0000001e-01
3.0000001e-01
3.0000001e-01
3.0000001e-01
3.0000001e-01
3.0000001e-01
3.0000001e-01
3.0000001e-01
3.0000001e-01
3.0000001e-01
3.0000001e-01
3.0000001e-01
3.0000001e-01
3.0000001e-01
3.0000001e-01
3.0000001e-01
3.0000001e-01
3.0000001e-01
3.0000001e-01
3.0000001e-01
3.0000001e-01
3.0000001e-01
3.0000001e-01
3.0000001e-01
3.0000001e-01
MOMENT 3 30  float
0.0000000e+00 -4.4220379e+01 0.0000000e+00 
0.0000000e+00 -3.7321465e+03 0.0000000e+00 
0.0000000e+00 -7.6012334e+03 0.0000000e+00 
0.0000000e+00 -8.0519956e+03 0.0000000e+00 
0.0000000e+00 -1.0443383e+04 0.0000000e+00 
0.0000000e+00 1.2132296e+03 0.0000000e+00 
0.0000000e+00 2.3240266e+03 0.0000000e+00 
0.0000000e+00 -7.8406787e+02 0.0000000e+00 
0.0000000e+00 -3.5922751e+03 0.0000000e+00 
0.0000000e+00 -6.4820352e+03 0.0000000e+00 
0.0000000e+00 -3.3912939e+03 0.0000000e+00 
0.0000000e+00 -1.0173882e+04 0.0000000e+00 
0.0000000e+00 -1.3989120e+04 0.0000000e+00 
0.0000000e+00 -1.4837009e+04 0.0000000e+00 
0.0000000e+00 -1.4002556e+04 0.0000000e+00 
0.0000000e+00 1.0516136e+04 0.0000000e+00 
0.0000000e+00 7.6471758e+03 0.0000000e+00 
0.0000000e+00 2.1606492e+03 0.0000000e+00 
0.0000000e+00 -5.3466387e+03 0.0000000e+00 
0.0000000e+00 -1.0967883e+04 0.0000000e+00 
0.0000000e+00 -1.0894562e+04 0.0000000e+00 
0.0000000e+00 -6.9914585e+03 0.0000000e+00 
0.0000000e+00 -2.7832866e+03 0.0000000e+00 
0.0000000e+00 1.7299547e+03 0.0000000e+00 
0.0000000e+00 1.3686283e+04 0.0000000e+00 
0.0000000e+00 -7.5675044e+03 0.0000000e+00 
0.0000000e+00 -7.5130283e+03 0.0000000e+00 
0.0000000e+00 -5.5916655e+03 0.0000000e+00 
0.0000000e+00 6.6478242e+03 0.0000000e+00 
0.0000000e+00 1.3303530e+04 0.0000000e+00 
FORCE 3 30  float
-1.0951501e+04 0.0000000e+00 -1.1055094e+02 
-6.9280850e+03 0.0000000e+00 -9.1092646e+03 
-7.3808945e+03 0.0000000e+00 -5.6345282e+02 
-7.3808945e+03 0.0000000e+00 -5.6345282e+02 
2.2351003e+03 0.0000000e+00 -5.4150161e+03 
3.5964744e+03 0.0000000e+00 2.4412666e+03 
-5.8492261e+03 0.0000000e+00 3.3572598e+02 
-2.1774655e+02 0.0000000e+00 -8.1059624e+03 
4.6499268e+03 0.0000000e+00 1.0854438e+03 
1.1941714e+03 0.0000000e+00 -8.3098428e+03 
-4.6593379e+03 0.0000000e+00 -8.4782354e+03 
-4.6593379e+03 0.0000000e+00 -8.4782354e+03 
-9.3768271e+03 0.0000000e+00 -1.0598610e+03 
-9.3768271e+03 0.0000000e+00 -1.0598610e+03 
-5.2945229e+03 0.0000000e+00 3.1459937e+03 
1.1612182e+04 0.0000000e+00 -3.1424228e+02 
8.5404287e+03 0.0000000e+00 -6.8581582e+03 
8.5404287e+03 0.0000000e+00 -6.8581582e+03 
1.1451648e+04 0.0000000e+00 -1.1910062e+04 
1.4784286e+03 0.0000000e+00 -2.1430486e+03 
7.4633032e+03 0.0000000e+00 1.9515513e+03 
7.4633032e+03 0.0000000e+00 1.9515513e+03 
5.1780400e+03 0.0000000e+00 2.2566206e+03 
5.1780400e+03 0.0000000e+00 2.2566206e+03 
4.9586626e+03 0.0000000e+00 9.6997080e+03 
9.9419794e+02 0.0000000e+00 2.2384678e+03 
-5.4471245e+03 0.0000000e+00 -2.1839917e+03 
-2.4121792e+03 0.0000000e+00 4.1053545e+03 
4.1225635e+03 0.0000000e+00 8.1341348e+03 
-2.1430486e+03 0.0000000e+00 -1.4784286e+03 
