# vtk DataFile Version 4.0
vtk output
ASCII
DATASET UNSTRUCTURED_GRID
POINTS 212 float
0.0000000e+00 0.0000000e+00 0.0000000e+00 
0.0000000e+00 0.0000000e+00 2.5000000e-01 
0.0000000e+00 0.0000000e+00 5.0000000e-01 
0.0000000e+00 0.0000000e+00 7.5000000e-01 
0.0000000e+00 0.0000000e+00 1.0000000e+00 
0.0000000e+00 0.0000000e+00 1.2500000e+00 
0.0000000e+00 0.0000000e+00 1.5000000e+00 
0.0000000e+00 0.0000000e+00 1.7500000e+00 
0.0000000e+00 0.0000000e+00 2.0000000e+00 
0.0000000e+00 0.0000000e+00 2.2500000e+00 
0.0000000e+00 0.0000000e+00 2.5000000e+00 
0.0000000e+00 0.0000000e+00 2.7500000e+00 
0.0000000e+00 0.0000000e+00 3.0000000e+00 
0.0000000e+00 0.0000000e+00 3.2500000e+00 
0.0000000e+00 0.0000000e+00 3.5000000e+00 
0.0000000e+00 0.0000000e+00 3.7500000e+00 
0.0000000e+00 0.0000000e+00 4.0000000e+00 
0.0000000e+00 0.0000000e+00 4.2500000e+00 
0.0000000e+00 0.0000000e+00 4.5000000e+00 
0.0000000e+00 0.0000000e+00 4.7500000e+00 
0.0000000e+00 0.0000000e+00 5.0000000e+00 
0.0000000e+00 0.0000000e+00 5.2500000e+00 
0.0000000e+00 0.0000000e+00 5.5000000e+00 
0.0000000e+00 0.0000000e+00 5.7500000e+00 
0.0000000e+00 0.0000000e+00 6.0000000e+00 
0.0000000e+00 0.0000000e+00 6.2500000e+00 
0.0000000e+00 0.0000000e+00 6.5000000e+00 
0.0000000e+00 0.0000000e+00 6.7500000e+00 
0.0000000e+00 0.0000000e+00 7.0000000e+00 
0.0000000e+00 0.0000000e+00 7.2500000e+00 
0.0000000e+00 0.0000000e+00 7.5000000e+00 
0.0000000e+00 0.0000000e+00 7.7500000e+00 
0.0000000e+00 0.0000000e+00 8.0000000e+00 
0.0000000e+00 0.0000000e+00 8.2500000e+00 
0.0000000e+00 0.0000000e+00 8.5000000e+00 
0.0000000e+00 0.0000000e+00 8.7500000e+00 
0.0000000e+00 0.0000000e+00 9.0000000e+00 
0.0000000e+00 0.0000000e+00 9.2500000e+00 
0.0000000e+00 0.0000000e+00 9.5000000e+00 
0.0000000e+00 0.0000000e+00 9.7500000e+00 
0.0000000e+00 0.0000000e+00 1.0000000e+01 
0.0000000e+00 0.0000000e+00 1.0250000e+01 
0.0000000e+00 0.0000000e+00 1.0500000e+01 
0.0000000e+00 0.0000000e+00 1.0750000e+01 
0.0000000e+00 0.0000000e+00 1.1000000e+01 
0.0000000e+00 0.0000000e+00 1.1250000e+01 
0.0000000e+00 0.0000000e+00 1.1500000e+01 
0.0000000e+00 0.0000000e+00 1.1750000e+01 
0.0000000e+00 0.0000000e+00 1.2000000e+01 
0.0000000e+00 0.0000000e+00 1.2250000e+01 
0.0000000e+00 0.0000000e+00 1.2500000e+01 
0.0000000e+00 0.0000000e+00 1.2750000e+01 
0.0000000e+00 0.0000000e+00 1.3000000e+01 
0.0000000e+00 0.0000000e+00 1.3250000e+01 
0.0000000e+00 0.0000000e+00 1.3500000e+01 
0.0000000e+00 0.0000000e+00 1.3750000e+01 
0.0000000e+00 0.0000000e+00 1.4000000e+01 
0.0000000e+00 0.0000000e+00 1.4250000e+01 
0.0000000e+00 0.0000000e+00 1.4500000e+01 
0.0000000e+00 0.0000000e+00 1.4750000e+01 
0.0000000e+00 0.0000000e+00 1.5000000e+01 
0.0000000e+00 0.0000000e+00 1.5250000e+01 
0.0000000e+00 0.0000000e+00 1.5500000e+01 
0.0000000e+00 0.0000000e+00 1.5750000e+01 
0.0000000e+00 0.0000000e+00 1.6000000e+01 
0.0000000e+00 0.0000000e+00 1.6250000e+01 
0.0000000e+00 0.0000000e+00 1.6500000e+01 
0.0000000e+00 0.0000000e+00 1.6750000e+01 
0.0000000e+00 0.0000000e+00 1.7000000e+01 
0.0000000e+00 0.0000000e+00 1.7250000e+01 
0.0000000e+00 0.0000000e+00 1.7500000e+01 
0.0000000e+00 0.0000000e+00 1.7750000e+01 
0.0000000e+00 0.0000000e+00 1.8000000e+01 
6.0000000e+00 0.0000000e+00 0.0000000e+00 
6.0000000e+00 0.0000000e+00 2.5000000e-01 
6.0000000e+00 0.0000000e+00 5.0000000e-01 
6.0000000e+00 0.0000000e+00 7.5000000e-01 
6.0000000e+00 0.0000000e+00 1.0000000e+00 
6.0000000e+00 0.0000000e+00 1.2500000e+00 
6.0000000e+00 0.0000000e+00 1.5000000e+00 
6.0000000e+00 0.0000000e+00 1.7500000e+00 
6.0000000e+00 0.0000000e+00 2.0000000e+00 
6.0000000e+00 0.0000000e+00 2.2500000e+00 
6.0000000e+00 0.0000000e+00 2.5000000e+00 
6.0000000e+00 0.0000000e+00 2.7500000e+00 
6.0000000e+00 0.0000000e+00 3.0000000e+00 
6.0000000e+00 0.0000000e+00 3.2500000e+00 
6.0000000e+00 0.0000000e+00 3.5000000e+00 
6.0000000e+00 0.0000000e+00 3.7500000e+00 
6.0000000e+00 0.0000000e+00 4.0000000e+00 
6.0000000e+00 0.0000000e+00 4.2500000e+00 
6.0000000e+00 0.0000000e+00 4.5000000e+00 
6.0000000e+00 0.0000000e+00 4.7500000e+00 
6.0000000e+00 0.0000000e+00 5.0000000e+00 
6.0000000e+00 0.0000000e+00 5.2500000e+00 
6.0000000e+00 0.0000000e+00 5.5000000e+00 
6.0000000e+00 0.0000000e+00 5.7500000e+00 
6.0000000e+00 0.0000000e+00 6.0000000e+00 
6.0000000e+00 0.0000000e+00 6.2500000e+00 
6.0000000e+00 0.0000000e+00 6.5000000e+00 
6.0000000e+00 0.0000000e+00 6.7500000e+00 
6.0000000e+00 0.0000000e+00 7.0000000e+00 
6.0000000e+00 0.0000000e+00 7.2500000e+00 
6.0000000e+00 0.0000000e+00 7.5000000e+00 
6.0000000e+00 0.0000000e+00 7.7500000e+00 
6.0000000e+00 0.0000000e+00 8.0000000e+00 
6.0000000e+00 0.0000000e+00 8.2500000e+00 
6.0000000e+00 0.0000000e+00 8.5000000e+00 
6.0000000e+00 0.0000000e+00 8.7500000e+00 
6.0000000e+00 0.0000000e+00 9.0000000e+00 
6.0000000e+00 0.0000000e+00 9.2500000e+00 
6.0000000e+00 0.0000000e+00 9.5000000e+00 
6.0000000e+00 0.0000000e+00 9.7500000e+00 
6.0000000e+00 0.0000000e+00 1.0000000e+01 
6.0000000e+00 0.0000000e+00 1.0250000e+01 
6.0000000e+00 0.0000000e+00 1.0500000e+01 
6.0000000e+00 0.0000000e+00 1.0750000e+01 
6.0000000e+00 0.0000000e+00 1.1000000e+01 
6.0000000e+00 0.0000000e+00 1.1250000e+01 
6.0000000e+00 0.0000000e+00 1.1500000e+01 
6.0000000e+00 0.0000000e+00 1.1750000e+01 
6.0000000e+00 0.0000000e+00 1.2000000e+01 
6.0000000e+00 0.0000000e+00 1.2250000e+01 
6.0000000e+00 0.0000000e+00 1.2500000e+01 
6.0000000e+00 0.0000000e+00 1.2750000e+01 
6.0000000e+00 0.0000000e+00 1.3000000e+01 
6.0000000e+00 0.0000000e+00 1.3250000e+01 
6.0000000e+00 0.0000000e+00 1.3500000e+01 
6.0000000e+00 0.0000000e+00 1.3750000e+01 
6.0000000e+00 0.0000000e+00 1.4000000e+01 
6.0000000e+00 0.0000000e+00 1.4250000e+01 
6.0000000e+00 0.0000000e+00 1.4500000e+01 
6.0000000e+00 0.0000000e+00 1.4750000e+01 
6.0000000e+00 0.0000000e+00 1.5000000e+01 
6.0000000e+00 0.0000000e+00 1.5250000e+01 
6.0000000e+00 0.0000000e+00 1.5500000e+01 
6.0000000e+00 0.0000000e+00 1.5750000e+01 
6.0000000e+00 0.0000000e+00 1.6000000e+01 
6.0000000e+00 0.0000000e+00 1.6250000e+01 
6.0000000e+00 0.0000000e+00 1.6500000e+01 
6.0000000e+00 0.0000000e+00 1.6750000e+01 
6.0000000e+00 0.0000000e+00 1.7000000e+01 
6.0000000e+00 0.0000000e+00 1.7250000e+01 
6.0000000e+00 0.0000000e+00 1.7500000e+01 
6.0000000e+00 0.0000000e+00 1.7750000e+01 
6.0000000e+00 0.0000000e+00 1.8000000e+01 
5.0000000e-01 0.0000000e+00 3.0000000e+00 
1.0000000e+00 0.0000000e+00 3.0000000e+00 
1.5000000e+00 0.0000000e+00 3.0000000e+00 
2.0000000e+00 0.0000000e+00 3.0000000e+00 
2.5000000e+00 0.0000000e+00 3.0000000e+00 
3.0000000e+00 0.0000000e+00 3.0000000e+00 
3.5000000e+00 0.0000000e+00 3.0000000e+00 
4.0000000e+00 0.0000000e+00 3.0000000e+00 
4.5000000e+00 0.0000000e+00 3.0000000e+00 
5.0000000e+00 0.0000000e+00 3.0000000e+00 
5.5000000e+00 0.0000000e+00 3.0000000e+00 
5.0000000e-01 0.0000000e+00 6.0000000e+00 
1.0000000e+00 0.0000000e+00 6.0000000e+00 
1.5000000e+00 0.0000000e+00 6.0000000e+00 
2.0000000e+00 0.0000000e+00 6.0000000e+00 
2.5000000e+00 0.0000000e+00 6.0000000e+00 
3.0000000e+00 0.0000000e+00 6.0000000e+00 
3.5000000e+00 0.0000000e+00 6.0000000e+00 
4.0000000e+00 0.0000000e+00 6.0000000e+00 
4.5000000e+00 0.0000000e+00 6.0000000e+00 
5.0000000e+00 0.0000000e+00 6.0000000e+00 
5.5000000e+00 0.0000000e+00 6.0000000e+00 
5.0000000e-01 0.0000000e+00 9.0000000e+00 
1.0000000e+00 0.0000000e+00 9.0000000e+00 
1.5000000e+00 0.0000000e+00 9.0000000e+00 
2.0000000e+00 0.0000000e+00 9.0000000e+00 
2.5000000e+00 0.0000000e+00 9.0000000e+00 
3.0000000e+00 0.0000000e+00 9.0000000e+00 
3.5000000e+00 0.0000000e+00 9.0000000e+00 
4.0000000e+00 0.0000000e+00 9.0000000e+00 
4.5000000e+00 0.0000000e+00 9.0000000e+00 
5.0000000e+00 0.0000000e+00 9.0000000e+00 
5.5000000e+00 0.0000000e+00 9.0000000e+00 
5.0000000e-01 0.0000000e+00 1.2000000e+01 
1.0000000e+00 0.0000000e+00 1.2000000e+01 
1.5000000e+00 0.0000000e+00 1.2000000e+01 
2.0000000e+00 0.0000000e+00 1.2000000e+01 
2.5000000e+00 0.0000000e+00 1.2000000e+01 
3.0000000e+00 0.0000000e+00 1.2000000e+01 
3.5000000e+00 0.0000000e+00 1.2000000e+01 
4.0000000e+00 0.0000000e+00 1.2000000e+01 
4.5000000e+00 0.0000000e+00 1.2000000e+01 
5.0000000e+00 0.0000000e+00 1.2000000e+01 
5.5000000e+00 0.0000000e+00 1.2000000e+01 
5.0000000e-01 0.0000000e+00 1.5000000e+01 
1.0000000e+00 0.0000000e+00 1.5000000e+01 
1.5000000e+00 0.0000000e+00 1.5000000e+01 
2.0000000e+00 0.0000000e+00 1.5000000e+01 
2.5000000e+00 0.0000000e+00 1.5000000e+01 
3.0000000e+00 0.0000000e+00 1.5000000e+01 
3.5000000e+00 0.0000000e+00 1.5000000e+01 
4.0000000e+00 0.0000000e+00 1.5000000e+01 
4.5000000e+00 0.0000000e+00 1.5000000e+01 
5.0000000e+00 0.0000000e+00 1.5000000e+01 
5.5000000e+00 0.0000000e+00 1.5000000e+01 
5.0000000e-01 0.0000000e+00 1.8000000e+01 
1.0000000e+00 0.0000000e+00 1.8000000e+01 
1.5000000e+00 0.0000000e+00 1.8000000e+01 
2.0000000e+00 0.0000000e+00 1.8000000e+01 
2.5000000e+00 0.0000000e+00 1.8000000e+01 
3.0000000e+00 0.0000000e+00 1.8000000e+01 
3.5000000e+00 0.0000000e+00 1.8000000e+01 
4.0000000e+00 0.0000000e+00 1.8000000e+01 
4.5000000e+00 0.0000000e+00 1.8000000e+01 
5.0000000e+00 0.0000000e+00 1.8000000e+01 
5.5000000e+00 0.0000000e+00 1.8000000e+01 

CELLS 216 648
2 0 1
2 1 2
2 2 3
2 3 4
2 4 5
2 5 6
2 6 7
2 7 8
2 8 9
2 9 10
2 10 11
2 11 12
2 12 13
2 13 14
2 14 15
2 15 16
2 16 17
2 17 18
2 18 19
2 19 20
2 20 21
2 21 22
2 22 23
2 23 24
2 24 25
2 25 26
2 26 27
2 27 28
2 28 29
2 29 30
2 30 31
2 31 32
2 32 33
2 33 34
2 34 35
2 35 36
2 36 37
2 37 38
2 38 39
2 39 40
2 40 41
2 41 42
2 42 43
2 43 44
2 44 45
2 45 46
2 46 47
2 47 48
2 48 49
2 49 50
2 50 51
2 51 52
2 52 53
2 53 54
2 54 55
2 55 56
2 56 57
2 57 58
2 58 59
2 59 60
2 60 61
2 61 62
2 62 63
2 63 64
2 64 65
2 65 66
2 66 67
2 67 68
2 68 69
2 69 70
2 70 71
2 71 72
2 73 74
2 74 75
2 75 76
2 76 77
2 77 78
2 78 79
2 79 80
2 80 81
2 81 82
2 82 83
2 83 84
2 84 85
2 85 86
2 86 87
2 87 88
2 88 89
2 89 90
2 90 91
2 91 92
2 92 93
2 93 94
2 94 95
2 95 96
2 96 97
2 97 98
2 98 99
2 99 100
2 100 101
2 101 102
2 102 103
2 103 104
2 104 105
2 105 106
2 106 107
2 107 108
2 108 109
2 109 110
2 110 111
2 111 112
2 112 113
2 113 114
2 114 115
2 115 116
2 116 117
2 117 118
2 118 119
2 119 120
2 120 121
2 121 122
2 122 123
2 123 124
2 124 125
2 125 126
2 126 127
2 127 128
2 128 129
2 129 130
2 130 131
2 131 132
2 132 133
2 133 134
2 134 135
2 135 136
2 136 137
2 137 138
2 138 139
2 139 140
2 140 141
2 141 142
2 142 143
2 143 144
2 144 145
2 12 146
2 146 147
2 147 148
2 148 149
2 149 150
2 150 151
2 151 152
2 152 153
2 153 154
2 154 155
2 155 156
2 156 85
2 24 157
2 157 158
2 158 159
2 159 160
2 160 161
2 161 162
2 162 163
2 163 164
2 164 165
2 165 166
2 166 167
2 167 97
2 36 168
2 168 169
2 169 170
2 170 171
2 171 172
2 172 173
2 173 174
2 174 175
2 175 176
2 176 177
2 177 178
2 178 109
2 48 179
2 179 180
2 180 181
2 181 182
2 182 183
2 183 184
2 184 185
2 185 186
2 186 187
2 187 188
2 188 189
2 189 121
2 60 190
2 190 191
2 191 192
2 192 193
2 193 194
2 194 195
2 195 196
2 196 197
2 197 198
2 198 199
2 199 200
2 200 133
2 72 201
2 201 202
2 202 203
2 203 204
2 204 205
2 205 206
2 206 207
2 207 208
2 208 209
2 209 210
2 210 211
2 211 145

CELL_TYPES 216
3
3
3
3
3
3
3
3
3
3
3
3
3
3
3
3
3
3
3
3
3
3
3
3
3
3
3
3
3
3
3
3
3
3
3
3
3
3
3
3
3
3
3
3
3
3
3
3
3
3
3
3
3
3
3
3
3
3
3
3
3
3
3
3
3
3
3
3
3
3
3
3
3
3
3
3
3
3
3
3
3
3
3
3
3
3
3
3
3
3
3
3
3
3
3
3
3
3
3
3
3
3
3
3
3
3
3
3
3
3
3
3
3
3
3
3
3
3
3
3
3
3
3
3
3
3
3
3
3
3
3
3
3
3
3
3
3
3
3
3
3
3
3
3
3
3
3
3
3
3
3
3
3
3
3
3
3
3
3
3
3
3
3
3
3
3
3
3
3
3
3
3
3
3
3
3
3
3
3
3
3
3
3
3
3
3
3
3
3
3
3
3
3
3
3
3
3
3
3
3
3
3
3
3
3
3
3
3
3
3
3
3
3
3
3
3
POINT_DATA 212
FIELD FieldData 3
ADJOINT_DISPLACEMENT 3 212  float
0.0000000e+00 0.0000000e+00 0.0000000e+00 
8.9006950e-05 0.0000000e+00 3.8196638e-16 
1.7692763e-04 0.0000000e+00 7.6393277e-16 
2.6267575e-04 0.0000000e+00 1.1458991e-15 
3.4516506e-04 0.0000000e+00 1.5278655e-15 
4.2330928e-04 0.0000000e+00 1.9098319e-15 
4.9602211e-04 0.0000000e+00 2.2917982e-15 
5.6221732e-04 0.0000000e+00 2.6737645e-15 
6.2080857e-04 0.0000000e+00 3.0557311e-15 
6.7070965e-04 0.0000000e+00 3.4376974e-15 
7.1083428e-04 0.0000000e+00 3.8196637e-15 
7.4009615e-04 0.0000000e+00 4.2016303e-15 
7.5740903e-04 0.0000000e+00 4.5835964e-15 
7.6867262e-04 0.0000000e+00 -2.1043147e-09 
7.8485848e-04 0.0000000e+00 -4.2086339e-09 
8.1248779e-04 0.0000000e+00 -6.3129533e-09 
8.5808185e-04 0.0000000e+00 -8.4172722e-09 
9.2816178e-04 0.0000000e+00 -1.0521592e-08 
1.0292488e-03 0.0000000e+00 -1.2625911e-08 
1.1678643e-03 0.0000000e+00 -1.4730229e-08 
1.3505295e-03 0.0000000e+00 -1.6834550e-08 
1.5837655e-03 0.0000000e+00 -1.8938868e-08 
1.8740935e-03 0.0000000e+00 -2.1043187e-08 
2.2280349e-03 0.0000000e+00 -2.3147507e-08 
2.6521108e-03 0.0000000e+00 -2.5251826e-08 
3.1873074e-03 0.0000000e+00 -3.5773493e-08 
3.8514091e-03 0.0000000e+00 -4.6295160e-08 
4.6161353e-03 0.0000000e+00 -5.6816827e-08 
5.4532061e-03 0.0000000e+00 -6.7338497e-08 
6.3343407e-03 0.0000000e+00 -7.7860165e-08 
7.2312579e-03 0.0000000e+00 -8.8381832e-08 
8.1156781e-03 0.0000000e+00 -9.8903499e-08 
8.9593204e-03 0.0000000e+00 -1.0942517e-07 
9.7339042e-03 0.0000000e+00 -1.1994683e-07 
1.0411149e-02 0.0000000e+00 -1.3046851e-07 
1.0962775e-02 0.0000000e+00 -1.4099017e-07 
1.1360500e-02 0.0000000e+00 -1.5151184e-07 
1.1713828e-02 0.0000000e+00 -2.0201621e-07 
1.2231668e-02 0.0000000e+00 -2.5252058e-07 
1.3034854e-02 0.0000000e+00 -3.0302493e-07 
1.4244220e-02 0.0000000e+00 -3.5352932e-07 
1.5980598e-02 0.0000000e+00 -4.0403367e-07 
1.8364821e-02 0.0000000e+00 -4.5453805e-07 
2.1517722e-02 0.0000000e+00 -5.0504241e-07 
2.5560135e-02 0.0000000e+00 -5.5554676e-07 
3.0612893e-02 0.0000000e+00 -6.0605117e-07 
3.6796827e-02 0.0000000e+00 -6.5655553e-07 
4.4232775e-02 0.0000000e+00 -7.0705988e-07 
5.3041566e-02 0.0000000e+00 -7.5756429e-07 
6.4114004e-02 0.0000000e+00 -9.9956617e-07 
7.7916548e-02 0.0000000e+00 -1.2415680e-06 
9.3933515e-02 0.0000000e+00 -1.4835698e-06 
1.1164921e-01 0.0000000e+00 -1.7255717e-06 
1.3054794e-01 0.0000000e+00 -1.9675736e-06 
1.5011404e-01 0.0000000e+00 -2.2095755e-06 
1.6983180e-01 0.0000000e+00 -2.4515773e-06 
1.8918554e-01 0.0000000e+00 -2.6935791e-06 
2.0765957e-01 0.0000000e+00 -2.9355811e-06 
2.2473821e-01 0.0000000e+00 -3.1775828e-06 
2.3990576e-01 0.0000000e+00 -3.4195848e-06 
2.5264654e-01 0.0000000e+00 -3.6615866e-06 
2.6523039e-01 0.0000000e+00 -3.4322109e-06 
2.8000143e-01 0.0000000e+00 -3.2028349e-06 
2.9655543e-01 0.0000000e+00 -2.9734590e-06 
3.1448817e-01 0.0000000e+00 -2.7440831e-06 
3.3339542e-01 0.0000000e+00 -2.5147071e-06 
3.5287300e-01 0.0000000e+00 -2.2853314e-06 
3.7251666e-01 0.0000000e+00 -2.0559555e-06 
3.9192218e-01 0.0000000e+00 -1.8265796e-06 
4.1068530e-01 0.0000000e+00 -1.5972038e-06 
4.2840186e-01 0.0000000e+00 -1.3678278e-06 
4.4466761e-01 0.0000000e+00 -1.1384520e-06 
4.5907831e-01 0.0000000e+00 -9.0907611e-07 
0.0000000e+00 0.0000000e+00 0.0000000e+00 
3.7252230e-05 0.0000000e+00 -3.7558989e-16 
7.5590731e-05 0.0000000e+00 -7.5117973e-16 
1.1610179e-04 0.0000000e+00 -1.1267697e-15 
1.5987166e-04 0.0000000e+00 -1.5023597e-15 
2.0798662e-04 0.0000000e+00 -1.8779498e-15 
2.6153296e-04 0.0000000e+00 -2.2535398e-15 
3.2159695e-04 0.0000000e+00 -2.6291297e-15 
3.8926487e-04 0.0000000e+00 -3.0047198e-15 
4.6562296e-04 0.0000000e+00 -3.3803101e-15 
5.5175752e-04 0.0000000e+00 -3.7558999e-15 
6.4875482e-04 0.0000000e+00 -4.1314904e-15 
7.5770111e-04 0.0000000e+00 -4.5070805e-15 
8.8847906e-04 0.0000000e+00 2.1043147e-09 
1.0458996e-03 0.0000000e+00 4.2086339e-09 
1.2234414e-03 0.0000000e+00 6.3129533e-09 
1.4145834e-03 0.0000000e+00 8.4172722e-09 
1.6128041e-03 0.0000000e+00 1.0521592e-08 
1.8115826e-03 0.0000000e+00 1.2625911e-08 
2.0043973e-03 0.0000000e+00 1.4730230e-08 
2.1847275e-03 0.0000000e+00 1.6834550e-08 
2.3460514e-03 0.0000000e+00 1.8938868e-08 
2.4818480e-03 0.0000000e+00 2.1043189e-08 
2.5855962e-03 0.0000000e+00 2.3147507e-08 
2.6507745e-03 0.0000000e+00 2.5251826e-08 
2.6995272e-03 0.0000000e+00 3.5773493e-08 
2.7771997e-03 0.0000000e+00 4.6295160e-08 
2.9120725e-03 0.0000000e+00 5.6816827e-08 
3.1324262e-03 0.0000000e+00 6.7338497e-08 
3.4665409e-03 0.0000000e+00 7.7860165e-08 
3.9426978e-03 0.0000000e+00 8.8381832e-08 
4.5891767e-03 0.0000000e+00 9.8903499e-08 
5.4342588e-03 0.0000000e+00 1.0942517e-07 
6.5062242e-03 0.0000000e+00 1.1994683e-07 
7.8333532e-03 0.0000000e+00 1.3046851e-07 
9.4439276e-03 0.0000000e+00 1.4099017e-07 
1.1366227e-02 0.0000000e+00 1.5151184e-07 
1.3790619e-02 0.0000000e+00 2.0201621e-07 
1.6808063e-02 0.0000000e+00 2.5252058e-07 
2.0297728e-02 0.0000000e+00 3.0302493e-07 
2.4138778e-02 0.0000000e+00 3.5352932e-07 
2.8210383e-02 0.0000000e+00 4.0403367e-07 
3.2391708e-02 0.0000000e+00 4.5453805e-07 
3.6561918e-02 0.0000000e+00 5.0504241e-07 
4.0600184e-02 0.0000000e+00 5.5554676e-07 
4.4385672e-02 0.0000000e+00 6.0605117e-07 
4.7797542e-02 0.0000000e+00 6.5655553e-07 
5.0714973e-02 0.0000000e+00 7.0705988e-07 
5.3017125e-02 0.0000000e+00 7.5756429e-07 
5.5249423e-02 0.0000000e+00 9.9956617e-07 
5.8381639e-02 0.0000000e+00 1.2415680e-06 
6.2929474e-02 0.0000000e+00 1.4835698e-06 
6.9408596e-02 0.0000000e+00 1.7255717e-06 
7.8334711e-02 0.0000000e+00 1.9675736e-06 
9.0223491e-02 0.0000000e+00 2.2095755e-06 
1.0559063e-01 0.0000000e+00 2.4515773e-06 
1.2495182e-01 0.0000000e+00 2.6935791e-06 
1.4882275e-01 0.0000000e+00 2.9355811e-06 
1.7771910e-01 0.0000000e+00 3.1775828e-06 
2.1215656e-01 0.0000000e+00 3.4195848e-06 
2.5265083e-01 0.0000000e+00 3.6615866e-06 
2.9339674e-01 0.0000000e+00 3.4322109e-06 
3.2851481e-01 0.0000000e+00 3.2028349e-06 
3.5840926e-01 0.0000000e+00 2.9734590e-06 
3.8348433e-01 0.0000000e+00 2.7440831e-06 
4.0414426e-01 0.0000000e+00 2.5147071e-06 
4.2079324e-01 0.0000000e+00 2.2853314e-06 
4.3383551e-01 0.0000000e+00 2.0559555e-06 
4.4367525e-01 0.0000000e+00 1.8265796e-06 
4.5071676e-01 0.0000000e+00 1.5972038e-06 
4.5536420e-01 0.0000000e+00 1.3678278e-06 
4.5802182e-01 0.0000000e+00 1.1384520e-06 
4.5909384e-01 0.0000000e+00 9.0907611e-07 
7.5743336e-04 0.0000000e+00 -8.3354240e-07 
7.5745769e-04 0.0000000e+00 3.3556462e-05 
7.5748202e-04 0.0000000e+00 9.2648414e-05 
7.5750641e-04 0.0000000e+00 1.6592072e-04 
7.5753074e-04 0.0000000e+00 2.4285178e-04 
7.5755507e-04 0.0000000e+00 3.1291999e-04 
7.5757940e-04 0.0000000e+00 3.6560374e-04 
7.5760379e-04 0.0000000e+00 3.9038146e-04 
7.5762812e-04 0.0000000e+00 3.7673156e-04 
7.5765245e-04 0.0000000e+00 3.1413240e-04 
7.5767678e-04 0.0000000e+00 1.9206242e-04 
2.6519995e-03 0.0000000e+00 -7.6861365e-04 
2.6518882e-03 0.0000000e+00 -1.2571688e-03 
2.6517767e-03 0.0000000e+00 -1.5077775e-03 
2.6516654e-03 0.0000000e+00 -1.5625263e-03 
2.6515541e-03 0.0000000e+00 -1.4635022e-03 
2.6514428e-03 0.0000000e+00 -1.2527917e-03 
2.6513312e-03 0.0000000e+00 -9.7248179e-04 
2.6512200e-03 0.0000000e+00 -6.6465902e-04 
2.6511087e-03 0.0000000e+00 -3.7141019e-04 
2.6509971e-03 0.0000000e+00 -1.3482204e-04 
2.6508858e-03 0.0000000e+00 3.0186857e-06 
1.1360978e-02 0.0000000e+00 -2.0444726e-04 
1.1361455e-02 0.0000000e+00 2.9478461e-04 
1.1361931e-02 0.0000000e+00 1.2976306e-03 
1.1362409e-02 0.0000000e+00 2.6041772e-03 
1.1362886e-02 0.0000000e+00 4.0145111e-03 
1.1363363e-02 0.0000000e+00 5.3287186e-03 
1.1363841e-02 0.0000000e+00 6.3468856e-03 
1.1364317e-02 0.0000000e+00 6.8690996e-03 
1.1364794e-02 0.0000000e+00 6.6954470e-03 
1.1365272e-02 0.0000000e+00 5.6260135e-03 
1.1365749e-02 0.0000000e+00 3.4608862e-03 
5.3039528e-02 0.0000000e+00 -1.5727086e-02 
5.3037491e-02 0.0000000e+00 -2.5402432e-02 
5.3035453e-02 0.0000000e+00 -2.9984288e-02 
5.3033419e-02 0.0000000e+00 -3.0430136e-02 
5.3031381e-02 0.0000000e+00 -2.7697468e-02 
5.3029343e-02 0.0000000e+00 -2.2743771e-02 
5.3027306e-02 0.0000000e+00 -1.6526530e-02 
5.3025272e-02 0.0000000e+00 -1.0003232e-02 
5.3023234e-02 0.0000000e+00 -4.1313679e-03 
5.3021196e-02 0.0000000e+00 1.3157669e-04 
5.3019159e-02 0.0000000e+00 1.8281144e-03 
2.5264689e-01 0.0000000e+00 -1.1254105e-02 
2.5264725e-01 0.0000000e+00 1.9878326e-03 
2.5264761e-01 0.0000000e+00 4.2079039e-02 
2.5264797e-01 0.0000000e+00 1.1137640e-01 
2.5264832e-01 0.0000000e+00 2.1223682e-01 
2.5264868e-01 0.0000000e+00 3.4701717e-01 
2.5264904e-01 0.0000000e+00 5.1807433e-01 
2.5264940e-01 0.0000000e+00 7.2776520e-01 
2.5264975e-01 0.0000000e+00 4.7844669e-01 
2.5265011e-01 0.0000000e+00 2.7247569e-01 
2.5265047e-01 0.0000000e+00 1.1220904e-01 
4.5907959e-01 0.0000000e+00 -2.2370441e-02 
4.5908090e-01 0.0000000e+00 -3.6849827e-02 
4.5908219e-01 0.0000000e+00 -4.4585947e-02 
4.5908347e-01 0.0000000e+00 -4.6725675e-02 
4.5908478e-01 0.0000000e+00 -4.4415899e-02 
4.5908606e-01 0.0000000e+00 -3.8803492e-02 
4.5908737e-01 0.0000000e+00 -3.1035338e-02 
4.5908865e-01 0.0000000e+00 -2.2258312e-02 
4.5908996e-01 0.0000000e+00 -1.3619293e-02 
4.5909125e-01 0.0000000e+00 -6.2651648e-03 
4.5909253e-01 0.0000000e+00 -1.3428043e-03 
ADJOINT_ROTATION 3 212  float
0.0000000e+00 3.5675199e-04 0.0000000e+00 
0.0000000e+00 3.5457945e-04 0.0000000e+00 
0.0000000e+00 3.4806179e-04 0.0000000e+00 
0.0000000e+00 3.3719905e-04 0.0000000e+00 
0.0000000e+00 3.2199122e-04 0.0000000e+00 
0.0000000e+00 3.0243827e-04 0.0000000e+00 
0.0000000e+00 2.7854025e-04 0.0000000e+00 
0.0000000e+00 2.5029713e-04 0.0000000e+00 
0.0000000e+00 2.1770890e-04 0.0000000e+00 
0.0000000e+00 1.8077558e-04 0.0000000e+00 
0.0000000e+00 1.3949716e-04 0.0000000e+00 
0.0000000e+00 9.3873641e-05 0.0000000e+00 
0.0000000e+00 4.3905031e-05 0.0000000e+00 
0.0000000e+00 5.0551480e-05 0.0000000e+00 
0.0000000e+00 8.3282859e-05 0.0000000e+00 
0.0000000e+00 1.4209918e-04 0.0000000e+00 
0.0000000e+00 2.2700042e-04 0.0000000e+00 
0.0000000e+00 3.3798660e-04 0.0000000e+00 
0.0000000e+00 4.7505769e-04 0.0000000e+00 
0.0000000e+00 6.3821371e-04 0.0000000e+00 
0.0000000e+00 8.2745467e-04 0.0000000e+00 
0.0000000e+00 1.0427806e-03 0.0000000e+00 
0.0000000e+00 1.2841914e-03 0.0000000e+00 
0.0000000e+00 1.5516871e-03 0.0000000e+00 
0.0000000e+00 1.8452678e-03 0.0000000e+00 
0.0000000e+00 2.4174501e-03 0.0000000e+00 
0.0000000e+00 2.8765099e-03 0.0000000e+00 
0.0000000e+00 3.2224478e-03 0.0000000e+00 
0.0000000e+00 3.4552638e-03 0.0000000e+00 
0.0000000e+00 3.5749574e-03 0.0000000e+00 
0.0000000e+00 3.5815290e-03 0.0000000e+00 
0.0000000e+00 3.4749785e-03 0.0000000e+00 
0.0000000e+00 3.2553060e-03 0.0000000e+00 
0.0000000e+00 2.9225114e-03 0.0000000e+00 
0.0000000e+00 2.4765946e-03 0.0000000e+00 
0.0000000e+00 1.9175558e-03 0.0000000e+00 
0.0000000e+00 1.2453948e-03 0.0000000e+00 
0.0000000e+00 1.6617802e-03 0.0000000e+00 
0.0000000e+00 2.5614980e-03 0.0000000e+00 
0.0000000e+00 3.9445483e-03 0.0000000e+00 
0.0000000e+00 5.8109309e-03 0.0000000e+00 
0.0000000e+00 8.1606461e-03 0.0000000e+00 
0.0000000e+00 1.0993694e-02 0.0000000e+00 
0.0000000e+00 1.4310074e-02 0.0000000e+00 
0.0000000e+00 1.8109785e-02 0.0000000e+00 
0.0000000e+00 2.2392832e-02 0.0000000e+00 
0.0000000e+00 2.7159208e-02 0.0000000e+00 
0.0000000e+00 3.2408919e-02 0.0000000e+00 
0.0000000e+00 3.8141958e-02 0.0000000e+00 
0.0000000e+00 5.0093763e-02 0.0000000e+00 
0.0000000e+00 5.9982810e-02 0.0000000e+00 
0.0000000e+00 6.7809112e-02 0.0000000e+00 
0.0000000e+00 7.3572658e-02 0.0000000e+00 
0.0000000e+00 7.7273451e-02 0.0000000e+00 
0.0000000e+00 7.8911498e-02 0.0000000e+00 
0.0000000e+00 7.8486793e-02 0.0000000e+00 
0.0000000e+00 7.5999342e-02 0.0000000e+00 
0.0000000e+00 7.1449131e-02 0.0000000e+00 
0.0000000e+00 6.4836174e-02 0.0000000e+00 
0.0000000e+00 5.6160469e-02 0.0000000e+00 
0.0000000e+00 4.5422010e-02 0.0000000e+00 
0.0000000e+00 5.4979220e-02 0.0000000e+00 
0.0000000e+00 6.2919542e-02 0.0000000e+00 
0.0000000e+00 6.9242977e-02 0.0000000e+00 
0.0000000e+00 7.3949516e-02 0.0000000e+00 
0.0000000e+00 7.7039167e-02 0.0000000e+00 
0.0000000e+00 7.8511931e-02 0.0000000e+00 
0.0000000e+00 7.8367800e-02 0.0000000e+00 
0.0000000e+00 7.6606780e-02 0.0000000e+00 
0.0000000e+00 7.3228866e-02 0.0000000e+00 
0.0000000e+00 6.8234071e-02 0.0000000e+00 
0.0000000e+00 6.1622377e-02 0.0000000e+00 
0.0000000e+00 5.3393796e-02 0.0000000e+00 
0.0000000e+00 1.4828473e-04 0.0000000e+00 
0.0000000e+00 1.5045729e-04 0.0000000e+00 
0.0000000e+00 1.5697493e-04 0.0000000e+00 
0.0000000e+00 1.6783767e-04 0.0000000e+00 
0.0000000e+00 1.8304550e-04 0.0000000e+00 
0.0000000e+00 2.0259844e-04 0.0000000e+00 
0.0000000e+00 2.2649647e-04 0.0000000e+00 
0.0000000e+00 2.5473960e-04 0.0000000e+00 
0.0000000e+00 2.8732783e-04 0.0000000e+00 
0.0000000e+00 3.2426114e-04 0.0000000e+00 
0.0000000e+00 3.6553954e-04 0.0000000e+00 
0.0000000e+00 4.1116306e-04 0.0000000e+00 
0.0000000e+00 4.6113168e-04 0.0000000e+00 
0.0000000e+00 5.8074441e-04 0.0000000e+00 
0.0000000e+00 6.7427219e-04 0.0000000e+00 
0.0000000e+00 7.4171502e-04 0.0000000e+00 
0.0000000e+00 7.8307296e-04 0.0000000e+00 
0.0000000e+00 7.9834595e-04 0.0000000e+00 
0.0000000e+00 7.8753405e-04 0.0000000e+00 
0.0000000e+00 7.5063715e-04 0.0000000e+00 
0.0000000e+00 6.8765535e-04 0.0000000e+00 
0.0000000e+00 5.9858861e-04 0.0000000e+00 
0.0000000e+00 4.8343698e-04 0.0000000e+00 
0.0000000e+00 3.4220039e-04 0.0000000e+00 
0.0000000e+00 1.7487886e-04 0.0000000e+00 
0.0000000e+00 2.3399682e-04 0.0000000e+00 
0.0000000e+00 4.0623688e-04 0.0000000e+00 
0.0000000e+00 6.9159904e-04 0.0000000e+00 
0.0000000e+00 1.0900833e-03 0.0000000e+00 
0.0000000e+00 1.6016896e-03 0.0000000e+00 
0.0000000e+00 2.2264181e-03 0.0000000e+00 
0.0000000e+00 2.9642687e-03 0.0000000e+00 
0.0000000e+00 3.8152412e-03 0.0000000e+00 
0.0000000e+00 4.7793360e-03 0.0000000e+00 
0.0000000e+00 5.8565526e-03 0.0000000e+00 
0.0000000e+00 7.0468918e-03 0.0000000e+00 
0.0000000e+00 8.3503528e-03 0.0000000e+00 
0.0000000e+00 1.0964230e-02 0.0000000e+00 
0.0000000e+00 1.3094774e-02 0.0000000e+00 
0.0000000e+00 1.4741986e-02 0.0000000e+00 
0.0000000e+00 1.5905865e-02 0.0000000e+00 
0.0000000e+00 1.6586412e-02 0.0000000e+00 
0.0000000e+00 1.6783627e-02 0.0000000e+00 
0.0000000e+00 1.6497510e-02 0.0000000e+00 
0.0000000e+00 1.5728058e-02 0.0000000e+00 
0.0000000e+00 1.4475276e-02 0.0000000e+00 
0.0000000e+00 1.2739161e-02 0.0000000e+00 
0.0000000e+00 1.0519713e-02 0.0000000e+00 
0.0000000e+00 7.8169331e-03 0.0000000e+00 
0.0000000e+00 1.0385244e-02 0.0000000e+00 
0.0000000e+00 1.5016306e-02 0.0000000e+00 
0.0000000e+00 2.1710120e-02 0.0000000e+00 
0.0000000e+00 3.0466683e-02 0.0000000e+00 
0.0000000e+00 4.1285999e-02 0.0000000e+00 
0.0000000e+00 5.4168064e-02 0.0000000e+00 
0.0000000e+00 6.9112882e-02 0.0000000e+00 
0.0000000e+00 8.6120449e-02 0.0000000e+00 
0.0000000e+00 1.0519077e-01 0.0000000e+00 
0.0000000e+00 1.2632383e-01 0.0000000e+00 
0.0000000e+00 1.4951965e-01 0.0000000e+00 
0.0000000e+00 1.7477822e-01 0.0000000e+00 
0.0000000e+00 1.5145846e-01 0.0000000e+00 
0.0000000e+00 1.2975559e-01 0.0000000e+00 
0.0000000e+00 1.0966960e-01 0.0000000e+00 
0.0000000e+00 9.1200508e-02 0.0000000e+00 
0.0000000e+00 7.4348308e-02 0.0000000e+00 
0.0000000e+00 5.9112992e-02 0.0000000e+00 
0.0000000e+00 4.5494568e-02 0.0000000e+00 
0.0000000e+00 3.3493035e-02 0.0000000e+00 
0.0000000e+00 2.3108393e-02 0.0000000e+00 
0.0000000e+00 1.4340641e-02 0.0000000e+00 
0.0000000e+00 7.1897786e-03 0.0000000e+00 
0.0000000e+00 1.6558068e-03 0.0000000e+00 
0.0000000e+00 -3.7063663e-05 0.0000000e+00 
0.0000000e+00 -9.6989155e-05 0.0000000e+00 
0.0000000e+00 -1.3587145e-04 0.0000000e+00 
0.0000000e+00 -1.5371056e-04 0.0000000e+00 
0.0000000e+00 -1.5050646e-04 0.0000000e+00 
0.0000000e+00 -1.2625917e-04 0.0000000e+00 
0.0000000e+00 -8.0968690e-05 0.0000000e+00 
0.0000000e+00 -1.4635010e-05 0.0000000e+00 
0.0000000e+00 7.2741866e-05 0.0000000e+00 
0.0000000e+00 1.8116194e-04 0.0000000e+00 
0.0000000e+00 3.1062521e-04 0.0000000e+00 
0.0000000e+00 1.2431146e-03 0.0000000e+00 
0.0000000e+00 7.2513492e-04 0.0000000e+00 
0.0000000e+00 2.9132862e-04 0.0000000e+00 
0.0000000e+00 -5.8304176e-05 0.0000000e+00 
0.0000000e+00 -3.2376350e-04 0.0000000e+00 
0.0000000e+00 -5.0504931e-04 0.0000000e+00 
0.0000000e+00 -6.0216163e-04 0.0000000e+00 
0.0000000e+00 -6.1510049e-04 0.0000000e+00 
0.0000000e+00 -5.4386590e-04 0.0000000e+00 
0.0000000e+00 -3.8845779e-04 0.0000000e+00 
0.0000000e+00 -1.4887621e-04 0.0000000e+00 
0.0000000e+00 -3.6157397e-04 0.0000000e+00 
0.0000000e+00 -1.5687158e-03 0.0000000e+00 
0.0000000e+00 -2.3760304e-03 0.0000000e+00 
0.0000000e+00 -2.7835183e-03 0.0000000e+00 
0.0000000e+00 -2.7911789e-03 0.0000000e+00 
0.0000000e+00 -2.3990127e-03 0.0000000e+00 
0.0000000e+00 -1.6070193e-03 0.0000000e+00 
0.0000000e+00 -4.1519894e-04 0.0000000e+00 
0.0000000e+00 1.1764484e-03 0.0000000e+00 
0.0000000e+00 3.1679228e-03 0.0000000e+00 
0.0000000e+00 5.5592242e-03 0.0000000e+00 
0.0000000e+00 2.5082512e-02 0.0000000e+00 
0.0000000e+00 1.3938040e-02 0.0000000e+00 
0.0000000e+00 4.7085420e-03 0.0000000e+00 
0.0000000e+00 -2.6059812e-03 0.0000000e+00 
0.0000000e+00 -8.0055287e-03 0.0000000e+00 
0.0000000e+00 -1.1490102e-02 0.0000000e+00 
0.0000000e+00 -1.3059700e-02 0.0000000e+00 
0.0000000e+00 -1.2714324e-02 0.0000000e+00 
0.0000000e+00 -1.0453972e-02 0.0000000e+00 
0.0000000e+00 -6.2786448e-03 0.0000000e+00 
0.0000000e+00 -1.8834337e-04 0.0000000e+00 
0.0000000e+00 -1.2058645e-03 0.0000000e+00 
0.0000000e+00 -5.2547514e-02 0.0000000e+00 
0.0000000e+00 -1.0860294e-01 0.0000000e+00 
0.0000000e+00 -1.6937214e-01 0.0000000e+00 
0.0000000e+00 -2.3485513e-01 0.0000000e+00 
0.0000000e+00 -3.0505189e-01 0.0000000e+00 
0.0000000e+00 -3.7996241e-01 0.0000000e+00 
0.0000000e+00 -4.5958674e-01 0.0000000e+00 
0.0000000e+00 4.5607516e-01 0.0000000e+00 
0.0000000e+00 3.6702329e-01 0.0000000e+00 
0.0000000e+00 2.7325764e-01 0.0000000e+00 
0.0000000e+00 3.6466625e-02 0.0000000e+00 
0.0000000e+00 2.1833211e-02 0.0000000e+00 
0.0000000e+00 9.4935568e-03 0.0000000e+00 
0.0000000e+00 -5.5233965e-04 0.0000000e+00 
0.0000000e+00 -8.3044767e-03 0.0000000e+00 
0.0000000e+00 -1.3762856e-02 0.0000000e+00 
0.0000000e+00 -1.6927475e-02 0.0000000e+00 
0.0000000e+00 -1.7798336e-02 0.0000000e+00 
0.0000000e+00 -1.6375439e-02 0.0000000e+00 