# vtk DataFile Version 4.0
vtk output
ASCII
DATASET UNSTRUCTURED_GRID
POINTS 30 float
0.0000000e+00 0.0000000e+00 0.0000000e+00 
0.0000000e+00 0.0000000e+00 8.0000001e-01 
0.0000000e+00 0.0000000e+00 1.6000000e+00 
0.0000000e+00 0.0000000e+00 2.4000001e+00 
0.0000000e+00 0.0000000e+00 3.2000000e+00 
0.0000000e+00 0.0000000e+00 4.0000000e+00 
0.0000000e+00 0.0000000e+00 4.8000002e+00 
0.0000000e+00 0.0000000e+00 5.5999999e+00 
0.0000000e+00 0.0000000e+00 6.4000001e+00 
0.0000000e+00 0.0000000e+00 7.1999998e+00 
0.0000000e+00 0.0000000e+00 8.0000000e+00 
1.0000000e+01 0.0000000e+00 0.0000000e+00 
1.0000000e+01 0.0000000e+00 8.0000001e-01 
1.0000000e+01 0.0000000e+00 1.6000000e+00 
1.0000000e+01 0.0000000e+00 2.4000001e+00 
1.0000000e+01 0.0000000e+00 3.2000000e+00 
1.0000000e+01 0.0000000e+00 4.0000000e+00 
1.0000000e+01 0.0000000e+00 4.8000002e+00 
1.0000000e+01 0.0000000e+00 5.5999999e+00 
1.0000000e+01 0.0000000e+00 6.4000001e+00 
1.0000000e+01 0.0000000e+00 7.1999998e+00 
1.0000000e+01 0.0000000e+00 8.0000000e+00 
2.0000000e+00 0.0000000e+00 4.0000000e+00 
4.0000000e+00 0.0000000e+00 4.0000000e+00 
6.0000000e+00 0.0000000e+00 4.0000000e+00 
8.0000000e+00 0.0000000e+00 4.0000000e+00 
2.0000000e+00 0.0000000e+00 8.0000000e+00 
4.0000000e+00 0.0000000e+00 8.0000000e+00 
6.0000000e+00 0.0000000e+00 8.0000000e+00 
8.0000000e+00 0.0000000e+00 8.0000000e+00 

CELLS 30 90
2 0 1
2 1 2
2 2 3
2 3 4
2 4 5
2 5 6
2 6 7
2 7 8
2 8 9
2 9 10
2 11 12
2 12 13
2 13 14
2 14 15
2 15 16
2 16 17
2 17 18
2 18 19
2 19 20
2 20 21
2 5 22
2 22 23
2 23 24
2 24 25
2 25 16
2 10 26
2 26 27
2 27 28
2 28 29
2 29 21

CELL_TYPES 30
3
3
3
3
3
3
3
3
3
3
3
3
3
3
3
3
3
3
3
3
3
3
3
3
3
3
3
3
3
3
POINT_DATA 30
FIELD FieldData 7
DISPLACEMENT 3 30  float
0.0000000e+00 0.0000000e+00 0.0000000e+00 
-1.2028404e-02 0.0000000e+00 -1.5936355e-05 
-2.3610575e-02 0.0000000e+00 -2.9525007e-05 
-3.4233380e-02 0.0000000e+00 -4.6846526e-05 
-4.3305475e-02 0.0000000e+00 -6.4168045e-05 
-5.0221350e-02 0.0000000e+00 -7.7977318e-05 
-5.5811327e-02 0.0000000e+00 -8.4202686e-05 
-6.1113231e-02 0.0000000e+00 -8.6976426e-05 
-6.5924548e-02 0.0000000e+00 -8.9750167e-05 
-7.0044607e-02 0.0000000e+00 -9.5892756e-05 
-7.3210031e-02 0.0000000e+00 -9.9908182e-05 
0.0000000e+00 0.0000000e+00 0.0000000e+00 
-1.2036625e-02 0.0000000e+00 6.3855500e-06 
-2.3574021e-02 0.0000000e+00 1.2771100e-05 
-3.4122761e-02 0.0000000e+00 2.1701857e-05 
-4.3205921e-02 0.0000000e+00 3.0722600e-05 
-5.0254669e-02 0.0000000e+00 4.1543208e-05 
-5.6043983e-02 0.0000000e+00 4.6101290e-05 
-6.1503105e-02 0.0000000e+00 5.3185609e-05 
-6.6340625e-02 0.0000000e+00 6.0269929e-05 
-7.0299633e-02 0.0000000e+00 6.3944244e-05 
-7.3194534e-02 0.0000000e+00 7.0028342e-05 
-5.0238777e-02 0.0000000e+00 6.5344013e-03 
-5.0256204e-02 0.0000000e+00 2.7819169e-03 
-5.0264180e-02 0.0000000e+00 -4.2885896e-03 
-5.0264176e-02 0.0000000e+00 -7.3314426e-03 
-7.3212795e-02 0.0000000e+00 3.3523117e-03 
-7.3215559e-02 0.0000000e+00 2.3810340e-03 
-7.3213384e-02 0.0000000e+00 -3.9535546e-04 
-7.3203027e-02 0.0000000e+00 -2.3447548e-03 
ROTATION 3 30  float
0.0000000e+00 -1.5125840e-02 0.0000000e+00 
0.0000000e+00 -1.4854834e-02 0.0000000e+00 
0.0000000e+00 -1.3994475e-02 0.0000000e+00 
0.0000000e+00 -1.2435926e-02 0.0000000e+00 
0.0000000e+00 -1.0117695e-02 0.0000000e+00 
0.0000000e+00 -7.0481738e-03 0.0000000e+00 
0.0000000e+00 -6.8596071e-03 0.0000000e+00 
0.0000000e+00 -6.3579613e-03 0.0000000e+00 
0.0000000e+00 -5.6331400e-03 0.0000000e+00 
0.0000000e+00 -4.6021347e-03 0.0000000e+00 
0.0000000e+00 -3.2788590e-03 0.0000000e+00 
0.0000000e+00 -1.5149788e-02 0.0000000e+00 
0.0000000e+00 -1.4837770e-02 0.0000000e+00 
0.0000000e+00 -1.3901712e-02 0.0000000e+00 
0.0000000e+00 -1.2378387e-02 0.0000000e+00 
0.0000000e+00 -1.0204365e-02 0.0000000e+00 
0.0000000e+00 -7.2988123e-03 0.0000000e+00 
0.0000000e+00 -7.0974897e-03 0.0000000e+00 
0.0000000e+00 -6.4928588e-03 0.0000000e+00 
0.0000000e+00 -5.5434951e-03 0.0000000e+00 
0.0000000e+00 -4.3201395e-03 0.0000000e+00 
0.0000000e+00 -2.8780808e-03 0.0000000e+00 
0.0000000e+00 -1.3958910e-04 0.0000000e+00 
0.0000000e+00 3.3166890e-03 0.0000000e+00 
0.0000000e+00 3.1073191e-03 0.0000000e+00 
0.0000000e+00 -5.7592656e-04 0.0000000e+00 
0.0000000e+00 -3.9679822e-04 0.0000000e+00 
0.0000000e+00 1.1446385e-03 0.0000000e+00 
0.0000000e+00 1.4397450e-03 0.0000000e+00 
0.0000000e+00 1.8506502e-04 0.0000000e+00 
REACTION 3 30  float
2.6677068e+04 -0.0000000e+00 4.1832934e+04 
-3.1650416e-10 -0.0000000e+00 2.1827873e-11 
-7.1158865e-09 -0.0000000e+00 -1.4551915e-11 
7.9162419e-09 -0.0000000e+00 -1.4551915e-11 
9.7279553e-09 -0.0000000e+00 5.0931703e-11 
1.3737008e-08 -0.0000000e+00 -2.6193447e-10 
-3.7136488e-08 -0.0000000e+00 3.0504452e-09 
-9.5460564e-09 -0.0000000e+00 2.9103830e-11 
1.5064870e-08 -0.0000000e+00 3.6743586e-10 
-5.4569682e-11 -0.0000000e+00 -1.7644197e-10 
-1.0681106e-08 -0.0000000e+00 -1.6370905e-11 
3.0714359e+04 -0.0000000e+00 -1.6762068e+04 
4.6566129e-10 -0.0000000e+00 -1.3096724e-10 
-1.0029908e-08 -0.0000000e+00 -3.9290171e-10 
9.8298187e-09 -0.0000000e+00 9.0949470e-11 
8.1345206e-09 -0.0000000e+00 8.0399332e-10 
-4.3983164e-09 -0.0000000e+00 9.6624717e-09 
-4.0345185e-09 -0.0000000e+00 -1.4551915e-11 
4.4237822e-09 -0.0000000e+00 -1.4551915e-11 
-5.0222297e-09 -0.0000000e+00 6.7775545e-09 
8.1818143e-09 -0.0000000e+00 5.4569682e-12 
-1.6036211e-08 -0.0000000e+00 3.6379788e-11 
-0.0000000e+00 -0.0000000e+00 -4.4674380e-09 
-1.3849785e-08 -0.0000000e+00 2.1100277e-10 
3.1395757e-09 -0.0000000e+00 -6.1627361e-09 
2.4245310e-08 -0.0000000e+00 9.8953024e-10 
-0.0000000e+00 -0.0000000e+00 6.1845640e-11 
6.5701897e-09 -0.0000000e+00 4.0017767e-11 
1.8892024e-08 -0.0000000e+00 -5.0731614e-09 
-8.1072358e-09 -0.0000000e+00 -5.2750693e-11 
REACTION_MOMENT 3 30  float
-0.0000000e+00 -0.0000000e+00 -0.0000000e+00 
-0.0000000e+00 -9.3132257e-10 -0.0000000e+00 
-0.0000000e+00 -1.1408702e-08 -0.0000000e+00 
-0.0000000e+00 1.0477379e-09 -0.0000000e+00 
-0.0000000e+00 -1.3387762e-08 -0.0000000e+00 
-0.0000000e+00 -4.3655746e-10 -0.0000000e+00 
-0.0000000e+00 -4.1909516e-09 -0.0000000e+00 
-0.0000000e+00 5.4133125e-09 -0.0000000e+00 
-0.0000000e+00 -1.2805685e-08 -0.0000000e+00 
-0.0000000e+00 7.7707227e-09 -0.0000000e+00 
-0.0000000e+00 4.7584763e-09 -0.0000000e+00 
-0.0000000e+00 -2.3283064e-10 -0.0000000e+00 
-0.0000000e+00 2.3283064e-10 -0.0000000e+00 
-0.0000000e+00 -2.3283064e-10 -0.0000000e+00 
-0.0000000e+00 2.7939677e-09 -0.0000000e+00 
-0.0000000e+00 -3.4924597e-10 -0.0000000e+00 
-0.0000000e+00 1.1059456e-09 -0.0000000e+00 
-0.0000000e+00 -1.2223609e-09 -0.0000000e+00 
-0.0000000e+00 -9.1386028e-09 -0.0000000e+00 
-0.0000000e+00 -3.5506673e-09 -0.0000000e+00 
-0.0000000e+00 -4.0745363e-10 -0.0000000e+00 
-0.0000000e+00 1.4115358e-09 -0.0000000e+00 
-0.0000000e+00 -2.1827873e-10 -0.0000000e+00 
-0.0000000e+00 5.0931703e-10 -0.0000000e+00 
-0.0000000e+00 8.1490725e-10 -0.0000000e+00 
-0.0000000e+00 7.2759576e-10 -0.0000000e+00 
-0.0000000e+00 2.1827873e-11 -0.0000000e+00 
-0.0000000e+00 2.1827873e-11 -0.0000000e+00 
-0.0000000e+00 -5.4569682e-11 -0.0000000e+00 
-0.0000000e+00 -7.2759576e-12 -0.0000000e+00 
VOLUME_ACCELERATION 3 30  float
0.0000000e+00 0.0000000e+00 0.0000000e+00 
0.0000000e+00 0.0000000e+00 0.0000000e+00 
0.0000000e+00 0.0000000e+00 0.0000000e+00 
0.0000000e+00 0.0000000e+00 0.0000000e+00 
0.0000000e+00 0.0000000e+00 0.0000000e+00 
0.0000000e+00 0.0000000e+00 0.0000000e+00 
0.0000000e+00 0.0000000e+00 0.0000000e+00 
0.0000000e+00 0.0000000e+00 0.0000000e+00 
0.0000000e+00 0.0000000e+00 0.0000000e+00 
0.0000000e+00 0.0000000e+00 0.0000000e+00 
0.0000000e+00 0.0000000e+00 0.0000000e+00 
0.0000000e+00 0.0000000e+00 0.0000000e+00 
0.0000000e+00 0.0000000e+00 0.0000000e+00 
0.0000000e+00 0.0000000e+00 0.0000000e+00 
0.0000000e+00 0.0000000e+00 0.0000000e+00 
0.0000000e+00 0.0000000e+00 0.0000000e+00 
0.0000000e+00 0.0000000e+00 0.0000000e+00 
0.0000000e+00 0.0000000e+00 0.0000000e+00 
0.0000000e+00 0.0000000e+00 0.0000000e+00 
0.0000000e+00 0.0000000e+00 0.0000000e+00 
0.0000000e+00 0.0000000e+00 0.0000000e+00 
0.0000000e+00 0.0000000e+00 0.0000000e+00 
0.0000000e+00 0.0000000e+00 0.0000000e+00 
0.0000000e+00 0.0000000e+00 0.0000000e+00 
0.0000000e+00 0.0000000e+00 0.0000000e+00 
0.0000000e+00 0.0000000e+00 0.0000000e+00 
0.0000000e+00 0.0000000e+00 0.0000000e+00 
0.0000000e+00 0.0000000e+00 0.0000000e+00 
0.0000000e+00 0.0000000e+00 0.0000000e+00 
0.0000000e+00 0.0000000e+00 0.0000000e+00 
POINT_LOAD 3 30  float
0.0000000e+00 0.0000000e+00 0.0000000e+00 
4.6604175e+03 0.0000000e+00 -6.1627300e+03 
6.0531021e+03 0.0000000e+00 9.7987891e+03 
0.0000000e+00 0.0000000e+00 0.0000000e+00 
-8.2605292e+02 0.0000000e+00 -9.2196650e+03 
1.5680221e+03 0.0000000e+00 7.2791772e+03 
-8.8499287e+03 0.0000000e+00 -9.0605234e+03 
0.0000000e+00 0.0000000e+00 0.0000000e+00 
8.1712124e+03 0.0000000e+00 8.8432373e+03 
-9.5408857e+03 0.0000000e+00 -5.5838184e+03 
-6.7112686e+03 0.0000000e+00 1.6927649e+01 
0.0000000e+00 0.0000000e+00 0.0000000e+00 
0.0000000e+00 0.0000000e+00 0.0000000e+00 
-3.6194194e+03 0.0000000e+00 -6.6811646e+03 
9.8630049e+03 0.0000000e+00 -2.3622061e+02 
-1.9057793e+03 0.0000000e+00 -4.7246426e+03 
-2.3391226e+03 0.0000000e+00 -7.2686851e+03 
-5.7659766e+03 0.0000000e+00 -6.6313799e+03 
0.0000000e+00 0.0000000e+00 0.0000000e+00 
-6.9636260e+03 0.0000000e+00 8.9512559e+03 
1.5212018e+03 0.0000000e+00 -6.3256724e+03 
-2.6008337e+03 0.0000000e+00 2.8242690e+03 
0.0000000e+00 0.0000000e+00 0.0000000e+00 
-9.9237285e+03 0.0000000e+00 3.3601265e+03 
-8.3777891e+03 0.0000000e+00 -6.3805371e+03 
-9.9764385e+03 0.0000000e+00 -4.5868164e+02 
0.0000000e+00 0.0000000e+00 0.0000000e+00 
-5.1889673e+03 0.0000000e+00 -1.4851267e+03 
-8.5829053e+03 0.0000000e+00 6.2645620e+03 
1.9443335e+03 0.0000000e+00 -2.1903618e+03 
POINT_MOMENT 3 30  float
0.0000000e+00 0.0000000e+00 0.0000000e+00 
0.0000000e+00 0.0000000e+00 0.0000000e+00 
0.0000000e+00 0.0000000e+00 0.0000000e+00 
0.0000000e+00 0.0000000e+00 0.0000000e+00 
0.0000000e+00 0.0000000e+00 0.0000000e+00 
0.0000000e+00 0.0000000e+00 0.0000000e+00 
0.0000000e+00 0.0000000e+00 0.0000000e+00 
0.0000000e+00 0.0000000e+00 0.0000000e+00 
0.0000000e+00 0.0000000e+00 0.0000000e+00 
0.0000000e+00 0.0000000e+00 0.0000000e+00 
0.0000000e+00 0.0000000e+00 0.0000000e+00 
0.0000000e+00 0.0000000e+00 0.0000000e+00 
0.0000000e+00 0.0000000e+00 0.0000000e+00 
0.0000000e+00 0.0000000e+00 0.0000000e+00 
0.0000000e+00 0.0000000e+00 0.0000000e+00 
0.0000000e+00 0.0000000e+00 0.0000000e+00 
0.0000000e+00 0.0000000e+00 0.0000000e+00 
0.0000000e+00 0.0000000e+00 0.0000000e+00 
0.0000000e+00 0.0000000e+00 0.0000000e+00 
0.0000000e+00 0.0000000e+00 0.0000000e+00 
0.0000000e+00 0.0000000e+00 0.0000000e+00 
0.0000000e+00 0.0000000e+00 0.0000000e+00 
0.0000000e+00 0.0000000e+00 0.0000000e+00 
0.0000000e+00 0.0000000e+00 0.0000000e+00 
0.0000000e+00 0.0000000e+00 0.0000000e+00 
0.0000000e+00 0.0000000e+00 0.0000000e+00 
0.0000000e+00 0.0000000e+00 0.0000000e+00 
0.0000000e+00 0.0000000e+00 0.0000000e+00 
0.0000000e+00 0.0000000e+00 0.0000000e+00 
0.0000000e+00 0.0000000e+00 0.0000000e+00 
CELL_DATA 30
FIELD FieldData 9
YOUNG_MODULUS 1 30  float
2.1000000e+11
2.1000000e+11
2.1000000e+11
2.1000000e+11
2.1000000e+11
2.1000000e+11
2.1000000e+11
2.1000000e+11
2.1000000e+11
2.1000000e+11
2.1000000e+11
2.1000000e+11
2.1000000e+11
2.1000000e+11
2.1000000e+11
2.1000000e+11
2.1000000e+11
2.1000000e+11
2.1000000e+11
2.1000000e+11
2.1000000e+11
2.1000000e+11
2.1000000e+11
2.1000000e+11
2.1000000e+11
2.1000000e+11
2.1000000e+11
2.1000000e+11
2.1000000e+11
2.1000000e+11
DENSITY 1 30  float
7.8500000e+03
7.8500000e+03
7.8500000e+03
7.8500000e+03
7.8500000e+03
7.8500000e+03
7.8500000e+03
7.8500000e+03
7.8500000e+03
7.8500000e+03
7.8500000e+03
7.8500000e+03
7.8500000e+03
7.8500000e+03
7.8500000e+03
7.8500000e+03
7.8500000e+03
7.8500000e+03
7.8500000e+03
7.8500000e+03
7.8500000e+03
7.8500000e+03
7.8500000e+03
7.8500000e+03
7.8500000e+03
7.8500000e+03
7.8500000e+03
7.8500000e+03
7.8500000e+03
7.8500000e+03
CROSS_AREA 1 30  float
9.9999998e-03
9.9999998e-03
9.9999998e-03
9.9999998e-03
9.9999998e-03
9.9999998e-03
9.9999998e-03
9.9999998e-03
9.9999998e-03
9.9999998e-03
9.9999998e-03
9.9999998e-03
9.9999998e-03
9.9999998e-03
9.9999998e-03
9.9999998e-03
9.9999998e-03
9.9999998e-03
9.9999998e-03
9.9999998e-03
9.9999998e-03
9.9999998e-03
9.9999998e-03
9.9999998e-03
9.9999998e-03
9.9999998e-03
9.9999998e-03
9.9999998e-03
9.9999998e-03
9.9999998e-03
I22 1 30  float
1.5000001e-04
1.5000001e-04
1.5000001e-04
1.5000001e-04
1.5000001e-04
1.5000001e-04
1.5000001e-04
1.5000001e-04
1.5000001e-04
1.5000001e-04
1.5000001e-04
1.5000001e-04
1.5000001e-04
1.5000001e-04
1.5000001e-04
1.5000001e-04
1.5000001e-04
1.5000001e-04
1.5000001e-04
1.5000001e-04
1.5000001e-04
1.5000001e-04
1.5000001e-04
1.5000001e-04
1.5000001e-04
1.5000001e-04
1.5000001e-04
1.5000001e-04
1.5000001e-04
1.5000001e-04
I33 1 30  float
1.5000001e-04
1.5000001e-04
1.5000001e-04
1.5000001e-04
1.5000001e-04
1.5000001e-04
1.5000001e-04
1.5000001e-04
1.5000001e-04
1.5000001e-04
1.5000001e-04
1.5000001e-04
1.5000001e-04
1.5000001e-04
1.5000001e-04
1.5000001e-04
1.5000001e-04
1.5000001e-04
1.5000001e-04
1.5000001e-04
1.5000001e-04
1.5000001e-04
1.5000001e-04
1.5000001e-04
1.5000001e-04
1.5000001e-04
1.5000001e-04
1.5000001e-04
1.5000001e-04
1.5000001e-04
TORSIONAL_INERTIA 1 30  float
3.0000001e-04
3.0000001e-04
3.0000001e-04
3.0000001e-04
3.0000001e-04
3.0000001e-04
3.0000001e-04
3.0000001e-04
3.0000001e-04
3.0000001e-04
3.0000001e-04
3.0000001e-04
3.0000001e-04
3.0000001e-04
3.0000001e-04
3.0000001e-04
3.0000001e-04
3.0000001e-04
3.0000001e-04
3.0000001e-04
3.0000001e-04
3.0000001e-04
3.0000001e-04
3.0000001e-04
3.0000001e-04
3.0000001e-04
3.0000001e-04
3.0000001e-04
3.0000001e-04
3.0000001e-04
POISSON_RATIO 1 30  float
3.0000001e-01
3.0000001e-01
3.0000001e-01
3.0000001e-01
3.0000001e-01
3.0000001e-01
3.0000001e-01
3.0000001e-01
3.0000001e-01
3.0000001e-01
3.0000001e-01
3.0000001e-01
3.0000001e-01
3.0000001e-01
3.0000001e-01
3.0000001e-01
3.0000001e-01
3.0000001e-01
3.0000001e-01
3.0000001e-01
3.0000001e-01
3.0000001e-01
3.0000001e-01
3.0000001e-01
3.0000001e-01
3.0000001e-01
3.0000001e-01
3.0000001e-01
3.0000001e-01
3.0000001e-01
MOMENT 3 30  float
0.0000000e+00 1.0670827e+04 0.0000000e+00 
0.0000000e+00 3.3876648e+04 0.0000000e+00 
0.0000000e+00 6.1367879e+04 0.0000000e+00 
0.0000000e+00 9.1280344e+04 0.0000000e+00 
0.0000000e+00 1.2086240e+05 0.0000000e+00 
0.0000000e+00 7.4248164e+03 0.0000000e+00 
0.0000000e+00 1.9752311e+04 0.0000000e+00 
0.0000000e+00 2.8539832e+04 0.0000000e+00 
0.0000000e+00 4.0595840e+04 0.0000000e+00 
0.0000000e+00 5.2103977e+04 0.0000000e+00 
0.0000000e+00 1.2285744e+04 0.0000000e+00 
0.0000000e+00 3.6857230e+04 0.0000000e+00 
0.0000000e+00 5.9980953e+04 0.0000000e+00 
0.0000000e+00 8.5602109e+04 0.0000000e+00 
0.0000000e+00 1.1440615e+05 0.0000000e+00 
0.0000000e+00 7.9270737e+03 0.0000000e+00 
0.0000000e+00 2.3807332e+04 0.0000000e+00 
0.0000000e+00 3.7381203e+04 0.0000000e+00 
0.0000000e+00 4.8169621e+04 0.0000000e+00 
0.0000000e+00 5.6781070e+04 0.0000000e+00 
0.0000000e+00 1.0881021e+05 0.0000000e+00 
0.0000000e+00 5.4436383e+04 0.0000000e+00 
0.0000000e+00 -3.2975752e+03 0.0000000e+00 
0.0000000e+00 -5.8011121e+04 0.0000000e+00 
0.0000000e+00 -1.0588545e+05 0.0000000e+00 
0.0000000e+00 4.5392457e+04 0.0000000e+00 
0.0000000e+00 2.4277629e+04 0.0000000e+00 
0.0000000e+00 4.6479272e+03 0.0000000e+00 
0.0000000e+00 -1.9761209e+04 0.0000000e+00 
0.0000000e+00 -4.8244547e+04 0.0000000e+00 
FORCE 3 30  float
-4.1832934e+04 0.0000000e+00 2.6677068e+04 
-3.5670203e+04 0.0000000e+00 3.1337484e+04 
-4.5468992e+04 0.0000000e+00 3.7390586e+04 
-4.5468992e+04 0.0000000e+00 3.7390586e+04 
-3.6249328e+04 0.0000000e+00 3.6564535e+04 
-1.6341592e+04 0.0000000e+00 1.9834332e+04 
-7.2810674e+03 0.0000000e+00 1.0984403e+04 
-7.2810674e+03 0.0000000e+00 1.0984403e+04 
-1.6124305e+04 0.0000000e+00 1.9155615e+04 
-1.0540486e+04 0.0000000e+00 9.6147295e+03 
1.6762068e+04 0.0000000e+00 3.0714359e+04 
1.6762068e+04 0.0000000e+00 3.0714359e+04 
2.3443234e+04 0.0000000e+00 2.7094941e+04 
2.3679455e+04 0.0000000e+00 3.6957945e+04 
2.8404098e+04 0.0000000e+00 3.5052168e+04 
1.1964959e+04 0.0000000e+00 2.2733312e+04 
1.8596340e+04 0.0000000e+00 1.6967336e+04 
1.8596340e+04 0.0000000e+00 1.6967336e+04 
9.6450840e+03 0.0000000e+00 1.0003710e+04 
1.5970757e+04 0.0000000e+00 1.1524912e+04 
-1.8298225e+04 0.0000000e+00 -2.7186914e+04 
-1.8298225e+04 0.0000000e+00 -2.7186914e+04 
-8.3744961e+03 0.0000000e+00 -3.0547041e+04 
3.2930906e+00 0.0000000e+00 -2.4166504e+04 
9.9797314e+03 0.0000000e+00 -2.3707822e+04 
-2.9034609e+03 0.0000000e+00 -1.0557414e+04 
-2.9034609e+03 0.0000000e+00 -1.0557414e+04 
2.2855063e+03 0.0000000e+00 -9.0722871e+03 
1.0868411e+04 0.0000000e+00 -1.5336850e+04 
8.9240781e+03 0.0000000e+00 -1.3146487e+04 
