# vtk DataFile Version 4.0
vtk output
ASCII
DATASET UNSTRUCTURED_GRID
POINTS 12 float
0.0000000e+00 0.0000000e+00 0.0000000e+00 
0.0000000e+00 2.0000000e+00 0.0000000e+00 
0.0000000e+00 4.0000000e+00 0.0000000e+00 
2.0000000e+00 4.0000000e+00 0.0000000e+00 
2.0000000e+00 2.0000000e+00 0.0000000e+00 
2.0000000e+00 0.0000000e+00 0.0000000e+00 
0.0000000e+00 0.0000000e+00 2.0000000e+00 
0.0000000e+00 2.0000000e+00 2.0000000e+00 
0.0000000e+00 4.0000000e+00 2.0000000e+00 
2.0000000e+00 4.0000000e+00 2.0000000e+00 
2.0000000e+00 2.0000000e+00 2.0000000e+00 
2.0000000e+00 0.0000000e+00 2.0000000e+00 

CELLS 12 36
2 0 1
2 1 2
2 2 3
2 3 4
2 4 5
2 1 4
2 6 7
2 7 8
2 8 9
2 9 10
2 10 11
2 7 10

CELL_TYPES 12
3
3
3
3
3
3
3
3
3
3
3
3
POINT_DATA 12
FIELD FieldData 4
DISPLACEMENT 3 12  float
0.0000000e+00 0.0000000e+00 0.0000000e+00 
3.1468091e-05 -1.4648128e-04 0.0000000e+00 
5.7788431e-05 -2.2658559e-04 0.0000000e+00 
5.7788431e-05 -2.4604227e-04 0.0000000e+00 
3.1468091e-05 -1.7966529e-04 0.0000000e+00 
0.0000000e+00 0.0000000e+00 0.0000000e+00 
0.0000000e+00 0.0000000e+00 0.0000000e+00 
3.7326594e-05 -9.9552017e-05 0.0000000e+00 
8.7080953e-05 -1.3275768e-04 0.0000000e+00 
8.7080953e-05 -1.9908238e-04 0.0000000e+00 
3.7326594e-05 -1.3273602e-04 0.0000000e+00 
0.0000000e+00 0.0000000e+00 0.0000000e+00 
REACTION 3 12  float
-7.2475359e-13 4.4142137e+04 -0.0000000e+00 
-2.7959857e-12 4.1723283e-06 -0.0000000e+00 
-1.1723955e-13 -2.5894412e-01 -0.0000000e+00 
2.3447910e-13 4.3023319e-06 -0.0000000e+00 
2.1316282e-12 -2.5894043e-01 -0.0000000e+00 
1.2718715e-12 5.4142137e+04 -0.0000000e+00 
-1.8829382e-13 3.0000000e+04 -0.0000000e+00 
1.8154367e-12 4.1723220e-06 -0.0000000e+00 
3.8298253e-12 5.4987036e-06 -0.0000000e+00 
-3.4781067e-12 9.3278104e-06 -0.0000000e+00 
-1.7905677e-12 4.1723283e-06 -0.0000000e+00 
-1.8829382e-13 4.0000000e+04 -0.0000000e+00 
ROTATION 3 12  float
0.0000000e+00 0.0000000e+00 -1.5734046e-05 
0.0000000e+00 0.0000000e+00 -1.5734046e-05 
0.0000000e+00 0.0000000e+00 -1.0586296e-05 
0.0000000e+00 0.0000000e+00 -1.0586296e-05 
0.0000000e+00 0.0000000e+00 -1.5734046e-05 
0.0000000e+00 0.0000000e+00 -1.5734046e-05 
0.0000000e+00 0.0000000e+00 -1.8663297e-05 
0.0000000e+00 0.0000000e+00 -1.8663297e-05 
0.0000000e+00 0.0000000e+00 -3.1091062e-05 
0.0000000e+00 0.0000000e+00 -3.1091062e-05 
0.0000000e+00 0.0000000e+00 -1.8663297e-05 
0.0000000e+00 0.0000000e+00 -1.8663297e-05 
REACTION_MOMENT 3 12  float
-0.0000000e+00 -0.0000000e+00 -0.0000000e+00 
-0.0000000e+00 -0.0000000e+00 -2.8421709e-14 
-0.0000000e+00 -0.0000000e+00 1.0658141e-14 
-0.0000000e+00 -0.0000000e+00 1.0658141e-14 
-0.0000000e+00 -0.0000000e+00 -6.7501560e-14 
-0.0000000e+00 -0.0000000e+00 -3.0198066e-12 
-0.0000000e+00 -0.0000000e+00 -7.1054274e-15 
-0.0000000e+00 -0.0000000e+00 -0.0000000e+00 
-0.0000000e+00 -0.0000000e+00 2.8421709e-14 
-0.0000000e+00 -0.0000000e+00 1.4210855e-14 
-0.0000000e+00 -0.0000000e+00 -4.2632564e-14 
-0.0000000e+00 -0.0000000e+00 -0.0000000e+00 
CELL_DATA 12
FIELD FieldData 0
