# vtk DataFile Version 4.0
vtk output
ASCII
DATASET UNSTRUCTURED_GRID
POINTS 12 float
0.0000000e+00 0.0000000e+00 0.0000000e+00 
0.0000000e+00 2.0000000e+00 0.0000000e+00 
0.0000000e+00 4.0000000e+00 0.0000000e+00 
2.0000000e+00 4.0000000e+00 0.0000000e+00 
2.0000000e+00 2.0000000e+00 0.0000000e+00 
2.0000000e+00 0.0000000e+00 0.0000000e+00 
0.0000000e+00 0.0000000e+00 2.0000000e+00 
0.0000000e+00 2.0000000e+00 2.0000000e+00 
0.0000000e+00 4.0000000e+00 2.0000000e+00 
2.0000000e+00 4.0000000e+00 2.0000000e+00 
2.0000000e+00 2.0000000e+00 2.0000000e+00 
2.0000000e+00 0.0000000e+00 2.0000000e+00 

CELLS 16 48
2 0 1
2 1 2
2 2 3
2 3 4
2 4 5
2 1 4
2 6 7
2 7 8
2 8 9
2 9 10
2 10 11
2 7 10
2 1 7
2 2 8
2 3 9
2 4 10

CELL_TYPES 16
3
3
3
3
3
3
3
3
3
3
3
3
3
3
3
3
POINT_DATA 12
FIELD FieldData 4
DISPLACEMENT 3 12  float
0.0000000e+00 0.0000000e+00 0.0000000e+00 
3.6735612e-05 -1.4634177e-04 -2.0977654e-05 
7.1630078e-05 -2.2634908e-04 -7.9218153e-05 
7.1630078e-05 -2.4616302e-04 -7.4118419e-05 
3.6735612e-05 -1.7972912e-04 -2.2468152e-05 
0.0000000e+00 0.0000000e+00 0.0000000e+00 
0.0000000e+00 0.0000000e+00 0.0000000e+00 
3.2059070e-05 -9.9691533e-05 -2.0977654e-05 
7.3239302e-05 -1.3299419e-04 -7.9218153e-05 
7.3239302e-05 -1.9896161e-04 -7.4118419e-05 
3.2059070e-05 -1.3267220e-04 -2.2468152e-05 
0.0000000e+00 0.0000000e+00 0.0000000e+00 
REACTION 3 12  float
-4.2676347e-01 4.4100094e+04 -4.2676347e-01 
-1.1626256e-12 4.1437979e-06 -4.6362914e-13 
-8.2076568e-12 -2.8819355e-01 -6.7856831e-13 
-9.3258734e-13 3.3114463e-06 7.1871398e-12 
-1.1910473e-12 -2.8818989e-01 5.8619776e-14 
-4.2676347e-01 5.4161371e+04 4.2676347e-01 
4.2676347e-01 3.0042043e+04 -4.2676347e-01 
-2.0241586e-12 4.1100848e-06 -4.1833204e-13 
-1.5552004e-12 5.4721349e-06 -8.0095930e-12 
5.6967764e-12 8.2603383e-06 -1.2612134e-13 
1.6742163e-12 4.1577086e-06 1.3411494e-13 
4.2676347e-01 3.9980766e+04 4.2676347e-01 
ROTATION 3 12  float
0.0000000e+00 -8.0004293e-07 -1.8638768e-05 
-2.1248614e-05 -8.0004293e-07 -1.7825883e-05 
-4.0353429e-05 -8.6909398e-07 -1.3721162e-05 
-2.6091528e-05 -8.6909398e-07 -1.3721162e-05 
-2.2197191e-05 -8.0004293e-07 -1.7825883e-05 
0.0000000e+00 -8.0004293e-07 -1.8638768e-05 
0.0000000e+00 -8.0004293e-07 -1.5758575e-05 
-2.1248614e-05 -8.0004293e-07 -1.6571457e-05 
-4.0353429e-05 -8.6909398e-07 -2.7956194e-05 
-2.6091528e-05 -8.6909398e-07 -2.7956194e-05 
-2.2197191e-05 -8.0004293e-07 -1.6571457e-05 
0.0000000e+00 -8.0004293e-07 -1.5758575e-05 
REACTION_MOMENT 3 12  float
1.0728759e+01 -0.0000000e+00 -0.0000000e+00 
3.4638958e-14 1.2434498e-14 3.9079850e-14 
3.5527137e-14 -1.9539925e-14 -8.0824236e-14 
-1.5987212e-14 -3.0198066e-14 -6.6613381e-14 
4.4408921e-15 -1.7763568e-15 -4.4408921e-15 
1.2080289e+01 -2.8310687e-15 -3.5527137e-14 
1.0728759e+01 -1.1102230e-16 -3.1974423e-14 
1.5099033e-14 -5.3290705e-15 -2.8421709e-14 
5.6843419e-14 -1.0658141e-14 2.2204460e-14 
9.0594199e-14 6.8389738e-14 -2.5757174e-14 
-7.9936058e-15 -2.9309888e-14 4.7073456e-14 
1.2080289e+01 -0.0000000e+00 -0.0000000e+00 
CELL_DATA 16
FIELD FieldData 0
