# vtk DataFile Version 4.0
vtk output
ASCII
DATASET UNSTRUCTURED_GRID
POINTS 212 float
0.0000000e+00 0.0000000e+00 0.0000000e+00 
0.0000000e+00 0.0000000e+00 2.5000000e-01 
0.0000000e+00 0.0000000e+00 5.0000000e-01 
0.0000000e+00 0.0000000e+00 7.5000000e-01 
0.0000000e+00 0.0000000e+00 1.0000000e+00 
0.0000000e+00 0.0000000e+00 1.2500000e+00 
0.0000000e+00 0.0000000e+00 1.5000000e+00 
0.0000000e+00 0.0000000e+00 1.7500000e+00 
0.0000000e+00 0.0000000e+00 2.0000000e+00 
0.0000000e+00 0.0000000e+00 2.2500000e+00 
0.0000000e+00 0.0000000e+00 2.5000000e+00 
0.0000000e+00 0.0000000e+00 2.7500000e+00 
0.0000000e+00 0.0000000e+00 3.0000000e+00 
0.0000000e+00 0.0000000e+00 3.2500000e+00 
0.0000000e+00 0.0000000e+00 3.5000000e+00 
0.0000000e+00 0.0000000e+00 3.7500000e+00 
0.0000000e+00 0.0000000e+00 4.0000000e+00 
0.0000000e+00 0.0000000e+00 4.2500000e+00 
0.0000000e+00 0.0000000e+00 4.5000000e+00 
0.0000000e+00 0.0000000e+00 4.7500000e+00 
0.0000000e+00 0.0000000e+00 5.0000000e+00 
0.0000000e+00 0.0000000e+00 5.2500000e+00 
0.0000000e+00 0.0000000e+00 5.5000000e+00 
0.0000000e+00 0.0000000e+00 5.7500000e+00 
0.0000000e+00 0.0000000e+00 6.0000000e+00 
0.0000000e+00 0.0000000e+00 6.2500000e+00 
0.0000000e+00 0.0000000e+00 6.5000000e+00 
0.0000000e+00 0.0000000e+00 6.7500000e+00 
0.0000000e+00 0.0000000e+00 7.0000000e+00 
0.0000000e+00 0.0000000e+00 7.2500000e+00 
0.0000000e+00 0.0000000e+00 7.5000000e+00 
0.0000000e+00 0.0000000e+00 7.7500000e+00 
0.0000000e+00 0.0000000e+00 8.0000000e+00 
0.0000000e+00 0.0000000e+00 8.2500000e+00 
0.0000000e+00 0.0000000e+00 8.5000000e+00 
0.0000000e+00 0.0000000e+00 8.7500000e+00 
0.0000000e+00 0.0000000e+00 9.0000000e+00 
0.0000000e+00 0.0000000e+00 9.2500000e+00 
0.0000000e+00 0.0000000e+00 9.5000000e+00 
0.0000000e+00 0.0000000e+00 9.7500000e+00 
0.0000000e+00 0.0000000e+00 1.0000000e+01 
0.0000000e+00 0.0000000e+00 1.0250000e+01 
0.0000000e+00 0.0000000e+00 1.0500000e+01 
0.0000000e+00 0.0000000e+00 1.0750000e+01 
0.0000000e+00 0.0000000e+00 1.1000000e+01 
0.0000000e+00 0.0000000e+00 1.1250000e+01 
0.0000000e+00 0.0000000e+00 1.1500000e+01 
0.0000000e+00 0.0000000e+00 1.1750000e+01 
0.0000000e+00 0.0000000e+00 1.2000000e+01 
0.0000000e+00 0.0000000e+00 1.2250000e+01 
0.0000000e+00 0.0000000e+00 1.2500000e+01 
0.0000000e+00 0.0000000e+00 1.2750000e+01 
0.0000000e+00 0.0000000e+00 1.3000000e+01 
0.0000000e+00 0.0000000e+00 1.3250000e+01 
0.0000000e+00 0.0000000e+00 1.3500000e+01 
0.0000000e+00 0.0000000e+00 1.3750000e+01 
0.0000000e+00 0.0000000e+00 1.4000000e+01 
0.0000000e+00 0.0000000e+00 1.4250000e+01 
0.0000000e+00 0.0000000e+00 1.4500000e+01 
0.0000000e+00 0.0000000e+00 1.4750000e+01 
0.0000000e+00 0.0000000e+00 1.5000000e+01 
0.0000000e+00 0.0000000e+00 1.5250000e+01 
0.0000000e+00 0.0000000e+00 1.5500000e+01 
0.0000000e+00 0.0000000e+00 1.5750000e+01 
0.0000000e+00 0.0000000e+00 1.6000000e+01 
0.0000000e+00 0.0000000e+00 1.6250000e+01 
0.0000000e+00 0.0000000e+00 1.6500000e+01 
0.0000000e+00 0.0000000e+00 1.6750000e+01 
0.0000000e+00 0.0000000e+00 1.7000000e+01 
0.0000000e+00 0.0000000e+00 1.7250000e+01 
0.0000000e+00 0.0000000e+00 1.7500000e+01 
0.0000000e+00 0.0000000e+00 1.7750000e+01 
0.0000000e+00 0.0000000e+00 1.8000000e+01 
5.0000000e-01 0.0000000e+00 3.0000000e+00 
5.0000000e-01 0.0000000e+00 6.0000000e+00 
5.0000000e-01 0.0000000e+00 9.0000000e+00 
5.0000000e-01 0.0000000e+00 1.2000000e+01 
5.0000000e-01 0.0000000e+00 1.5000000e+01 
5.0000000e-01 0.0000000e+00 1.8000000e+01 
1.0000000e+00 0.0000000e+00 3.0000000e+00 
1.0000000e+00 0.0000000e+00 6.0000000e+00 
1.0000000e+00 0.0000000e+00 9.0000000e+00 
1.0000000e+00 0.0000000e+00 1.2000000e+01 
1.0000000e+00 0.0000000e+00 1.5000000e+01 
1.0000000e+00 0.0000000e+00 1.8000000e+01 
1.5000000e+00 0.0000000e+00 3.0000000e+00 
1.5000000e+00 0.0000000e+00 6.0000000e+00 
1.5000000e+00 0.0000000e+00 9.0000000e+00 
1.5000000e+00 0.0000000e+00 1.2000000e+01 
1.5000000e+00 0.0000000e+00 1.5000000e+01 
1.5000000e+00 0.0000000e+00 1.8000000e+01 
2.0000000e+00 0.0000000e+00 3.0000000e+00 
2.0000000e+00 0.0000000e+00 6.0000000e+00 
2.0000000e+00 0.0000000e+00 9.0000000e+00 
2.0000000e+00 0.0000000e+00 1.2000000e+01 
2.0000000e+00 0.0000000e+00 1.5000000e+01 
2.0000000e+00 0.0000000e+00 1.8000000e+01 
2.5000000e+00 0.0000000e+00 3.0000000e+00 
2.5000000e+00 0.0000000e+00 6.0000000e+00 
2.5000000e+00 0.0000000e+00 9.0000000e+00 
2.5000000e+00 0.0000000e+00 1.2000000e+01 
2.5000000e+00 0.0000000e+00 1.5000000e+01 
2.5000000e+00 0.0000000e+00 1.8000000e+01 
3.0000000e+00 0.0000000e+00 3.0000000e+00 
3.0000000e+00 0.0000000e+00 6.0000000e+00 
3.0000000e+00 0.0000000e+00 9.0000000e+00 
3.0000000e+00 0.0000000e+00 1.2000000e+01 
3.0000000e+00 0.0000000e+00 1.5000000e+01 
3.0000000e+00 0.0000000e+00 1.8000000e+01 
3.5000000e+00 0.0000000e+00 3.0000000e+00 
3.5000000e+00 0.0000000e+00 6.0000000e+00 
3.5000000e+00 0.0000000e+00 9.0000000e+00 
3.5000000e+00 0.0000000e+00 1.2000000e+01 
3.5000000e+00 0.0000000e+00 1.5000000e+01 
3.5000000e+00 0.0000000e+00 1.8000000e+01 
4.0000000e+00 0.0000000e+00 3.0000000e+00 
4.0000000e+00 0.0000000e+00 6.0000000e+00 
4.0000000e+00 0.0000000e+00 9.0000000e+00 
4.0000000e+00 0.0000000e+00 1.2000000e+01 
4.0000000e+00 0.0000000e+00 1.5000000e+01 
4.0000000e+00 0.0000000e+00 1.8000000e+01 
4.5000000e+00 0.0000000e+00 3.0000000e+00 
4.5000000e+00 0.0000000e+00 6.0000000e+00 
4.5000000e+00 0.0000000e+00 9.0000000e+00 
4.5000000e+00 0.0000000e+00 1.2000000e+01 
4.5000000e+00 0.0000000e+00 1.5000000e+01 
4.5000000e+00 0.0000000e+00 1.8000000e+01 
5.0000000e+00 0.0000000e+00 3.0000000e+00 
5.0000000e+00 0.0000000e+00 6.0000000e+00 
5.0000000e+00 0.0000000e+00 9.0000000e+00 
5.0000000e+00 0.0000000e+00 1.2000000e+01 
5.0000000e+00 0.0000000e+00 1.5000000e+01 
5.0000000e+00 0.0000000e+00 1.8000000e+01 
5.5000000e+00 0.0000000e+00 3.0000000e+00 
5.5000000e+00 0.0000000e+00 6.0000000e+00 
5.5000000e+00 0.0000000e+00 9.0000000e+00 
5.5000000e+00 0.0000000e+00 1.2000000e+01 
5.5000000e+00 0.0000000e+00 1.5000000e+01 
5.5000000e+00 0.0000000e+00 1.8000000e+01 
6.0000000e+00 0.0000000e+00 0.0000000e+00 
6.0000000e+00 0.0000000e+00 2.5000000e-01 
6.0000000e+00 0.0000000e+00 5.0000000e-01 
6.0000000e+00 0.0000000e+00 7.5000000e-01 
6.0000000e+00 0.0000000e+00 1.0000000e+00 
6.0000000e+00 0.0000000e+00 1.2500000e+00 
6.0000000e+00 0.0000000e+00 1.5000000e+00 
6.0000000e+00 0.0000000e+00 1.7500000e+00 
6.0000000e+00 0.0000000e+00 2.0000000e+00 
6.0000000e+00 0.0000000e+00 2.2500000e+00 
6.0000000e+00 0.0000000e+00 2.5000000e+00 
6.0000000e+00 0.0000000e+00 2.7500000e+00 
6.0000000e+00 0.0000000e+00 3.0000000e+00 
6.0000000e+00 0.0000000e+00 3.2500000e+00 
6.0000000e+00 0.0000000e+00 3.5000000e+00 
6.0000000e+00 0.0000000e+00 3.7500000e+00 
6.0000000e+00 0.0000000e+00 4.0000000e+00 
6.0000000e+00 0.0000000e+00 4.2500000e+00 
6.0000000e+00 0.0000000e+00 4.5000000e+00 
6.0000000e+00 0.0000000e+00 4.7500000e+00 
6.0000000e+00 0.0000000e+00 5.0000000e+00 
6.0000000e+00 0.0000000e+00 5.2500000e+00 
6.0000000e+00 0.0000000e+00 5.5000000e+00 
6.0000000e+00 0.0000000e+00 5.7500000e+00 
6.0000000e+00 0.0000000e+00 6.0000000e+00 
6.0000000e+00 0.0000000e+00 6.2500000e+00 
6.0000000e+00 0.0000000e+00 6.5000000e+00 
6.0000000e+00 0.0000000e+00 6.7500000e+00 
6.0000000e+00 0.0000000e+00 7.0000000e+00 
6.0000000e+00 0.0000000e+00 7.2500000e+00 
6.0000000e+00 0.0000000e+00 7.5000000e+00 
6.0000000e+00 0.0000000e+00 7.7500000e+00 
6.0000000e+00 0.0000000e+00 8.0000000e+00 
6.0000000e+00 0.0000000e+00 8.2500000e+00 
6.0000000e+00 0.0000000e+00 8.5000000e+00 
6.0000000e+00 0.0000000e+00 8.7500000e+00 
6.0000000e+00 0.0000000e+00 9.0000000e+00 
6.0000000e+00 0.0000000e+00 9.2500000e+00 
6.0000000e+00 0.0000000e+00 9.5000000e+00 
6.0000000e+00 0.0000000e+00 9.7500000e+00 
6.0000000e+00 0.0000000e+00 1.0000000e+01 
6.0000000e+00 0.0000000e+00 1.0250000e+01 
6.0000000e+00 0.0000000e+00 1.0500000e+01 
6.0000000e+00 0.0000000e+00 1.0750000e+01 
6.0000000e+00 0.0000000e+00 1.1000000e+01 
6.0000000e+00 0.0000000e+00 1.1250000e+01 
6.0000000e+00 0.0000000e+00 1.1500000e+01 
6.0000000e+00 0.0000000e+00 1.1750000e+01 
6.0000000e+00 0.0000000e+00 1.2000000e+01 
6.0000000e+00 0.0000000e+00 1.2250000e+01 
6.0000000e+00 0.0000000e+00 1.2500000e+01 
6.0000000e+00 0.0000000e+00 1.2750000e+01 
6.0000000e+00 0.0000000e+00 1.3000000e+01 
6.0000000e+00 0.0000000e+00 1.3250000e+01 
6.0000000e+00 0.0000000e+00 1.3500000e+01 
6.0000000e+00 0.0000000e+00 1.3750000e+01 
6.0000000e+00 0.0000000e+00 1.4000000e+01 
6.0000000e+00 0.0000000e+00 1.4250000e+01 
6.0000000e+00 0.0000000e+00 1.4500000e+01 
6.0000000e+00 0.0000000e+00 1.4750000e+01 
6.0000000e+00 0.0000000e+00 1.5000000e+01 
6.0000000e+00 0.0000000e+00 1.5250000e+01 
6.0000000e+00 0.0000000e+00 1.5500000e+01 
6.0000000e+00 0.0000000e+00 1.5750000e+01 
6.0000000e+00 0.0000000e+00 1.6000000e+01 
6.0000000e+00 0.0000000e+00 1.6250000e+01 
6.0000000e+00 0.0000000e+00 1.6500000e+01 
6.0000000e+00 0.0000000e+00 1.6750000e+01 
6.0000000e+00 0.0000000e+00 1.7000000e+01 
6.0000000e+00 0.0000000e+00 1.7250000e+01 
6.0000000e+00 0.0000000e+00 1.7500000e+01 
6.0000000e+00 0.0000000e+00 1.7750000e+01 
6.0000000e+00 0.0000000e+00 1.8000000e+01 

CELLS 216 648
2 0 1
2 1 2
2 2 3
2 3 4
2 4 5
2 5 6
2 6 7
2 7 8
2 8 9
2 9 10
2 10 11
2 11 12
2 12 13
2 13 14
2 14 15
2 15 16
2 16 17
2 17 18
2 18 19
2 19 20
2 20 21
2 21 22
2 22 23
2 23 24
2 24 25
2 25 26
2 26 27
2 27 28
2 28 29
2 29 30
2 30 31
2 31 32
2 32 33
2 33 34
2 34 35
2 35 36
2 36 37
2 37 38
2 38 39
2 39 40
2 40 41
2 41 42
2 42 43
2 43 44
2 44 45
2 45 46
2 46 47
2 47 48
2 48 49
2 49 50
2 50 51
2 51 52
2 52 53
2 53 54
2 54 55
2 55 56
2 56 57
2 57 58
2 58 59
2 59 60
2 60 61
2 61 62
2 62 63
2 63 64
2 64 65
2 65 66
2 66 67
2 67 68
2 68 69
2 69 70
2 70 71
2 71 72
2 139 140
2 140 141
2 141 142
2 142 143
2 143 144
2 144 145
2 145 146
2 146 147
2 147 148
2 148 149
2 149 150
2 150 151
2 151 152
2 152 153
2 153 154
2 154 155
2 155 156
2 156 157
2 157 158
2 158 159
2 159 160
2 160 161
2 161 162
2 162 163
2 163 164
2 164 165
2 165 166
2 166 167
2 167 168
2 168 169
2 169 170
2 170 171
2 171 172
2 172 173
2 173 174
2 174 175
2 175 176
2 176 177
2 177 178
2 178 179
2 179 180
2 180 181
2 181 182
2 182 183
2 183 184
2 184 185
2 185 186
2 186 187
2 187 188
2 188 189
2 189 190
2 190 191
2 191 192
2 192 193
2 193 194
2 194 195
2 195 196
2 196 197
2 197 198
2 198 199
2 199 200
2 200 201
2 201 202
2 202 203
2 203 204
2 204 205
2 205 206
2 206 207
2 207 208
2 208 209
2 209 210
2 210 211
2 12 73
2 73 79
2 79 85
2 85 91
2 91 97
2 97 103
2 103 109
2 109 115
2 115 121
2 121 127
2 127 133
2 133 151
2 24 74
2 74 80
2 80 86
2 86 92
2 92 98
2 98 104
2 104 110
2 110 116
2 116 122
2 122 128
2 128 134
2 134 163
2 36 75
2 75 81
2 81 87
2 87 93
2 93 99
2 99 105
2 105 111
2 111 117
2 117 123
2 123 129
2 129 135
2 135 175
2 48 76
2 76 82
2 82 88
2 88 94
2 94 100
2 100 106
2 106 112
2 112 118
2 118 124
2 124 130
2 130 136
2 136 187
2 60 77
2 77 83
2 83 89
2 89 95
2 95 101
2 101 107
2 107 113
2 113 119
2 119 125
2 125 131
2 131 137
2 137 199
2 72 78
2 78 84
2 84 90
2 90 96
2 96 102
2 102 108
2 108 114
2 114 120
2 120 126
2 126 132
2 132 138
2 138 211

CELL_TYPES 216
3
3
3
3
3
3
3
3
3
3
3
3
3
3
3
3
3
3
3
3
3
3
3
3
3
3
3
3
3
3
3
3
3
3
3
3
3
3
3
3
3
3
3
3
3
3
3
3
3
3
3
3
3
3
3
3
3
3
3
3
3
3
3
3
3
3
3
3
3
3
3
3
3
3
3
3
3
3
3
3
3
3
3
3
3
3
3
3
3
3
3
3
3
3
3
3
3
3
3
3
3
3
3
3
3
3
3
3
3
3
3
3
3
3
3
3
3
3
3
3
3
3
3
3
3
3
3
3
3
3
3
3
3
3
3
3
3
3
3
3
3
3
3
3
3
3
3
3
3
3
3
3
3
3
3
3
3
3
3
3
3
3
3
3
3
3
3
3
3
3
3
3
3
3
3
3
3
3
3
3
3
3
3
3
3
3
3
3
3
3
3
3
3
3
3
3
3
3
3
3
3
3
3
3
3
3
3
3
3
3
3
3
3
3
3
3
POINT_DATA 212
FIELD FieldData 8
DISPLACEMENT 3 212  float
0.0000000e+00 0.0000000e+00 0.0000000e+00 
-8.6611646e-05 0.0000000e+00 -1.8280482e-05 
-1.6960509e-04 0.0000000e+00 -3.6433863e-05 
-2.4536211e-04 0.0000000e+00 -5.4460150e-05 
-3.1026453e-04 0.0000000e+00 -7.2359340e-05 
-3.6069410e-04 0.0000000e+00 -9.0131434e-05 
-3.9303265e-04 0.0000000e+00 -1.0777642e-04 
-4.0366195e-04 0.0000000e+00 -1.2529433e-04 
-3.8896379e-04 0.0000000e+00 -1.4268512e-04 
-3.4531998e-04 0.0000000e+00 -1.5994883e-04 
-2.6911229e-04 0.0000000e+00 -1.7708544e-04 
-1.5672256e-04 0.0000000e+00 -1.9409494e-04 
-4.5325346e-06 0.0000000e+00 -2.1097736e-04 
1.3256127e-04 0.0000000e+00 -2.2620050e-04 
2.0517751e-04 0.0000000e+00 -2.4129654e-04 
2.2520716e-04 0.0000000e+00 -2.5626548e-04 
2.0454120e-04 0.0000000e+00 -2.7110733e-04 
1.5507056e-04 0.0000000e+00 -2.8582211e-04 
8.8686240e-05 0.0000000e+00 -3.0040977e-04 
1.7279199e-05 0.0000000e+00 -3.1487033e-04 
-4.7259604e-05 0.0000000e+00 -3.2920379e-04 
-9.3039198e-05 0.0000000e+00 -3.4341015e-04 
-1.0816861e-04 0.0000000e+00 -3.5748942e-04 
-8.0756894e-05 0.0000000e+00 -3.7144159e-04 
1.0869312e-06 0.0000000e+00 -3.8526667e-04 
8.6518325e-05 0.0000000e+00 -3.9743245e-04 
1.2337016e-04 0.0000000e+00 -4.0947116e-04 
1.2154954e-04 0.0000000e+00 -4.2138278e-04 
9.0963578e-05 0.0000000e+00 -4.3316730e-04 
4.1519375e-05 0.0000000e+00 -4.4482472e-04 
-1.6875962e-05 0.0000000e+00 -4.5635502e-04 
-7.4315329e-05 0.0000000e+00 -4.6775825e-04 
-1.2089163e-04 0.0000000e+00 -4.7903438e-04 
-1.4669774e-04 0.0000000e+00 -4.9018342e-04 
-1.4182657e-04 0.0000000e+00 -5.0120533e-04 
-9.6371026e-05 0.0000000e+00 -5.1210017e-04 
-4.2398287e-07 0.0000000e+00 -5.2286789e-04 
9.4123752e-05 0.0000000e+00 -5.3197634e-04 
1.3589728e-04 0.0000000e+00 -5.4095773e-04 
1.3557755e-04 0.0000000e+00 -5.4981199e-04 
1.0384552e-04 0.0000000e+00 -5.5853918e-04 
5.1382151e-05 0.0000000e+00 -5.6713924e-04 
-1.1131607e-05 0.0000000e+00 -5.7561224e-04 
-7.3014795e-05 0.0000000e+00 -5.8395811e-04 
-1.2358645e-04 0.0000000e+00 -5.9217692e-04 
-1.5216564e-04 0.0000000e+00 -6.0026860e-04 
-1.4807137e-04 0.0000000e+00 -6.0823321e-04 
-1.0062271e-04 0.0000000e+00 -6.1607070e-04 
8.6129609e-07 0.0000000e+00 -6.2378106e-04 
1.0518801e-04 0.0000000e+00 -6.2983221e-04 
1.6011676e-04 0.0000000e+00 -6.3575624e-04 
1.7475647e-04 0.0000000e+00 -6.4155320e-04 
1.5821606e-04 0.0000000e+00 -6.4722303e-04 
1.1960445e-04 0.0000000e+00 -6.5276574e-04 
6.8030575e-05 0.0000000e+00 -6.5818138e-04 
1.2603344e-05 0.0000000e+00 -6.6346995e-04 
-3.7568312e-05 0.0000000e+00 -6.6863140e-04 
-7.3375471e-05 0.0000000e+00 -6.7366572e-04 
-8.5709209e-05 0.0000000e+00 -6.7857298e-04 
-6.5460605e-05 0.0000000e+00 -6.8335317e-04 
-3.5207393e-06 0.0000000e+00 -6.8800617e-04 
4.6752051e-05 0.0000000e+00 -6.9099996e-04 
3.6283440e-05 0.0000000e+00 -6.9386669e-04 
-1.9391608e-05 0.0000000e+00 -6.9660629e-04 
-1.0473814e-04 0.0000000e+00 -6.9921877e-04 
-2.0422119e-04 0.0000000e+00 -7.0170418e-04 
-3.0230579e-04 0.0000000e+00 -7.0406246e-04 
-3.8345702e-04 0.0000000e+00 -7.0629368e-04 
-4.3213987e-04 0.0000000e+00 -7.0839777e-04 
-4.3281942e-04 0.0000000e+00 -7.1037479e-04 
-3.6996070e-04 0.0000000e+00 -7.1222475e-04 
-2.2802874e-04 0.0000000e+00 -7.1394752e-04 
8.5113970e-06 0.0000000e+00 -7.1554328e-04 
-3.7771119e-06 0.0000000e+00 -7.5427251e-04 
9.0577606e-07 0.0000000e+00 -8.1806188e-04 
-3.5331905e-07 0.0000000e+00 -9.7669440e-04 
7.1774673e-07 0.0000000e+00 -1.0914801e-03 
-2.9339494e-06 0.0000000e+00 -1.0709316e-03 
7.0928304e-06 0.0000000e+00 -1.4710033e-03 
-3.0216895e-06 0.0000000e+00 -1.5343683e-03 
7.2462086e-07 0.0000000e+00 -1.5077486e-03 
-2.8265524e-07 0.0000000e+00 -1.6835886e-03 
5.7419743e-07 0.0000000e+00 -1.8097246e-03 
-2.3471596e-06 0.0000000e+00 -1.7198157e-03 
5.6742642e-06 0.0000000e+00 -2.4246885e-03 
-2.2662673e-06 0.0000000e+00 -2.3499157e-03 
5.4346560e-07 0.0000000e+00 -2.2529778e-03 
-2.1199143e-07 0.0000000e+00 -2.4422014e-03 
4.3064804e-07 0.0000000e+00 -2.5771654e-03 
-1.7603696e-06 0.0000000e+00 -2.4333096e-03 
4.2556985e-06 0.0000000e+00 -3.3752501e-03 
-1.5108448e-06 0.0000000e+00 -3.0443100e-03 
3.6231043e-07 0.0000000e+00 -2.8971450e-03 
-1.4132762e-07 0.0000000e+00 -3.0959283e-03 
2.8709871e-07 0.0000000e+00 -3.2371979e-03 
-1.1735798e-06 0.0000000e+00 -3.0548086e-03 
2.8371321e-06 0.0000000e+00 -4.1660829e-03 
-7.5542238e-07 0.0000000e+00 -3.5056910e-03 
1.8115522e-07 0.0000000e+00 -3.3283895e-03 
-7.0663809e-08 0.0000000e+00 -3.5329086e-03 
1.4354936e-07 0.0000000e+00 -3.6779616e-03 
-5.8678989e-07 0.0000000e+00 -3.4724523e-03 
1.4185661e-06 0.0000000e+00 -4.6853269e-03 
1.1527427e-15 0.0000000e+00 -3.6669420e-03 
1.5350915e-15 0.0000000e+00 -3.4795951e-03 
1.7549081e-15 0.0000000e+00 -3.6860260e-03 
1.8767889e-15 0.0000000e+00 -3.8323402e-03 
2.0397989e-15 0.0000000e+00 -3.6191242e-03 
2.0274439e-15 0.0000000e+00 -4.8658657e-03 
7.5542238e-07 0.0000000e+00 -3.5056910e-03 
-1.8115520e-07 0.0000000e+00 -3.3283895e-03 
7.0663816e-08 0.0000000e+00 -3.5329086e-03 
-1.4354934e-07 0.0000000e+00 -3.6779616e-03 
5.8678989e-07 0.0000000e+00 -3.4724523e-03 
-1.4185661e-06 0.0000000e+00 -4.6853269e-03 
1.5108448e-06 0.0000000e+00 -3.0443100e-03 
-3.6231043e-07 0.0000000e+00 -2.8971450e-03 
1.4132763e-07 0.0000000e+00 -3.0959283e-03 
-2.8709869e-07 0.0000000e+00 -3.2371979e-03 
1.1735798e-06 0.0000000e+00 -3.0548086e-03 
-2.8371321e-06 0.0000000e+00 -4.1660829e-03 
2.2662673e-06 0.0000000e+00 -2.3499157e-03 
-5.4346560e-07 0.0000000e+00 -2.2529778e-03 
2.1199143e-07 0.0000000e+00 -2.4422014e-03 
-4.3064804e-07 0.0000000e+00 -2.5771654e-03 
1.7603696e-06 0.0000000e+00 -2.4333096e-03 
-4.2556985e-06 0.0000000e+00 -3.3752501e-03 
3.0216895e-06 0.0000000e+00 -1.5343683e-03 
-7.2462086e-07 0.0000000e+00 -1.5077486e-03 
2.8265526e-07 0.0000000e+00 -1.6835886e-03 
-5.7419743e-07 0.0000000e+00 -1.8097246e-03 
2.3471596e-06 0.0000000e+00 -1.7198157e-03 
-5.6742642e-06 0.0000000e+00 -2.4246885e-03 
3.7771119e-06 0.0000000e+00 -7.5427251e-04 
-9.0577606e-07 0.0000000e+00 -8.1806188e-04 
3.5331905e-07 0.0000000e+00 -9.7669440e-04 
-7.1774673e-07 0.0000000e+00 -1.0914801e-03 
2.9339494e-06 0.0000000e+00 -1.0709316e-03 
-7.0928304e-06 0.0000000e+00 -1.4710033e-03 
0.0000000e+00 0.0000000e+00 0.0000000e+00 
8.6611646e-05 0.0000000e+00 -1.8280482e-05 
1.6960509e-04 0.0000000e+00 -3.6433863e-05 
2.4536211e-04 0.0000000e+00 -5.4460150e-05 
3.1026453e-04 0.0000000e+00 -7.2359340e-05 
3.6069410e-04 0.0000000e+00 -9.0131434e-05 
3.9303265e-04 0.0000000e+00 -1.0777642e-04 
4.0366195e-04 0.0000000e+00 -1.2529433e-04 
3.8896379e-04 0.0000000e+00 -1.4268512e-04 
3.4531998e-04 0.0000000e+00 -1.5994883e-04 
2.6911229e-04 0.0000000e+00 -1.7708544e-04 
1.5672256e-04 0.0000000e+00 -1.9409494e-04 
4.5325346e-06 0.0000000e+00 -2.1097736e-04 
-1.3256127e-04 0.0000000e+00 -2.2620050e-04 
-2.0517751e-04 0.0000000e+00 -2.4129654e-04 
-2.2520716e-04 0.0000000e+00 -2.5626548e-04 
-2.0454120e-04 0.0000000e+00 -2.7110733e-04 
-1.5507056e-04 0.0000000e+00 -2.8582211e-04 
-8.8686240e-05 0.0000000e+00 -3.0040977e-04 
-1.7279199e-05 0.0000000e+00 -3.1487033e-04 
4.7259604e-05 0.0000000e+00 -3.2920379e-04 
9.3039198e-05 0.0000000e+00 -3.4341015e-04 
1.0816861e-04 0.0000000e+00 -3.5748942e-04 
8.0756894e-05 0.0000000e+00 -3.7144159e-04 
-1.0869312e-06 0.0000000e+00 -3.8526667e-04 
-8.6518325e-05 0.0000000e+00 -3.9743245e-04 
-1.2337016e-04 0.0000000e+00 -4.0947116e-04 
-1.2154954e-04 0.0000000e+00 -4.2138278e-04 
-9.0963578e-05 0.0000000e+00 -4.3316730e-04 
-4.1519375e-05 0.0000000e+00 -4.4482472e-04 
1.6875962e-05 0.0000000e+00 -4.5635502e-04 
7.4315329e-05 0.0000000e+00 -4.6775825e-04 
1.2089163e-04 0.0000000e+00 -4.7903438e-04 
1.4669774e-04 0.0000000e+00 -4.9018342e-04 
1.4182657e-04 0.0000000e+00 -5.0120533e-04 
9.6371026e-05 0.0000000e+00 -5.1210017e-04 
4.2398287e-07 0.0000000e+00 -5.2286789e-04 
-9.4123752e-05 0.0000000e+00 -5.3197634e-04 
-1.3589728e-04 0.0000000e+00 -5.4095773e-04 
-1.3557755e-04 0.0000000e+00 -5.4981199e-04 
-1.0384552e-04 0.0000000e+00 -5.5853918e-04 
-5.1382151e-05 0.0000000e+00 -5.6713924e-04 
1.1131607e-05 0.0000000e+00 -5.7561224e-04 
7.3014795e-05 0.0000000e+00 -5.8395811e-04 
1.2358645e-04 0.0000000e+00 -5.9217692e-04 
1.5216564e-04 0.0000000e+00 -6.0026860e-04 
1.4807137e-04 0.0000000e+00 -6.0823321e-04 
1.0062271e-04 0.0000000e+00 -6.1607070e-04 
-8.6129609e-07 0.0000000e+00 -6.2378106e-04 
-1.0518801e-04 0.0000000e+00 -6.2983221e-04 
-1.6011676e-04 0.0000000e+00 -6.3575624e-04 
-1.7475647e-04 0.0000000e+00 -6.4155320e-04 
-1.5821606e-04 0.0000000e+00 -6.4722303e-04 
-1.1960445e-04 0.0000000e+00 -6.5276574e-04 
-6.8030575e-05 0.0000000e+00 -6.5818138e-04 
-1.2603344e-05 0.0000000e+00 -6.6346995e-04 
3.7568312e-05 0.0000000e+00 -6.6863140e-04 
7.3375471e-05 0.0000000e+00 -6.7366572e-04 
8.5709209e-05 0.0000000e+00 -6.7857298e-04 
6.5460605e-05 0.0000000e+00 -6.8335317e-04 
3.5207393e-06 0.0000000e+00 -6.8800617e-04 
-4.6752051e-05 0.0000000e+00 -6.9099996e-04 
-3.6283440e-05 0.0000000e+00 -6.9386669e-04 
1.9391608e-05 0.0000000e+00 -6.9660629e-04 
1.0473814e-04 0.0000000e+00 -6.9921877e-04 
2.0422119e-04 0.0000000e+00 -7.0170418e-04 
3.0230579e-04 0.0000000e+00 -7.0406246e-04 
3.8345702e-04 0.0000000e+00 -7.0629368e-04 
4.3213987e-04 0.0000000e+00 -7.0839777e-04 
4.3281942e-04 0.0000000e+00 -7.1037479e-04 
3.6996070e-04 0.0000000e+00 -7.1222475e-04 
2.2802874e-04 0.0000000e+00 -7.1394752e-04 
-8.5113970e-06 0.0000000e+00 -7.1554328e-04 
ROTATION 3 212  float
0.0000000e+00 -3.4885874e-04 0.0000000e+00 
0.0000000e+00 -3.4162230e-04 0.0000000e+00 
0.0000000e+00 -3.1991309e-04 0.0000000e+00 
0.0000000e+00 -2.8373100e-04 0.0000000e+00 
0.0000000e+00 -2.3307611e-04 0.0000000e+00 
0.0000000e+00 -1.6794837e-04 0.0000000e+00 
0.0000000e+00 -8.8347813e-05 0.0000000e+00 
0.0000000e+00 5.7255697e-06 0.0000000e+00 
0.0000000e+00 1.1427178e-04 0.0000000e+00 
0.0000000e+00 2.3729083e-04 0.0000000e+00 
0.0000000e+00 3.7478271e-04 0.0000000e+00 
0.0000000e+00 5.2674738e-04 0.0000000e+00 
0.0000000e+00 6.9318491e-04 0.0000000e+00 
0.0000000e+00 4.1149277e-04 0.0000000e+00 
0.0000000e+00 1.7736448e-04 0.0000000e+00 
0.0000000e+00 -9.1999464e-06 0.0000000e+00 
0.0000000e+00 -1.4820050e-04 0.0000000e+00 
0.0000000e+00 -2.3963720e-04 0.0000000e+00 
0.0000000e+00 -2.8351005e-04 0.0000000e+00 
0.0000000e+00 -2.7981901e-04 0.0000000e+00 
0.0000000e+00 -2.2856411e-04 0.0000000e+00 
0.0000000e+00 -1.2974534e-04 0.0000000e+00 
0.0000000e+00 1.6637290e-05 0.0000000e+00 
0.0000000e+00 2.1058379e-04 0.0000000e+00 
0.0000000e+00 4.5209416e-04 0.0000000e+00 
0.0000000e+00 2.3796171e-04 0.0000000e+00 
0.0000000e+00 6.3457701e-05 0.0000000e+00 
0.0000000e+00 -7.1417890e-05 0.0000000e+00 
0.0000000e+00 -1.6666506e-04 0.0000000e+00 
0.0000000e+00 -2.2228382e-04 0.0000000e+00 
0.0000000e+00 -2.3827415e-04 0.0000000e+00 
0.0000000e+00 -2.1463606e-04 0.0000000e+00 
0.0000000e+00 -1.5136956e-04 0.0000000e+00 
0.0000000e+00 -4.8474642e-05 0.0000000e+00 
0.0000000e+00 9.4048701e-05 0.0000000e+00 
0.0000000e+00 2.7620047e-04 0.0000000e+00 
0.0000000e+00 4.9798063e-04 0.0000000e+00 
0.0000000e+00 2.6552187e-04 0.0000000e+00 
0.0000000e+00 7.5786949e-05 0.0000000e+00 
0.0000000e+00 -7.1224153e-05 0.0000000e+00 
0.0000000e+00 -1.7551144e-04 0.0000000e+00 
0.0000000e+00 -2.3707488e-04 0.0000000e+00 
0.0000000e+00 -2.5591452e-04 0.0000000e+00 
0.0000000e+00 -2.3203033e-04 0.0000000e+00 
0.0000000e+00 -1.6542232e-04 0.0000000e+00 
0.0000000e+00 -5.6090470e-05 0.0000000e+00 
0.0000000e+00 9.5965202e-05 0.0000000e+00 
0.0000000e+00 2.9074471e-04 0.0000000e+00 
0.0000000e+00 5.2824803e-04 0.0000000e+00 
0.0000000e+00 3.1243832e-04 0.0000000e+00 
0.0000000e+00 1.3306430e-04 0.0000000e+00 
0.0000000e+00 -9.8740202e-06 0.0000000e+00 
0.0000000e+00 -1.1637665e-04 0.0000000e+00 
0.0000000e+00 -1.8644358e-04 0.0000000e+00 
0.0000000e+00 -2.2007483e-04 0.0000000e+00 
0.0000000e+00 -2.1727038e-04 0.0000000e+00 
0.0000000e+00 -1.7803024e-04 0.0000000e+00 
0.0000000e+00 -1.0235441e-04 0.0000000e+00 
0.0000000e+00 9.7571110e-06 0.0000000e+00 
0.0000000e+00 1.5830432e-04 0.0000000e+00 
0.0000000e+00 3.4328722e-04 0.0000000e+00 
0.0000000e+00 6.9251721e-05 0.0000000e+00 
0.0000000e+00 -1.4264396e-04 0.0000000e+00 
0.0000000e+00 -2.9239978e-04 0.0000000e+00 
0.0000000e+00 -3.8001579e-04 0.0000000e+00 
0.0000000e+00 -4.0549197e-04 0.0000000e+00 
0.0000000e+00 -3.6882830e-04 0.0000000e+00 
0.0000000e+00 -2.7002479e-04 0.0000000e+00 
0.0000000e+00 -1.0908146e-04 0.0000000e+00 
0.0000000e+00 1.1400171e-04 0.0000000e+00 
0.0000000e+00 3.9922472e-04 0.0000000e+00 
0.0000000e+00 7.4658758e-04 0.0000000e+00 
0.0000000e+00 1.1560902e-03 0.0000000e+00 
0.0000000e+00 1.3979645e-03 0.0000000e+00 
0.0000000e+00 1.1970556e-03 0.0000000e+00 
0.0000000e+00 1.2352944e-03 0.0000000e+00 
0.0000000e+00 1.2605172e-03 0.0000000e+00 
0.0000000e+00 1.1063832e-03 0.0000000e+00 
0.0000000e+00 1.7837191e-03 0.0000000e+00 
0.0000000e+00 1.6553021e-03 0.0000000e+00 
0.0000000e+00 1.4945749e-03 0.0000000e+00 
0.0000000e+00 1.5251660e-03 0.0000000e+00 
0.0000000e+00 1.5453442e-03 0.0000000e+00 
0.0000000e+00 1.4220370e-03 0.0000000e+00 
0.0000000e+00 1.9639058e-03 0.0000000e+00 
0.0000000e+00 1.5546861e-03 0.0000000e+00 
0.0000000e+00 1.4341407e-03 0.0000000e+00 
0.0000000e+00 1.4570840e-03 0.0000000e+00 
0.0000000e+00 1.4722176e-03 0.0000000e+00 
0.0000000e+00 1.3797373e-03 0.0000000e+00 
0.0000000e+00 1.7861387e-03 0.0000000e+00 
0.0000000e+00 1.1856047e-03 0.0000000e+00 
0.0000000e+00 1.1052411e-03 0.0000000e+00 
0.0000000e+00 1.1205367e-03 0.0000000e+00 
0.0000000e+00 1.1306257e-03 0.0000000e+00 
0.0000000e+00 1.0689722e-03 0.0000000e+00 
0.0000000e+00 1.3399065e-03 0.0000000e+00 
0.0000000e+00 6.3754659e-04 0.0000000e+00 
0.0000000e+00 5.9736479e-04 0.0000000e+00 
0.0000000e+00 6.0501252e-04 0.0000000e+00 
0.0000000e+00 6.1005709e-04 0.0000000e+00 
0.0000000e+00 5.7923031e-04 0.0000000e+00 
0.0000000e+00 7.1469747e-04 0.0000000e+00 
0.0000000e+00 -6.3879645e-17 0.0000000e+00 
0.0000000e+00 -2.5551857e-17 0.0000000e+00 
0.0000000e+00 -1.9163892e-17 0.0000000e+00 
0.0000000e+00 -3.6198463e-17 0.0000000e+00 
0.0000000e+00 6.3879643e-18 0.0000000e+00 
0.0000000e+00 3.9554168e-18 0.0000000e+00 
0.0000000e+00 -6.3754659e-04 0.0000000e+00 
0.0000000e+00 -5.9736479e-04 0.0000000e+00 
0.0000000e+00 -6.0501252e-04 0.0000000e+00 
0.0000000e+00 -6.1005709e-04 0.0000000e+00 
0.0000000e+00 -5.7923031e-04 0.0000000e+00 
0.0000000e+00 -7.1469747e-04 0.0000000e+00 
0.0000000e+00 -1.1856047e-03 0.0000000e+00 
0.0000000e+00 -1.1052411e-03 0.0000000e+00 
0.0000000e+00 -1.1205367e-03 0.0000000e+00 
0.0000000e+00 -1.1306257e-03 0.0000000e+00 
0.0000000e+00 -1.0689722e-03 0.0000000e+00 
0.0000000e+00 -1.3399065e-03 0.0000000e+00 
0.0000000e+00 -1.5546861e-03 0.0000000e+00 
0.0000000e+00 -1.4341407e-03 0.0000000e+00 
0.0000000e+00 -1.4570840e-03 0.0000000e+00 
0.0000000e+00 -1.4722176e-03 0.0000000e+00 
0.0000000e+00 -1.3797373e-03 0.0000000e+00 
0.0000000e+00 -1.7861387e-03 0.0000000e+00 
0.0000000e+00 -1.6553021e-03 0.0000000e+00 
0.0000000e+00 -1.4945749e-03 0.0000000e+00 
0.0000000e+00 -1.5251660e-03 0.0000000e+00 
0.0000000e+00 -1.5453442e-03 0.0000000e+00 
0.0000000e+00 -1.4220370e-03 0.0000000e+00 
0.0000000e+00 -1.9639058e-03 0.0000000e+00 
0.0000000e+00 -1.3979645e-03 0.0000000e+00 
0.0000000e+00 -1.1970556e-03 0.0000000e+00 
0.0000000e+00 -1.2352944e-03 0.0000000e+00 
0.0000000e+00 -1.2605172e-03 0.0000000e+00 
0.0000000e+00 -1.1063832e-03 0.0000000e+00 
0.0000000e+00 -1.7837191e-03 0.0000000e+00 
0.0000000e+00 3.4885874e-04 0.0000000e+00 
0.0000000e+00 3.4162230e-04 0.0000000e+00 
0.0000000e+00 3.1991309e-04 0.0000000e+00 
0.0000000e+00 2.8373100e-04 0.0000000e+00 
0.0000000e+00 2.3307611e-04 0.0000000e+00 
0.0000000e+00 1.6794837e-04 0.0000000e+00 
0.0000000e+00 8.8347813e-05 0.0000000e+00 
0.0000000e+00 -5.7255697e-06 0.0000000e+00 
0.0000000e+00 -1.1427178e-04 0.0000000e+00 
0.0000000e+00 -2.3729083e-04 0.0000000e+00 
0.0000000e+00 -3.7478271e-04 0.0000000e+00 
0.0000000e+00 -5.2674738e-04 0.0000000e+00 
0.0000000e+00 -6.9318491e-04 0.0000000e+00 
0.0000000e+00 -4.1149277e-04 0.0000000e+00 
0.0000000e+00 -1.7736448e-04 0.0000000e+00 
0.0000000e+00 9.1999464e-06 0.0000000e+00 
0.0000000e+00 1.4820050e-04 0.0000000e+00 
0.0000000e+00 2.3963720e-04 0.0000000e+00 
0.0000000e+00 2.8351005e-04 0.0000000e+00 
0.0000000e+00 2.7981901e-04 0.0000000e+00 
0.0000000e+00 2.2856411e-04 0.0000000e+00 
0.0000000e+00 1.2974534e-04 0.0000000e+00 
0.0000000e+00 -1.6637290e-05 0.0000000e+00 
0.0000000e+00 -2.1058379e-04 0.0000000e+00 
0.0000000e+00 -4.5209416e-04 0.0000000e+00 
0.0000000e+00 -2.3796171e-04 0.0000000e+00 
0.0000000e+00 -6.3457701e-05 0.0000000e+00 
0.0000000e+00 7.1417890e-05 0.0000000e+00 
0.0000000e+00 1.6666506e-04 0.0000000e+00 
0.0000000e+00 2.2228382e-04 0.0000000e+00 
0.0000000e+00 2.3827415e-04 0.0000000e+00 
0.0000000e+00 2.1463606e-04 0.0000000e+00 
0.0000000e+00 1.5136956e-04 0.0000000e+00 
0.0000000e+00 4.8474642e-05 0.0000000e+00 
0.0000000e+00 -9.4048701e-05 0.0000000e+00 
0.0000000e+00 -2.7620047e-04 0.0000000e+00 
0.0000000e+00 -4.9798063e-04 0.0000000e+00 
0.0000000e+00 -2.6552187e-04 0.0000000e+00 
0.0000000e+00 -7.5786949e-05 0.0000000e+00 
0.0000000e+00 7.1224153e-05 0.0000000e+00 
0.0000000e+00 1.7551144e-04 0.0000000e+00 
0.0000000e+00 2.3707488e-04 0.0000000e+00 
0.0000000e+00 2.5591452e-04 0.0000000e+00 
0.0000000e+00 2.3203033e-04 0.0000000e+00 
0.0000000e+00 1.6542232e-04 0.0000000e+00 
0.0000000e+00 5.6090470e-05 0.0000000e+00 
0.0000000e+00 -9.5965202e-05 0.0000000e+00 
0.0000000e+00 -2.9074471e-04 0.0000000e+00 
0.0000000e+00 -5.2824803e-04 0.0000000e+00 
0.0000000e+00 -3.1243832e-04 0.0000000e+00 
0.0000000e+00 -1.3306430e-04 0.0000000e+00 
0.0000000e+00 9.8740202e-06 0.0000000e+00 
0.0000000e+00 1.1637665e-04 0.0000000e+00 
0.0000000e+00 1.8644358e-04 0.0000000e+00 
0.0000000e+00 2.2007483e-04 0.0000000e+00 
0.0000000e+00 2.1727038e-04 0.0000000e+00 
0.0000000e+00 1.7803024e-04 0.0000000e+00 
0.0000000e+00 1.0235441e-04 0.0000000e+00 
0.0000000e+00 -9.7571110e-06 0.0000000e+00 
0.0000000e+00 -1.5830432e-04 0.0000000e+00 
0.0000000e+00 -3.4328722e-04 0.0000000e+00 
0.0000000e+00 -6.9251721e-05 0.0000000e+00 
0.0000000e+00 1.4264396e-04 0.0000000e+00 
0.0000000e+00 2.9239978e-04 0.0000000e+00 
0.0000000e+00 3.8001579e-04 0.0000000e+00 