# vtk DataFile Version 4.0
vtk output
ASCII
DATASET UNSTRUCTURED_GRID
POINTS 212 float
0.0000000e+00 0.0000000e+00 0.0000000e+00 
0.0000000e+00 0.0000000e+00 2.5000000e-01 
0.0000000e+00 0.0000000e+00 5.0000000e-01 
0.0000000e+00 0.0000000e+00 7.5000000e-01 
0.0000000e+00 0.0000000e+00 1.0000000e+00 
0.0000000e+00 0.0000000e+00 1.2500000e+00 
0.0000000e+00 0.0000000e+00 1.5000000e+00 
0.0000000e+00 0.0000000e+00 1.7500000e+00 
0.0000000e+00 0.0000000e+00 2.0000000e+00 
0.0000000e+00 0.0000000e+00 2.2500000e+00 
0.0000000e+00 0.0000000e+00 2.5000000e+00 
0.0000000e+00 0.0000000e+00 2.7500000e+00 
0.0000000e+00 0.0000000e+00 3.0000000e+00 
0.0000000e+00 0.0000000e+00 3.2500000e+00 
0.0000000e+00 0.0000000e+00 3.5000000e+00 
0.0000000e+00 0.0000000e+00 3.7500000e+00 
0.0000000e+00 0.0000000e+00 4.0000000e+00 
0.0000000e+00 0.0000000e+00 4.2500000e+00 
0.0000000e+00 0.0000000e+00 4.5000000e+00 
0.0000000e+00 0.0000000e+00 4.7500000e+00 
0.0000000e+00 0.0000000e+00 5.0000000e+00 
0.0000000e+00 0.0000000e+00 5.2500000e+00 
0.0000000e+00 0.0000000e+00 5.5000000e+00 
0.0000000e+00 0.0000000e+00 5.7500000e+00 
0.0000000e+00 0.0000000e+00 6.0000000e+00 
0.0000000e+00 0.0000000e+00 6.2500000e+00 
0.0000000e+00 0.0000000e+00 6.5000000e+00 
0.0000000e+00 0.0000000e+00 6.7500000e+00 
0.0000000e+00 0.0000000e+00 7.0000000e+00 
0.0000000e+00 0.0000000e+00 7.2500000e+00 
0.0000000e+00 0.0000000e+00 7.5000000e+00 
0.0000000e+00 0.0000000e+00 7.7500000e+00 
0.0000000e+00 0.0000000e+00 8.0000000e+00 
0.0000000e+00 0.0000000e+00 8.2500000e+00 
0.0000000e+00 0.0000000e+00 8.5000000e+00 
0.0000000e+00 0.0000000e+00 8.7500000e+00 
0.0000000e+00 0.0000000e+00 9.0000000e+00 
0.0000000e+00 0.0000000e+00 9.2500000e+00 
0.0000000e+00 0.0000000e+00 9.5000000e+00 
0.0000000e+00 0.0000000e+00 9.7500000e+00 
0.0000000e+00 0.0000000e+00 1.0000000e+01 
0.0000000e+00 0.0000000e+00 1.0250000e+01 
0.0000000e+00 0.0000000e+00 1.0500000e+01 
0.0000000e+00 0.0000000e+00 1.0750000e+01 
0.0000000e+00 0.0000000e+00 1.1000000e+01 
0.0000000e+00 0.0000000e+00 1.1250000e+01 
0.0000000e+00 0.0000000e+00 1.1500000e+01 
0.0000000e+00 0.0000000e+00 1.1750000e+01 
0.0000000e+00 0.0000000e+00 1.2000000e+01 
0.0000000e+00 0.0000000e+00 1.2250000e+01 
0.0000000e+00 0.0000000e+00 1.2500000e+01 
0.0000000e+00 0.0000000e+00 1.2750000e+01 
0.0000000e+00 0.0000000e+00 1.3000000e+01 
0.0000000e+00 0.0000000e+00 1.3250000e+01 
0.0000000e+00 0.0000000e+00 1.3500000e+01 
0.0000000e+00 0.0000000e+00 1.3750000e+01 
0.0000000e+00 0.0000000e+00 1.4000000e+01 
0.0000000e+00 0.0000000e+00 1.4250000e+01 
0.0000000e+00 0.0000000e+00 1.4500000e+01 
0.0000000e+00 0.0000000e+00 1.4750000e+01 
0.0000000e+00 0.0000000e+00 1.5000000e+01 
0.0000000e+00 0.0000000e+00 1.5250000e+01 
0.0000000e+00 0.0000000e+00 1.5500000e+01 
0.0000000e+00 0.0000000e+00 1.5750000e+01 
0.0000000e+00 0.0000000e+00 1.6000000e+01 
0.0000000e+00 0.0000000e+00 1.6250000e+01 
0.0000000e+00 0.0000000e+00 1.6500000e+01 
0.0000000e+00 0.0000000e+00 1.6750000e+01 
0.0000000e+00 0.0000000e+00 1.7000000e+01 
0.0000000e+00 0.0000000e+00 1.7250000e+01 
0.0000000e+00 0.0000000e+00 1.7500000e+01 
0.0000000e+00 0.0000000e+00 1.7750000e+01 
0.0000000e+00 0.0000000e+00 1.8000000e+01 
5.0000000e-01 0.0000000e+00 3.0000000e+00 
5.0000000e-01 0.0000000e+00 6.0000000e+00 
5.0000000e-01 0.0000000e+00 9.0000000e+00 
5.0000000e-01 0.0000000e+00 1.2000000e+01 
5.0000000e-01 0.0000000e+00 1.5000000e+01 
5.0000000e-01 0.0000000e+00 1.8000000e+01 
1.0000000e+00 0.0000000e+00 3.0000000e+00 
1.0000000e+00 0.0000000e+00 6.0000000e+00 
1.0000000e+00 0.0000000e+00 9.0000000e+00 
1.0000000e+00 0.0000000e+00 1.2000000e+01 
1.0000000e+00 0.0000000e+00 1.5000000e+01 
1.0000000e+00 0.0000000e+00 1.8000000e+01 
1.5000000e+00 0.0000000e+00 3.0000000e+00 
1.5000000e+00 0.0000000e+00 6.0000000e+00 
1.5000000e+00 0.0000000e+00 9.0000000e+00 
1.5000000e+00 0.0000000e+00 1.2000000e+01 
1.5000000e+00 0.0000000e+00 1.5000000e+01 
1.5000000e+00 0.0000000e+00 1.8000000e+01 
2.0000000e+00 0.0000000e+00 3.0000000e+00 
2.0000000e+00 0.0000000e+00 6.0000000e+00 
2.0000000e+00 0.0000000e+00 9.0000000e+00 
2.0000000e+00 0.0000000e+00 1.2000000e+01 
2.0000000e+00 0.0000000e+00 1.5000000e+01 
2.0000000e+00 0.0000000e+00 1.8000000e+01 
2.5000000e+00 0.0000000e+00 3.0000000e+00 
2.5000000e+00 0.0000000e+00 6.0000000e+00 
2.5000000e+00 0.0000000e+00 9.0000000e+00 
2.5000000e+00 0.0000000e+00 1.2000000e+01 
2.5000000e+00 0.0000000e+00 1.5000000e+01 
2.5000000e+00 0.0000000e+00 1.8000000e+01 
3.0000000e+00 0.0000000e+00 3.0000000e+00 
3.0000000e+00 0.0000000e+00 6.0000000e+00 
3.0000000e+00 0.0000000e+00 9.0000000e+00 
3.0000000e+00 0.0000000e+00 1.2000000e+01 
3.0000000e+00 0.0000000e+00 1.5000000e+01 
3.0000000e+00 0.0000000e+00 1.8000000e+01 
3.5000000e+00 0.0000000e+00 3.0000000e+00 
3.5000000e+00 0.0000000e+00 6.0000000e+00 
3.5000000e+00 0.0000000e+00 9.0000000e+00 
3.5000000e+00 0.0000000e+00 1.2000000e+01 
3.5000000e+00 0.0000000e+00 1.5000000e+01 
3.5000000e+00 0.0000000e+00 1.8000000e+01 
4.0000000e+00 0.0000000e+00 3.0000000e+00 
4.0000000e+00 0.0000000e+00 6.0000000e+00 
4.0000000e+00 0.0000000e+00 9.0000000e+00 
4.0000000e+00 0.0000000e+00 1.2000000e+01 
4.0000000e+00 0.0000000e+00 1.5000000e+01 
4.0000000e+00 0.0000000e+00 1.8000000e+01 
4.5000000e+00 0.0000000e+00 3.0000000e+00 
4.5000000e+00 0.0000000e+00 6.0000000e+00 
4.5000000e+00 0.0000000e+00 9.0000000e+00 
4.5000000e+00 0.0000000e+00 1.2000000e+01 
4.5000000e+00 0.0000000e+00 1.5000000e+01 
4.5000000e+00 0.0000000e+00 1.8000000e+01 
5.0000000e+00 0.0000000e+00 3.0000000e+00 
5.0000000e+00 0.0000000e+00 6.0000000e+00 
5.0000000e+00 0.0000000e+00 9.0000000e+00 
5.0000000e+00 0.0000000e+00 1.2000000e+01 
5.0000000e+00 0.0000000e+00 1.5000000e+01 
5.0000000e+00 0.0000000e+00 1.8000000e+01 
5.5000000e+00 0.0000000e+00 3.0000000e+00 
5.5000000e+00 0.0000000e+00 6.0000000e+00 
5.5000000e+00 0.0000000e+00 9.0000000e+00 
5.5000000e+00 0.0000000e+00 1.2000000e+01 
5.5000000e+00 0.0000000e+00 1.5000000e+01 
5.5000000e+00 0.0000000e+00 1.8000000e+01 
6.0000000e+00 0.0000000e+00 0.0000000e+00 
6.0000000e+00 0.0000000e+00 2.5000000e-01 
6.0000000e+00 0.0000000e+00 5.0000000e-01 
6.0000000e+00 0.0000000e+00 7.5000000e-01 
6.0000000e+00 0.0000000e+00 1.0000000e+00 
6.0000000e+00 0.0000000e+00 1.2500000e+00 
6.0000000e+00 0.0000000e+00 1.5000000e+00 
6.0000000e+00 0.0000000e+00 1.7500000e+00 
6.0000000e+00 0.0000000e+00 2.0000000e+00 
6.0000000e+00 0.0000000e+00 2.2500000e+00 
6.0000000e+00 0.0000000e+00 2.5000000e+00 
6.0000000e+00 0.0000000e+00 2.7500000e+00 
6.0000000e+00 0.0000000e+00 3.0000000e+00 
6.0000000e+00 0.0000000e+00 3.2500000e+00 
6.0000000e+00 0.0000000e+00 3.5000000e+00 
6.0000000e+00 0.0000000e+00 3.7500000e+00 
6.0000000e+00 0.0000000e+00 4.0000000e+00 
6.0000000e+00 0.0000000e+00 4.2500000e+00 
6.0000000e+00 0.0000000e+00 4.5000000e+00 
6.0000000e+00 0.0000000e+00 4.7500000e+00 
6.0000000e+00 0.0000000e+00 5.0000000e+00 
6.0000000e+00 0.0000000e+00 5.2500000e+00 
6.0000000e+00 0.0000000e+00 5.5000000e+00 
6.0000000e+00 0.0000000e+00 5.7500000e+00 
6.0000000e+00 0.0000000e+00 6.0000000e+00 
6.0000000e+00 0.0000000e+00 6.2500000e+00 
6.0000000e+00 0.0000000e+00 6.5000000e+00 
6.0000000e+00 0.0000000e+00 6.7500000e+00 
6.0000000e+00 0.0000000e+00 7.0000000e+00 
6.0000000e+00 0.0000000e+00 7.2500000e+00 
6.0000000e+00 0.0000000e+00 7.5000000e+00 
6.0000000e+00 0.0000000e+00 7.7500000e+00 
6.0000000e+00 0.0000000e+00 8.0000000e+00 
6.0000000e+00 0.0000000e+00 8.2500000e+00 
6.0000000e+00 0.0000000e+00 8.5000000e+00 
6.0000000e+00 0.0000000e+00 8.7500000e+00 
6.0000000e+00 0.0000000e+00 9.0000000e+00 
6.0000000e+00 0.0000000e+00 9.2500000e+00 
6.0000000e+00 0.0000000e+00 9.5000000e+00 
6.0000000e+00 0.0000000e+00 9.7500000e+00 
6.0000000e+00 0.0000000e+00 1.0000000e+01 
6.0000000e+00 0.0000000e+00 1.0250000e+01 
6.0000000e+00 0.0000000e+00 1.0500000e+01 
6.0000000e+00 0.0000000e+00 1.0750000e+01 
6.0000000e+00 0.0000000e+00 1.1000000e+01 
6.0000000e+00 0.0000000e+00 1.1250000e+01 
6.0000000e+00 0.0000000e+00 1.1500000e+01 
6.0000000e+00 0.0000000e+00 1.1750000e+01 
6.0000000e+00 0.0000000e+00 1.2000000e+01 
6.0000000e+00 0.0000000e+00 1.2250000e+01 
6.0000000e+00 0.0000000e+00 1.2500000e+01 
6.0000000e+00 0.0000000e+00 1.2750000e+01 
6.0000000e+00 0.0000000e+00 1.3000000e+01 
6.0000000e+00 0.0000000e+00 1.3250000e+01 
6.0000000e+00 0.0000000e+00 1.3500000e+01 
6.0000000e+00 0.0000000e+00 1.3750000e+01 
6.0000000e+00 0.0000000e+00 1.4000000e+01 
6.0000000e+00 0.0000000e+00 1.4250000e+01 
6.0000000e+00 0.0000000e+00 1.4500000e+01 
6.0000000e+00 0.0000000e+00 1.4750000e+01 
6.0000000e+00 0.0000000e+00 1.5000000e+01 
6.0000000e+00 0.0000000e+00 1.5250000e+01 
6.0000000e+00 0.0000000e+00 1.5500000e+01 
6.0000000e+00 0.0000000e+00 1.5750000e+01 
6.0000000e+00 0.0000000e+00 1.6000000e+01 
6.0000000e+00 0.0000000e+00 1.6250000e+01 
6.0000000e+00 0.0000000e+00 1.6500000e+01 
6.0000000e+00 0.0000000e+00 1.6750000e+01 
6.0000000e+00 0.0000000e+00 1.7000000e+01 
6.0000000e+00 0.0000000e+00 1.7250000e+01 
6.0000000e+00 0.0000000e+00 1.7500000e+01 
6.0000000e+00 0.0000000e+00 1.7750000e+01 
6.0000000e+00 0.0000000e+00 1.8000000e+01 

CELLS 216 648
2 0 1
2 1 2
2 2 3
2 3 4
2 4 5
2 5 6
2 6 7
2 7 8
2 8 9
2 9 10
2 10 11
2 11 12
2 12 13
2 13 14
2 14 15
2 15 16
2 16 17
2 17 18
2 18 19
2 19 20
2 20 21
2 21 22
2 22 23
2 23 24
2 24 25
2 25 26
2 26 27
2 27 28
2 28 29
2 29 30
2 30 31
2 31 32
2 32 33
2 33 34
2 34 35
2 35 36
2 36 37
2 37 38
2 38 39
2 39 40
2 40 41
2 41 42
2 42 43
2 43 44
2 44 45
2 45 46
2 46 47
2 47 48
2 48 49
2 49 50
2 50 51
2 51 52
2 52 53
2 53 54
2 54 55
2 55 56
2 56 57
2 57 58
2 58 59
2 59 60
2 60 61
2 61 62
2 62 63
2 63 64
2 64 65
2 65 66
2 66 67
2 67 68
2 68 69
2 69 70
2 70 71
2 71 72
2 139 140
2 140 141
2 141 142
2 142 143
2 143 144
2 144 145
2 145 146
2 146 147
2 147 148
2 148 149
2 149 150
2 150 151
2 151 152
2 152 153
2 153 154
2 154 155
2 155 156
2 156 157
2 157 158
2 158 159
2 159 160
2 160 161
2 161 162
2 162 163
2 163 164
2 164 165
2 165 166
2 166 167
2 167 168
2 168 169
2 169 170
2 170 171
2 171 172
2 172 173
2 173 174
2 174 175
2 175 176
2 176 177
2 177 178
2 178 179
2 179 180
2 180 181
2 181 182
2 182 183
2 183 184
2 184 185
2 185 186
2 186 187
2 187 188
2 188 189
2 189 190
2 190 191
2 191 192
2 192 193
2 193 194
2 194 195
2 195 196
2 196 197
2 197 198
2 198 199
2 199 200
2 200 201
2 201 202
2 202 203
2 203 204
2 204 205
2 205 206
2 206 207
2 207 208
2 208 209
2 209 210
2 210 211
2 12 73
2 73 79
2 79 85
2 85 91
2 91 97
2 97 103
2 103 109
2 109 115
2 115 121
2 121 127
2 127 133
2 133 151
2 24 74
2 74 80
2 80 86
2 86 92
2 92 98
2 98 104
2 104 110
2 110 116
2 116 122
2 122 128
2 128 134
2 134 163
2 36 75
2 75 81
2 81 87
2 87 93
2 93 99
2 99 105
2 105 111
2 111 117
2 117 123
2 123 129
2 129 135
2 135 175
2 48 76
2 76 82
2 82 88
2 88 94
2 94 100
2 100 106
2 106 112
2 112 118
2 118 124
2 124 130
2 130 136
2 136 187
2 60 77
2 77 83
2 83 89
2 89 95
2 95 101
2 101 107
2 107 113
2 113 119
2 119 125
2 125 131
2 131 137
2 137 199
2 72 78
2 78 84
2 84 90
2 90 96
2 96 102
2 102 108
2 108 114
2 114 120
2 120 126
2 126 132
2 132 138
2 138 211

CELL_TYPES 216
3
3
3
3
3
3
3
3
3
3
3
3
3
3
3
3
3
3
3
3
3
3
3
3
3
3
3
3
3
3
3
3
3
3
3
3
3
3
3
3
3
3
3
3
3
3
3
3
3
3
3
3
3
3
3
3
3
3
3
3
3
3
3
3
3
3
3
3
3
3
3
3
3
3
3
3
3
3
3
3
3
3
3
3
3
3
3
3
3
3
3
3
3
3
3
3
3
3
3
3
3
3
3
3
3
3
3
3
3
3
3
3
3
3
3
3
3
3
3
3
3
3
3
3
3
3
3
3
3
3
3
3
3
3
3
3
3
3
3
3
3
3
3
3
3
3
3
3
3
3
3
3
3
3
3
3
3
3
3
3
3
3
3
3
3
3
3
3
3
3
3
3
3
3
3
3
3
3
3
3
3
3
3
3
3
3
3
3
3
3
3
3
3
3
3
3
3
3
3
3
3
3
3
3
3
3
3
3
3
3
3
3
3
3
3
3
POINT_DATA 212
FIELD FieldData 8
DISPLACEMENT 3 212  float
0.0000000e+00 0.0000000e+00 0.0000000e+00 
-4.1598352e-04 0.0000000e+00 -1.4946469e-05 
-8.1452623e-04 0.0000000e+00 -2.9789131e-05 
-1.1781872e-03 0.0000000e+00 -4.4527987e-05 
-1.4895258e-03 0.0000000e+00 -5.9163034e-05 
-1.7311010e-03 0.0000000e+00 -7.3694275e-05 
-1.8854719e-03 0.0000000e+00 -8.8121713e-05 
-1.9351979e-03 0.0000000e+00 -1.0244534e-04 
-1.8628379e-03 0.0000000e+00 -1.1666516e-04 
-1.6509513e-03 0.0000000e+00 -1.3078118e-04 
-1.2820972e-03 0.0000000e+00 -1.4479338e-04 
-7.3883461e-04 0.0000000e+00 -1.5870178e-04 
-3.7229026e-06 0.0000000e+00 -1.7250636e-04 
6.5788947e-04 0.0000000e+00 -1.8495311e-04 
1.0074020e-03 0.0000000e+00 -1.9729605e-04 
1.1023778e-03 0.0000000e+00 -2.0953517e-04 
1.0003798e-03 0.0000000e+00 -2.2167049e-04 
7.5897115e-04 0.0000000e+00 -2.3370200e-04 
4.3571478e-04 0.0000000e+00 -2.4562969e-04 
8.8173809e-05 0.0000000e+00 -2.5745362e-04 
-2.2608878e-04 0.0000000e+00 -2.6917370e-04 
-4.4950997e-04 0.0000000e+00 -2.8078997e-04 
-5.2452669e-04 0.0000000e+00 -2.9230246e-04 
-3.9357590e-04 0.0000000e+00 -3.0371113e-04 
9.0542352e-07 0.0000000e+00 -3.1501599e-04 
4.1323522e-04 0.0000000e+00 -3.2496301e-04 
5.9122621e-04 0.0000000e+00 -3.3480622e-04 
5.8268360e-04 0.0000000e+00 -3.4454561e-04 
4.3541248e-04 0.0000000e+00 -3.5418119e-04 
1.9721809e-04 0.0000000e+00 -3.6371298e-04 
-8.4094419e-05 0.0000000e+00 -3.7314097e-04 
-3.6071989e-04 0.0000000e+00 -3.8246514e-04 
-5.8485317e-04 0.0000000e+00 -3.9168549e-04 
-7.0868904e-04 0.0000000e+00 -4.0080206e-04 
-6.8442232e-04 0.0000000e+00 -4.0981479e-04 
-4.6424795e-04 0.0000000e+00 -4.1872374e-04 
-3.6064816e-07 0.0000000e+00 -4.2752887e-04 
4.5641724e-04 0.0000000e+00 -4.3497616e-04 
6.5785466e-04 0.0000000e+00 -4.4231964e-04 
6.5564347e-04 0.0000000e+00 -4.4955930e-04 
5.0147559e-04 0.0000000e+00 -4.5669515e-04 
2.4704298e-04 0.0000000e+00 -4.6372722e-04 
-5.5962446e-05 0.0000000e+00 -4.7065548e-04 
-3.5584878e-04 0.0000000e+00 -4.7747992e-04 
-6.0092408e-04 0.0000000e+00 -4.8420054e-04 
-7.3949649e-04 0.0000000e+00 -4.9081736e-04 
-7.1987399e-04 0.0000000e+00 -4.9733039e-04 
-4.9036479e-04 0.0000000e+00 -5.0373963e-04 
7.2318119e-07 0.0000000e+00 -5.1004504e-04 
5.0606707e-04 0.0000000e+00 -5.1499257e-04 
7.7314832e-04 0.0000000e+00 -5.1983632e-04 
8.4586500e-04 0.0000000e+00 -5.2457623e-04 
7.6811516e-04 0.0000000e+00 -5.2921241e-04 
5.8379699e-04 0.0000000e+00 -5.3374469e-04 
3.3680859e-04 0.0000000e+00 -5.3817325e-04 
7.1048045e-05 0.0000000e+00 -5.4249796e-04 
-1.6958656e-04 0.0000000e+00 -5.4671883e-04 
-3.4119710e-04 0.0000000e+00 -5.5083598e-04 
-3.9988550e-04 0.0000000e+00 -5.5484922e-04 
-3.0175358e-04 0.0000000e+00 -5.5875874e-04 
-2.9033286e-06 0.0000000e+00 -5.6256441e-04 
2.3867657e-04 0.0000000e+00 -5.6501222e-04 
1.8585705e-04 0.0000000e+00 -5.6735624e-04 
-8.6174245e-05 0.0000000e+00 -5.6959648e-04 
-5.0222967e-04 0.0000000e+00 -5.7173287e-04 
-9.8712149e-04 0.0000000e+00 -5.7376549e-04 
-1.4656623e-03 0.0000000e+00 -5.7569426e-04 
-1.8626641e-03 0.0000000e+00 -5.7751924e-04 
-2.1029394e-03 0.0000000e+00 -5.7924038e-04 
-2.1113008e-03 0.0000000e+00 -5.8085780e-04 
-1.8125603e-03 0.0000000e+00 -5.8237131e-04 
-1.1315304e-03 0.0000000e+00 -5.8378110e-04 
6.9765942e-06 0.0000000e+00 -5.8508705e-04 
-3.1024188e-06 0.0000000e+00 -2.7969419e-03 
7.5451959e-07 0.0000000e+00 -2.4051894e-03 
-3.0054011e-07 0.0000000e+00 -2.6208174e-03 
6.0265103e-07 0.0000000e+00 -2.7719536e-03 
-2.4194405e-06 0.0000000e+00 -2.4114856e-03 
5.8138285e-06 0.0000000e+00 -4.2278627e-03 
-2.4819351e-06 0.0000000e+00 -6.5660086e-03 
6.0361566e-07 0.0000000e+00 -5.7371324e-03 
-2.4043209e-07 0.0000000e+00 -6.0371272e-03 
4.8212081e-07 0.0000000e+00 -6.2444070e-03 
-1.9355525e-06 0.0000000e+00 -5.5460408e-03 
4.6510631e-06 0.0000000e+00 -8.8301161e-03 
-1.8614513e-06 0.0000000e+00 -1.0506625e-02 
4.5271176e-07 0.0000000e+00 -9.3377642e-03 
-1.8032407e-07 0.0000000e+00 -9.7033782e-03 
3.6159062e-07 0.0000000e+00 -9.9543249e-03 
-1.4516643e-06 0.0000000e+00 -8.9931488e-03 
3.4882971e-06 0.0000000e+00 -1.3418768e-02 
-1.2409675e-06 0.0000000e+00 -1.3861952e-02 
3.0180783e-07 0.0000000e+00 -1.2450245e-02 
-1.2021604e-07 0.0000000e+00 -1.2862729e-02 
2.4106041e-07 0.0000000e+00 -1.3144867e-02 
-9.6777626e-07 0.0000000e+00 -1.1995968e-02 
2.3255316e-06 0.0000000e+00 -1.7236976e-02 
-6.2048377e-07 0.0000000e+00 -1.6091388e-02 
1.5090393e-07 0.0000000e+00 -1.4533973e-02 
-6.0108015e-08 0.0000000e+00 -1.4974579e-02 
1.2053022e-07 0.0000000e+00 -1.5275432e-02 
-4.8388807e-07 0.0000000e+00 -1.4013900e-02 
1.1627658e-06 0.0000000e+00 -1.9744141e-02 
5.4074787e-15 0.0000000e+00 -1.6870573e-02 
9.7368487e-15 0.0000000e+00 -1.5264589e-02 
1.3386266e-14 0.0000000e+00 -1.5714569e-02 
1.6046968e-14 0.0000000e+00 -1.6021660e-02 
1.7686631e-14 0.0000000e+00 -1.4722585e-02 
1.8844803e-14 0.0000000e+00 -2.0615904e-02 
6.2048377e-07 0.0000000e+00 -1.6091388e-02 
-1.5090390e-07 0.0000000e+00 -1.4533973e-02 
6.0108043e-08 0.0000000e+00 -1.4974579e-02 
-1.2053019e-07 0.0000000e+00 -1.5275432e-02 
4.8388813e-07 0.0000000e+00 -1.4013900e-02 
-1.1627657e-06 0.0000000e+00 -1.9744141e-02 
1.2409675e-06 0.0000000e+00 -1.3861952e-02 
-3.0180783e-07 0.0000000e+00 -1.2450245e-02 
1.2021607e-07 0.0000000e+00 -1.2862729e-02 
-2.4106038e-07 0.0000000e+00 -1.3144867e-02 
9.6777626e-07 0.0000000e+00 -1.1995968e-02 
-2.3255313e-06 0.0000000e+00 -1.7236976e-02 
1.8614513e-06 0.0000000e+00 -1.0506625e-02 
-4.5271173e-07 0.0000000e+00 -9.3377642e-03 
1.8032409e-07 0.0000000e+00 -9.7033782e-03 
-3.6159059e-07 0.0000000e+00 -9.9543249e-03 
1.4516644e-06 0.0000000e+00 -8.9931488e-03 
-3.4882971e-06 0.0000000e+00 -1.3418768e-02 
2.4819351e-06 0.0000000e+00 -6.5660086e-03 
-6.0361566e-07 0.0000000e+00 -5.7371324e-03 
2.4043212e-07 0.0000000e+00 -6.0371272e-03 
-4.8212075e-07 0.0000000e+00 -6.2444070e-03 
1.9355525e-06 0.0000000e+00 -5.5460408e-03 
-4.6510627e-06 0.0000000e+00 -8.8301161e-03 
3.1024188e-06 0.0000000e+00 -2.7969419e-03 
-7.5451959e-07 0.0000000e+00 -2.4051894e-03 
3.0054014e-07 0.0000000e+00 -2.6208174e-03 
-6.0265097e-07 0.0000000e+00 -2.7719536e-03 
2.4194405e-06 0.0000000e+00 -2.4114856e-03 
-5.8138285e-06 0.0000000e+00 -4.2278627e-03 
0.0000000e+00 0.0000000e+00 0.0000000e+00 
4.1598352e-04 0.0000000e+00 -1.4946469e-05 
8.1452623e-04 0.0000000e+00 -2.9789131e-05 
1.1781872e-03 0.0000000e+00 -4.4527987e-05 
1.4895258e-03 0.0000000e+00 -5.9163034e-05 
1.7311010e-03 0.0000000e+00 -7.3694275e-05 
1.8854719e-03 0.0000000e+00 -8.8121713e-05 
1.9351979e-03 0.0000000e+00 -1.0244534e-04 
1.8628379e-03 0.0000000e+00 -1.1666516e-04 
1.6509513e-03 0.0000000e+00 -1.3078118e-04 
1.2820972e-03 0.0000000e+00 -1.4479338e-04 
7.3883461e-04 0.0000000e+00 -1.5870178e-04 
3.7229026e-06 0.0000000e+00 -1.7250636e-04 
-6.5788947e-04 0.0000000e+00 -1.8495311e-04 
-1.0074020e-03 0.0000000e+00 -1.9729605e-04 
-1.1023778e-03 0.0000000e+00 -2.0953517e-04 
-1.0003798e-03 0.0000000e+00 -2.2167049e-04 
-7.5897115e-04 0.0000000e+00 -2.3370200e-04 
-4.3571478e-04 0.0000000e+00 -2.4562969e-04 
-8.8173809e-05 0.0000000e+00 -2.5745362e-04 
2.2608878e-04 0.0000000e+00 -2.6917370e-04 
4.4950997e-04 0.0000000e+00 -2.8078997e-04 
5.2452669e-04 0.0000000e+00 -2.9230246e-04 
3.9357590e-04 0.0000000e+00 -3.0371113e-04 
-9.0542352e-07 0.0000000e+00 -3.1501599e-04 
-4.1323522e-04 0.0000000e+00 -3.2496301e-04 
-5.9122621e-04 0.0000000e+00 -3.3480622e-04 
-5.8268360e-04 0.0000000e+00 -3.4454561e-04 
-4.3541248e-04 0.0000000e+00 -3.5418119e-04 
-1.9721809e-04 0.0000000e+00 -3.6371298e-04 
8.4094419e-05 0.0000000e+00 -3.7314097e-04 
3.6071989e-04 0.0000000e+00 -3.8246514e-04 
5.8485317e-04 0.0000000e+00 -3.9168549e-04 
7.0868904e-04 0.0000000e+00 -4.0080206e-04 
6.8442232e-04 0.0000000e+00 -4.0981479e-04 
4.6424795e-04 0.0000000e+00 -4.1872374e-04 
3.6064816e-07 0.0000000e+00 -4.2752887e-04 
-4.5641724e-04 0.0000000e+00 -4.3497616e-04 
-6.5785466e-04 0.0000000e+00 -4.4231964e-04 
-6.5564347e-04 0.0000000e+00 -4.4955930e-04 
-5.0147559e-04 0.0000000e+00 -4.5669515e-04 
-2.4704298e-04 0.0000000e+00 -4.6372722e-04 
5.5962446e-05 0.0000000e+00 -4.7065548e-04 
3.5584878e-04 0.0000000e+00 -4.7747992e-04 
6.0092408e-04 0.0000000e+00 -4.8420054e-04 
7.3949649e-04 0.0000000e+00 -4.9081736e-04 
7.1987399e-04 0.0000000e+00 -4.9733039e-04 
4.9036479e-04 0.0000000e+00 -5.0373963e-04 
-7.2318119e-07 0.0000000e+00 -5.1004504e-04 
-5.0606707e-04 0.0000000e+00 -5.1499257e-04 
-7.7314832e-04 0.0000000e+00 -5.1983632e-04 
-8.4586500e-04 0.0000000e+00 -5.2457623e-04 
-7.6811516e-04 0.0000000e+00 -5.2921241e-04 
-5.8379699e-04 0.0000000e+00 -5.3374469e-04 
-3.3680859e-04 0.0000000e+00 -5.3817325e-04 
-7.1048045e-05 0.0000000e+00 -5.4249796e-04 
1.6958656e-04 0.0000000e+00 -5.4671883e-04 
3.4119710e-04 0.0000000e+00 -5.5083598e-04 
3.9988550e-04 0.0000000e+00 -5.5484922e-04 
3.0175358e-04 0.0000000e+00 -5.5875874e-04 
2.9033288e-06 0.0000000e+00 -5.6256441e-04 
-2.3867657e-04 0.0000000e+00 -5.6501222e-04 
-1.8585705e-04 0.0000000e+00 -5.6735624e-04 
8.6174245e-05 0.0000000e+00 -5.6959648e-04 
5.0222967e-04 0.0000000e+00 -5.7173287e-04 
9.8712149e-04 0.0000000e+00 -5.7376549e-04 
1.4656623e-03 0.0000000e+00 -5.7569426e-04 
1.8626641e-03 0.0000000e+00 -5.7751924e-04 
2.1029394e-03 0.0000000e+00 -5.7924038e-04 
2.1113008e-03 0.0000000e+00 -5.8085780e-04 
1.8125603e-03 0.0000000e+00 -5.8237131e-04 
1.1315304e-03 0.0000000e+00 -5.8378110e-04 
-6.9765942e-06 0.0000000e+00 -5.8508705e-04 
ROTATION 3 212  float
0.0000000e+00 -1.6755613e-03 0.0000000e+00 
0.0000000e+00 -1.6406797e-03 0.0000000e+00 
0.0000000e+00 -1.5360346e-03 0.0000000e+00 
0.0000000e+00 -1.3616263e-03 0.0000000e+00 
0.0000000e+00 -1.1174546e-03 0.0000000e+00 
0.0000000e+00 -8.0351951e-04 0.0000000e+00 
0.0000000e+00 -4.1982107e-04 0.0000000e+00 
0.0000000e+00 3.3640707e-05 0.0000000e+00 
0.0000000e+00 5.5686582e-04 0.0000000e+00 
0.0000000e+00 1.1498543e-03 0.0000000e+00 
0.0000000e+00 1.8126061e-03 0.0000000e+00 
0.0000000e+00 2.5451214e-03 0.0000000e+00 
0.0000000e+00 3.3473999e-03 0.0000000e+00 
0.0000000e+00 1.9838745e-03 0.0000000e+00 
0.0000000e+00 8.5060130e-04 0.0000000e+00 
0.0000000e+00 -5.2419735e-05 0.0000000e+00 
0.0000000e+00 -7.2518864e-04 0.0000000e+00 
0.0000000e+00 -1.1677054e-03 0.0000000e+00 
0.0000000e+00 -1.3799700e-03 0.0000000e+00 
0.0000000e+00 -1.3619825e-03 0.0000000e+00 
0.0000000e+00 -1.1137429e-03 0.0000000e+00 
0.0000000e+00 -6.3525111e-04 0.0000000e+00 
0.0000000e+00 7.3492789e-05 0.0000000e+00 
0.0000000e+00 1.0124889e-03 0.0000000e+00 
0.0000000e+00 2.1817370e-03 0.0000000e+00 
0.0000000e+00 1.1487715e-03 0.0000000e+00 
0.0000000e+00 3.0702661e-04 0.0000000e+00 
0.0000000e+00 -3.4349758e-04 0.0000000e+00 
0.0000000e+00 -8.0280111e-04 0.0000000e+00 
0.0000000e+00 -1.0708839e-03 0.0000000e+00 
0.0000000e+00 -1.1477461e-03 0.0000000e+00 
0.0000000e+00 -1.0333876e-03 0.0000000e+00 
0.0000000e+00 -7.2780839e-04 0.0000000e+00 
0.0000000e+00 -2.3100850e-04 0.0000000e+00 
0.0000000e+00 4.5701204e-04 0.0000000e+00 
0.0000000e+00 1.3362532e-03 0.0000000e+00 
0.0000000e+00 2.4067152e-03 0.0000000e+00 
0.0000000e+00 1.2819692e-03 0.0000000e+00 
0.0000000e+00 3.6399113e-04 0.0000000e+00 
0.0000000e+00 -3.4721938e-04 0.0000000e+00 
0.0000000e+00 -8.5166219e-04 0.0000000e+00 
0.0000000e+00 -1.1493374e-03 0.0000000e+00 
0.0000000e+00 -1.2402448e-03 0.0000000e+00 
0.0000000e+00 -1.1243846e-03 0.0000000e+00 
0.0000000e+00 -8.0175669e-04 0.0000000e+00 
0.0000000e+00 -2.7236110e-04 0.0000000e+00 
0.0000000e+00 4.6380216e-04 0.0000000e+00 
0.0000000e+00 1.4067331e-03 0.0000000e+00 
0.0000000e+00 2.5564318e-03 0.0000000e+00 
0.0000000e+00 1.5155849e-03 0.0000000e+00 
0.0000000e+00 6.5033039e-04 0.0000000e+00 
0.0000000e+00 -3.9331680e-05 0.0000000e+00 
0.0000000e+00 -5.5340130e-04 0.0000000e+00 
0.0000000e+00 -8.9187856e-04 0.0000000e+00 
0.0000000e+00 -1.0547633e-03 0.0000000e+00 
0.0000000e+00 -1.0420558e-03 0.0000000e+00 
0.0000000e+00 -8.5375569e-04 0.0000000e+00 
0.0000000e+00 -4.8986322e-04 0.0000000e+00 
0.0000000e+00 4.9621620e-05 0.0000000e+00 
0.0000000e+00 7.6469890e-04 0.0000000e+00 
0.0000000e+00 1.6553686e-03 0.0000000e+00 
0.0000000e+00 3.2739565e-04 0.0000000e+00 
0.0000000e+00 -6.9982669e-04 0.0000000e+00 
0.0000000e+00 -1.4262985e-03 0.0000000e+00 
0.0000000e+00 -1.8520197e-03 0.0000000e+00 
0.0000000e+00 -1.9769901e-03 0.0000000e+00 
0.0000000e+00 -1.8012102e-03 0.0000000e+00 
0.0000000e+00 -1.3246797e-03 0.0000000e+00 
0.0000000e+00 -5.4739846e-04 0.0000000e+00 
0.0000000e+00 5.3063332e-04 0.0000000e+00 
0.0000000e+00 1.9094157e-03 0.0000000e+00 
0.0000000e+00 3.5889486e-03 0.0000000e+00 
0.0000000e+00 5.5692322e-03 0.0000000e+00 
0.0000000e+00 6.7539024e-03 0.0000000e+00 
0.0000000e+00 5.7825167e-03 0.0000000e+00 
0.0000000e+00 5.9699984e-03 0.0000000e+00 
0.0000000e+00 6.0947626e-03 0.0000000e+00 
0.0000000e+00 5.3438763e-03 0.0000000e+00 
0.0000000e+00 8.6054299e-03 0.0000000e+00 
0.0000000e+00 7.9980036e-03 0.0000000e+00 
0.0000000e+00 7.2208950e-03 0.0000000e+00 
0.0000000e+00 7.3708808e-03 0.0000000e+00 
0.0000000e+00 7.4706916e-03 0.0000000e+00 
0.0000000e+00 6.8699829e-03 0.0000000e+00 
0.0000000e+00 9.4792256e-03 0.0000000e+00 
0.0000000e+00 7.5121839e-03 0.0000000e+00 
0.0000000e+00 6.9293524e-03 0.0000000e+00 
0.0000000e+00 7.0418413e-03 0.0000000e+00 
0.0000000e+00 7.1166996e-03 0.0000000e+00 
0.0000000e+00 6.6661681e-03 0.0000000e+00 
0.0000000e+00 8.6230999e-03 0.0000000e+00 
0.0000000e+00 5.7289228e-03 0.0000000e+00 
0.0000000e+00 5.3403685e-03 0.0000000e+00 
0.0000000e+00 5.4153614e-03 0.0000000e+00 
0.0000000e+00 5.4652668e-03 0.0000000e+00 
0.0000000e+00 5.1649124e-03 0.0000000e+00 
0.0000000e+00 6.4695338e-03 0.0000000e+00 
0.0000000e+00 3.0807017e-03 0.0000000e+00 
0.0000000e+00 2.8864245e-03 0.0000000e+00 
0.0000000e+00 2.9239208e-03 0.0000000e+00 
0.0000000e+00 2.9488737e-03 0.0000000e+00 
0.0000000e+00 2.7986965e-03 0.0000000e+00 
0.0000000e+00 3.4510070e-03 0.0000000e+00 
0.0000000e+00 -5.8561095e-16 0.0000000e+00 
0.0000000e+00 -4.3005803e-16 0.0000000e+00 
0.0000000e+00 -3.7515701e-16 0.0000000e+00 
0.0000000e+00 -1.3725256e-16 0.0000000e+00 
0.0000000e+00 -1.1895222e-16 0.0000000e+00 
0.0000000e+00 -2.3764902e-16 0.0000000e+00 
0.0000000e+00 -3.0807017e-03 0.0000000e+00 
0.0000000e+00 -2.8864245e-03 0.0000000e+00 
0.0000000e+00 -2.9239208e-03 0.0000000e+00 
0.0000000e+00 -2.9488737e-03 0.0000000e+00 
0.0000000e+00 -2.7986965e-03 0.0000000e+00 
0.0000000e+00 -3.4510070e-03 0.0000000e+00 
0.0000000e+00 -5.7289228e-03 0.0000000e+00 
0.0000000e+00 -5.3403685e-03 0.0000000e+00 
0.0000000e+00 -5.4153614e-03 0.0000000e+00 
0.0000000e+00 -5.4652668e-03 0.0000000e+00 
0.0000000e+00 -5.1649124e-03 0.0000000e+00 
0.0000000e+00 -6.4695338e-03 0.0000000e+00 
0.0000000e+00 -7.5121839e-03 0.0000000e+00 
0.0000000e+00 -6.9293524e-03 0.0000000e+00 
0.0000000e+00 -7.0418413e-03 0.0000000e+00 
0.0000000e+00 -7.1166996e-03 0.0000000e+00 
0.0000000e+00 -6.6661681e-03 0.0000000e+00 
0.0000000e+00 -8.6230999e-03 0.0000000e+00 
0.0000000e+00 -7.9980036e-03 0.0000000e+00 
0.0000000e+00 -7.2208950e-03 0.0000000e+00 
0.0000000e+00 -7.3708808e-03 0.0000000e+00 
0.0000000e+00 -7.4706916e-03 0.0000000e+00 
0.0000000e+00 -6.8699829e-03 0.0000000e+00 
0.0000000e+00 -9.4792256e-03 0.0000000e+00 
0.0000000e+00 -6.7539024e-03 0.0000000e+00 
0.0000000e+00 -5.7825167e-03 0.0000000e+00 
0.0000000e+00 -5.9699984e-03 0.0000000e+00 
0.0000000e+00 -6.0947626e-03 0.0000000e+00 
0.0000000e+00 -5.3438763e-03 0.0000000e+00 
0.0000000e+00 -8.6054299e-03 0.0000000e+00 
0.0000000e+00 1.6755613e-03 0.0000000e+00 
0.0000000e+00 1.6406797e-03 0.0000000e+00 
0.0000000e+00 1.5360346e-03 0.0000000e+00 
0.0000000e+00 1.3616263e-03 0.0000000e+00 
0.0000000e+00 1.1174546e-03 0.0000000e+00 
0.0000000e+00 8.0351951e-04 0.0000000e+00 
0.0000000e+00 4.1982107e-04 0.0000000e+00 
0.0000000e+00 -3.3640707e-05 0.0000000e+00 
0.0000000e+00 -5.5686582e-04 0.0000000e+00 
0.0000000e+00 -1.1498543e-03 0.0000000e+00 
0.0000000e+00 -1.8126061e-03 0.0000000e+00 
0.0000000e+00 -2.5451214e-03 0.0000000e+00 
0.0000000e+00 -3.3473999e-03 0.0000000e+00 
0.0000000e+00 -1.9838745e-03 0.0000000e+00 
0.0000000e+00 -8.5060130e-04 0.0000000e+00 
0.0000000e+00 5.2419735e-05 0.0000000e+00 
0.0000000e+00 7.2518864e-04 0.0000000e+00 
0.0000000e+00 1.1677054e-03 0.0000000e+00 
0.0000000e+00 1.3799700e-03 0.0000000e+00 
0.0000000e+00 1.3619825e-03 0.0000000e+00 
0.0000000e+00 1.1137429e-03 0.0000000e+00 
0.0000000e+00 6.3525111e-04 0.0000000e+00 
0.0000000e+00 -7.3492789e-05 0.0000000e+00 
0.0000000e+00 -1.0124889e-03 0.0000000e+00 
0.0000000e+00 -2.1817370e-03 0.0000000e+00 
0.0000000e+00 -1.1487715e-03 0.0000000e+00 
0.0000000e+00 -3.0702661e-04 0.0000000e+00 
0.0000000e+00 3.4349758e-04 0.0000000e+00 
0.0000000e+00 8.0280111e-04 0.0000000e+00 
0.0000000e+00 1.0708839e-03 0.0000000e+00 
0.0000000e+00 1.1477461e-03 0.0000000e+00 
0.0000000e+00 1.0333876e-03 0.0000000e+00 
0.0000000e+00 7.2780839e-04 0.0000000e+00 
0.0000000e+00 2.3100850e-04 0.0000000e+00 
0.0000000e+00 -4.5701204e-04 0.0000000e+00 
0.0000000e+00 -1.3362532e-03 0.0000000e+00 
0.0000000e+00 -2.4067152e-03 0.0000000e+00 
0.0000000e+00 -1.2819692e-03 0.0000000e+00 
0.0000000e+00 -3.6399113e-04 0.0000000e+00 
0.0000000e+00 3.4721938e-04 0.0000000e+00 
0.0000000e+00 8.5166219e-04 0.0000000e+00 
0.0000000e+00 1.1493374e-03 0.0000000e+00 
0.0000000e+00 1.2402448e-03 0.0000000e+00 
0.0000000e+00 1.1243846e-03 0.0000000e+00 
0.0000000e+00 8.0175669e-04 0.0000000e+00 
0.0000000e+00 2.7236110e-04 0.0000000e+00 
0.0000000e+00 -4.6380216e-04 0.0000000e+00 
0.0000000e+00 -1.4067331e-03 0.0000000e+00 
0.0000000e+00 -2.5564318e-03 0.0000000e+00 
0.0000000e+00 -1.5155849e-03 0.0000000e+00 
0.0000000e+00 -6.5033039e-04 0.0000000e+00 
0.0000000e+00 3.9331680e-05 0.0000000e+00 
0.0000000e+00 5.5340130e-04 0.0000000e+00 
0.0000000e+00 8.9187856e-04 0.0000000e+00 
0.0000000e+00 1.0547633e-03 0.0000000e+00 
0.0000000e+00 1.0420558e-03 0.0000000e+00 
0.0000000e+00 8.5375569e-04 0.0000000e+00 
0.0000000e+00 4.8986322e-04 0.0000000e+00 
0.0000000e+00 -4.9621620e-05 0.0000000e+00 
0.0000000e+00 -7.6469890e-04 0.0000000e+00 
0.0000000e+00 -1.6553686e-03 0.0000000e+00 
0.0000000e+00 -3.2739565e-04 0.0000000e+00 
0.0000000e+00 6.9982669e-04 0.0000000e+00 
0.0000000e+00 1.4262985e-03 0.0000000e+00 
0.0000000e+00 1.8520197e-03 0.0000000e+00 