# vtk DataFile Version 4.0
vtk output
ASCII
DATASET UNSTRUCTURED_GRID
POINTS 212 float
0.0000000e+00 0.0000000e+00 0.0000000e+00 
0.0000000e+00 0.0000000e+00 2.5000000e-01 
0.0000000e+00 0.0000000e+00 5.0000000e-01 
0.0000000e+00 0.0000000e+00 7.5000000e-01 
0.0000000e+00 0.0000000e+00 1.0000000e+00 
0.0000000e+00 0.0000000e+00 1.2500000e+00 
0.0000000e+00 0.0000000e+00 1.5000000e+00 
0.0000000e+00 0.0000000e+00 1.7500000e+00 
0.0000000e+00 0.0000000e+00 2.0000000e+00 
0.0000000e+00 0.0000000e+00 2.2500000e+00 
0.0000000e+00 0.0000000e+00 2.5000000e+00 
0.0000000e+00 0.0000000e+00 2.7500000e+00 
0.0000000e+00 0.0000000e+00 3.0000000e+00 
0.0000000e+00 0.0000000e+00 3.2500000e+00 
0.0000000e+00 0.0000000e+00 3.5000000e+00 
0.0000000e+00 0.0000000e+00 3.7500000e+00 
0.0000000e+00 0.0000000e+00 4.0000000e+00 
0.0000000e+00 0.0000000e+00 4.2500000e+00 
0.0000000e+00 0.0000000e+00 4.5000000e+00 
0.0000000e+00 0.0000000e+00 4.7500000e+00 
0.0000000e+00 0.0000000e+00 5.0000000e+00 
0.0000000e+00 0.0000000e+00 5.2500000e+00 
0.0000000e+00 0.0000000e+00 5.5000000e+00 
0.0000000e+00 0.0000000e+00 5.7500000e+00 
0.0000000e+00 0.0000000e+00 6.0000000e+00 
0.0000000e+00 0.0000000e+00 6.2500000e+00 
0.0000000e+00 0.0000000e+00 6.5000000e+00 
0.0000000e+00 0.0000000e+00 6.7500000e+00 
0.0000000e+00 0.0000000e+00 7.0000000e+00 
0.0000000e+00 0.0000000e+00 7.2500000e+00 
0.0000000e+00 0.0000000e+00 7.5000000e+00 
0.0000000e+00 0.0000000e+00 7.7500000e+00 
0.0000000e+00 0.0000000e+00 8.0000000e+00 
0.0000000e+00 0.0000000e+00 8.2500000e+00 
0.0000000e+00 0.0000000e+00 8.5000000e+00 
0.0000000e+00 0.0000000e+00 8.7500000e+00 
0.0000000e+00 0.0000000e+00 9.0000000e+00 
0.0000000e+00 0.0000000e+00 9.2500000e+00 
0.0000000e+00 0.0000000e+00 9.5000000e+00 
0.0000000e+00 0.0000000e+00 9.7500000e+00 
0.0000000e+00 0.0000000e+00 1.0000000e+01 
0.0000000e+00 0.0000000e+00 1.0250000e+01 
0.0000000e+00 0.0000000e+00 1.0500000e+01 
0.0000000e+00 0.0000000e+00 1.0750000e+01 
0.0000000e+00 0.0000000e+00 1.1000000e+01 
0.0000000e+00 0.0000000e+00 1.1250000e+01 
0.0000000e+00 0.0000000e+00 1.1500000e+01 
0.0000000e+00 0.0000000e+00 1.1750000e+01 
0.0000000e+00 0.0000000e+00 1.2000000e+01 
0.0000000e+00 0.0000000e+00 1.2250000e+01 
0.0000000e+00 0.0000000e+00 1.2500000e+01 
0.0000000e+00 0.0000000e+00 1.2750000e+01 
0.0000000e+00 0.0000000e+00 1.3000000e+01 
0.0000000e+00 0.0000000e+00 1.3250000e+01 
0.0000000e+00 0.0000000e+00 1.3500000e+01 
0.0000000e+00 0.0000000e+00 1.3750000e+01 
0.0000000e+00 0.0000000e+00 1.4000000e+01 
0.0000000e+00 0.0000000e+00 1.4250000e+01 
0.0000000e+00 0.0000000e+00 1.4500000e+01 
0.0000000e+00 0.0000000e+00 1.4750000e+01 
0.0000000e+00 0.0000000e+00 1.5000000e+01 
0.0000000e+00 0.0000000e+00 1.5250000e+01 
0.0000000e+00 0.0000000e+00 1.5500000e+01 
0.0000000e+00 0.0000000e+00 1.5750000e+01 
0.0000000e+00 0.0000000e+00 1.6000000e+01 
0.0000000e+00 0.0000000e+00 1.6250000e+01 
0.0000000e+00 0.0000000e+00 1.6500000e+01 
0.0000000e+00 0.0000000e+00 1.6750000e+01 
0.0000000e+00 0.0000000e+00 1.7000000e+01 
0.0000000e+00 0.0000000e+00 1.7250000e+01 
0.0000000e+00 0.0000000e+00 1.7500000e+01 
0.0000000e+00 0.0000000e+00 1.7750000e+01 
0.0000000e+00 0.0000000e+00 1.8000000e+01 
5.0000000e-01 0.0000000e+00 3.0000000e+00 
5.0000000e-01 0.0000000e+00 6.0000000e+00 
5.0000000e-01 0.0000000e+00 9.0000000e+00 
5.0000000e-01 0.0000000e+00 1.2000000e+01 
5.0000000e-01 0.0000000e+00 1.5000000e+01 
5.0000000e-01 0.0000000e+00 1.8000000e+01 
1.0000000e+00 0.0000000e+00 3.0000000e+00 
1.0000000e+00 0.0000000e+00 6.0000000e+00 
1.0000000e+00 0.0000000e+00 9.0000000e+00 
1.0000000e+00 0.0000000e+00 1.2000000e+01 
1.0000000e+00 0.0000000e+00 1.5000000e+01 
1.0000000e+00 0.0000000e+00 1.8000000e+01 
1.5000000e+00 0.0000000e+00 3.0000000e+00 
1.5000000e+00 0.0000000e+00 6.0000000e+00 
1.5000000e+00 0.0000000e+00 9.0000000e+00 
1.5000000e+00 0.0000000e+00 1.2000000e+01 
1.5000000e+00 0.0000000e+00 1.5000000e+01 
1.5000000e+00 0.0000000e+00 1.8000000e+01 
2.0000000e+00 0.0000000e+00 3.0000000e+00 
2.0000000e+00 0.0000000e+00 6.0000000e+00 
2.0000000e+00 0.0000000e+00 9.0000000e+00 
2.0000000e+00 0.0000000e+00 1.2000000e+01 
2.0000000e+00 0.0000000e+00 1.5000000e+01 
2.0000000e+00 0.0000000e+00 1.8000000e+01 
2.5000000e+00 0.0000000e+00 3.0000000e+00 
2.5000000e+00 0.0000000e+00 6.0000000e+00 
2.5000000e+00 0.0000000e+00 9.0000000e+00 
2.5000000e+00 0.0000000e+00 1.2000000e+01 
2.5000000e+00 0.0000000e+00 1.5000000e+01 
2.5000000e+00 0.0000000e+00 1.8000000e+01 
3.0000000e+00 0.0000000e+00 3.0000000e+00 
3.0000000e+00 0.0000000e+00 6.0000000e+00 
3.0000000e+00 0.0000000e+00 9.0000000e+00 
3.0000000e+00 0.0000000e+00 1.2000000e+01 
3.0000000e+00 0.0000000e+00 1.5000000e+01 
3.0000000e+00 0.0000000e+00 1.8000000e+01 
3.5000000e+00 0.0000000e+00 3.0000000e+00 
3.5000000e+00 0.0000000e+00 6.0000000e+00 
3.5000000e+00 0.0000000e+00 9.0000000e+00 
3.5000000e+00 0.0000000e+00 1.2000000e+01 
3.5000000e+00 0.0000000e+00 1.5000000e+01 
3.5000000e+00 0.0000000e+00 1.8000000e+01 
4.0000000e+00 0.0000000e+00 3.0000000e+00 
4.0000000e+00 0.0000000e+00 6.0000000e+00 
4.0000000e+00 0.0000000e+00 9.0000000e+00 
4.0000000e+00 0.0000000e+00 1.2000000e+01 
4.0000000e+00 0.0000000e+00 1.5000000e+01 
4.0000000e+00 0.0000000e+00 1.8000000e+01 
4.5000000e+00 0.0000000e+00 3.0000000e+00 
4.5000000e+00 0.0000000e+00 6.0000000e+00 
4.5000000e+00 0.0000000e+00 9.0000000e+00 
4.5000000e+00 0.0000000e+00 1.2000000e+01 
4.5000000e+00 0.0000000e+00 1.5000000e+01 
4.5000000e+00 0.0000000e+00 1.8000000e+01 
5.0000000e+00 0.0000000e+00 3.0000000e+00 
5.0000000e+00 0.0000000e+00 6.0000000e+00 
5.0000000e+00 0.0000000e+00 9.0000000e+00 
5.0000000e+00 0.0000000e+00 1.2000000e+01 
5.0000000e+00 0.0000000e+00 1.5000000e+01 
5.0000000e+00 0.0000000e+00 1.8000000e+01 
5.5000000e+00 0.0000000e+00 3.0000000e+00 
5.5000000e+00 0.0000000e+00 6.0000000e+00 
5.5000000e+00 0.0000000e+00 9.0000000e+00 
5.5000000e+00 0.0000000e+00 1.2000000e+01 
5.5000000e+00 0.0000000e+00 1.5000000e+01 
5.5000000e+00 0.0000000e+00 1.8000000e+01 
6.0000000e+00 0.0000000e+00 0.0000000e+00 
6.0000000e+00 0.0000000e+00 2.5000000e-01 
6.0000000e+00 0.0000000e+00 5.0000000e-01 
6.0000000e+00 0.0000000e+00 7.5000000e-01 
6.0000000e+00 0.0000000e+00 1.0000000e+00 
6.0000000e+00 0.0000000e+00 1.2500000e+00 
6.0000000e+00 0.0000000e+00 1.5000000e+00 
6.0000000e+00 0.0000000e+00 1.7500000e+00 
6.0000000e+00 0.0000000e+00 2.0000000e+00 
6.0000000e+00 0.0000000e+00 2.2500000e+00 
6.0000000e+00 0.0000000e+00 2.5000000e+00 
6.0000000e+00 0.0000000e+00 2.7500000e+00 
6.0000000e+00 0.0000000e+00 3.0000000e+00 
6.0000000e+00 0.0000000e+00 3.2500000e+00 
6.0000000e+00 0.0000000e+00 3.5000000e+00 
6.0000000e+00 0.0000000e+00 3.7500000e+00 
6.0000000e+00 0.0000000e+00 4.0000000e+00 
6.0000000e+00 0.0000000e+00 4.2500000e+00 
6.0000000e+00 0.0000000e+00 4.5000000e+00 
6.0000000e+00 0.0000000e+00 4.7500000e+00 
6.0000000e+00 0.0000000e+00 5.0000000e+00 
6.0000000e+00 0.0000000e+00 5.2500000e+00 
6.0000000e+00 0.0000000e+00 5.5000000e+00 
6.0000000e+00 0.0000000e+00 5.7500000e+00 
6.0000000e+00 0.0000000e+00 6.0000000e+00 
6.0000000e+00 0.0000000e+00 6.2500000e+00 
6.0000000e+00 0.0000000e+00 6.5000000e+00 
6.0000000e+00 0.0000000e+00 6.7500000e+00 
6.0000000e+00 0.0000000e+00 7.0000000e+00 
6.0000000e+00 0.0000000e+00 7.2500000e+00 
6.0000000e+00 0.0000000e+00 7.5000000e+00 
6.0000000e+00 0.0000000e+00 7.7500000e+00 
6.0000000e+00 0.0000000e+00 8.0000000e+00 
6.0000000e+00 0.0000000e+00 8.2500000e+00 
6.0000000e+00 0.0000000e+00 8.5000000e+00 
6.0000000e+00 0.0000000e+00 8.7500000e+00 
6.0000000e+00 0.0000000e+00 9.0000000e+00 
6.0000000e+00 0.0000000e+00 9.2500000e+00 
6.0000000e+00 0.0000000e+00 9.5000000e+00 
6.0000000e+00 0.0000000e+00 9.7500000e+00 
6.0000000e+00 0.0000000e+00 1.0000000e+01 
6.0000000e+00 0.0000000e+00 1.0250000e+01 
6.0000000e+00 0.0000000e+00 1.0500000e+01 
6.0000000e+00 0.0000000e+00 1.0750000e+01 
6.0000000e+00 0.0000000e+00 1.1000000e+01 
6.0000000e+00 0.0000000e+00 1.1250000e+01 
6.0000000e+00 0.0000000e+00 1.1500000e+01 
6.0000000e+00 0.0000000e+00 1.1750000e+01 
6.0000000e+00 0.0000000e+00 1.2000000e+01 
6.0000000e+00 0.0000000e+00 1.2250000e+01 
6.0000000e+00 0.0000000e+00 1.2500000e+01 
6.0000000e+00 0.0000000e+00 1.2750000e+01 
6.0000000e+00 0.0000000e+00 1.3000000e+01 
6.0000000e+00 0.0000000e+00 1.3250000e+01 
6.0000000e+00 0.0000000e+00 1.3500000e+01 
6.0000000e+00 0.0000000e+00 1.3750000e+01 
6.0000000e+00 0.0000000e+00 1.4000000e+01 
6.0000000e+00 0.0000000e+00 1.4250000e+01 
6.0000000e+00 0.0000000e+00 1.4500000e+01 
6.0000000e+00 0.0000000e+00 1.4750000e+01 
6.0000000e+00 0.0000000e+00 1.5000000e+01 
6.0000000e+00 0.0000000e+00 1.5250000e+01 
6.0000000e+00 0.0000000e+00 1.5500000e+01 
6.0000000e+00 0.0000000e+00 1.5750000e+01 
6.0000000e+00 0.0000000e+00 1.6000000e+01 
6.0000000e+00 0.0000000e+00 1.6250000e+01 
6.0000000e+00 0.0000000e+00 1.6500000e+01 
6.0000000e+00 0.0000000e+00 1.6750000e+01 
6.0000000e+00 0.0000000e+00 1.7000000e+01 
6.0000000e+00 0.0000000e+00 1.7250000e+01 
6.0000000e+00 0.0000000e+00 1.7500000e+01 
6.0000000e+00 0.0000000e+00 1.7750000e+01 
6.0000000e+00 0.0000000e+00 1.8000000e+01 

CELLS 216 648
2 0 1
2 1 2
2 2 3
2 3 4
2 4 5
2 5 6
2 6 7
2 7 8
2 8 9
2 9 10
2 10 11
2 11 12
2 12 13
2 13 14
2 14 15
2 15 16
2 16 17
2 17 18
2 18 19
2 19 20
2 20 21
2 21 22
2 22 23
2 23 24
2 24 25
2 25 26
2 26 27
2 27 28
2 28 29
2 29 30
2 30 31
2 31 32
2 32 33
2 33 34
2 34 35
2 35 36
2 36 37
2 37 38
2 38 39
2 39 40
2 40 41
2 41 42
2 42 43
2 43 44
2 44 45
2 45 46
2 46 47
2 47 48
2 48 49
2 49 50
2 50 51
2 51 52
2 52 53
2 53 54
2 54 55
2 55 56
2 56 57
2 57 58
2 58 59
2 59 60
2 60 61
2 61 62
2 62 63
2 63 64
2 64 65
2 65 66
2 66 67
2 67 68
2 68 69
2 69 70
2 70 71
2 71 72
2 139 140
2 140 141
2 141 142
2 142 143
2 143 144
2 144 145
2 145 146
2 146 147
2 147 148
2 148 149
2 149 150
2 150 151
2 151 152
2 152 153
2 153 154
2 154 155
2 155 156
2 156 157
2 157 158
2 158 159
2 159 160
2 160 161
2 161 162
2 162 163
2 163 164
2 164 165
2 165 166
2 166 167
2 167 168
2 168 169
2 169 170
2 170 171
2 171 172
2 172 173
2 173 174
2 174 175
2 175 176
2 176 177
2 177 178
2 178 179
2 179 180
2 180 181
2 181 182
2 182 183
2 183 184
2 184 185
2 185 186
2 186 187
2 187 188
2 188 189
2 189 190
2 190 191
2 191 192
2 192 193
2 193 194
2 194 195
2 195 196
2 196 197
2 197 198
2 198 199
2 199 200
2 200 201
2 201 202
2 202 203
2 203 204
2 204 205
2 205 206
2 206 207
2 207 208
2 208 209
2 209 210
2 210 211
2 12 73
2 73 79
2 79 85
2 85 91
2 91 97
2 97 103
2 103 109
2 109 115
2 115 121
2 121 127
2 127 133
2 133 151
2 24 74
2 74 80
2 80 86
2 86 92
2 92 98
2 98 104
2 104 110
2 110 116
2 116 122
2 122 128
2 128 134
2 134 163
2 36 75
2 75 81
2 81 87
2 87 93
2 93 99
2 99 105
2 105 111
2 111 117
2 117 123
2 123 129
2 129 135
2 135 175
2 48 76
2 76 82
2 82 88
2 88 94
2 94 100
2 100 106
2 106 112
2 112 118
2 118 124
2 124 130
2 130 136
2 136 187
2 60 77
2 77 83
2 83 89
2 89 95
2 95 101
2 101 107
2 107 113
2 113 119
2 119 125
2 125 131
2 131 137
2 137 199
2 72 78
2 78 84
2 84 90
2 90 96
2 96 102
2 102 108
2 108 114
2 114 120
2 120 126
2 126 132
2 132 138
2 138 211

CELL_TYPES 216
3
3
3
3
3
3
3
3
3
3
3
3
3
3
3
3
3
3
3
3
3
3
3
3
3
3
3
3
3
3
3
3
3
3
3
3
3
3
3
3
3
3
3
3
3
3
3
3
3
3
3
3
3
3
3
3
3
3
3
3
3
3
3
3
3
3
3
3
3
3
3
3
3
3
3
3
3
3
3
3
3
3
3
3
3
3
3
3
3
3
3
3
3
3
3
3
3
3
3
3
3
3
3
3
3
3
3
3
3
3
3
3
3
3
3
3
3
3
3
3
3
3
3
3
3
3
3
3
3
3
3
3
3
3
3
3
3
3
3
3
3
3
3
3
3
3
3
3
3
3
3
3
3
3
3
3
3
3
3
3
3
3
3
3
3
3
3
3
3
3
3
3
3
3
3
3
3
3
3
3
3
3
3
3
3
3
3
3
3
3
3
3
3
3
3
3
3
3
3
3
3
3
3
3
3
3
3
3
3
3
3
3
3
3
3
3
POINT_DATA 212
FIELD FieldData 8
DISPLACEMENT 3 212  float
0.0000000e+00 0.0000000e+00 0.0000000e+00 
-5.8419333e-04 0.0000000e+00 -4.0756509e-05 
-1.1439108e-03 0.0000000e+00 -8.1232472e-05 
-1.6546767e-03 0.0000000e+00 -1.2142790e-04 
-2.0920150e-03 0.0000000e+00 -1.6134277e-04 
-2.4314502e-03 0.0000000e+00 -2.0097710e-04 
-2.6485058e-03 0.0000000e+00 -2.4033089e-04 
-2.7187068e-03 0.0000000e+00 -2.7940414e-04 
-2.6175769e-03 0.0000000e+00 -3.1819683e-04 
-2.3206403e-03 0.0000000e+00 -3.5670897e-04 
-1.8034213e-03 0.0000000e+00 -3.9494058e-04 
-1.0414439e-03 0.0000000e+00 -4.3289163e-04 
-1.0232466e-05 0.0000000e+00 -4.7056217e-04 
9.1803510e-04 0.0000000e+00 -5.0450256e-04 
1.4086728e-03 0.0000000e+00 -5.3816236e-04 
1.5423946e-03 0.0000000e+00 -5.7154166e-04 
1.3999145e-03 0.0000000e+00 -6.0464040e-04 
1.0619464e-03 0.0000000e+00 -6.3745858e-04 
6.0920435e-04 0.0000000e+00 -6.6999625e-04 
1.2240234e-04 0.0000000e+00 -7.0225337e-04 
-3.1774570e-04 0.0000000e+00 -7.3422992e-04 
-6.3052576e-04 0.0000000e+00 -7.6592597e-04 
-7.3522382e-04 0.0000000e+00 -7.9734140e-04 
-5.5112602e-04 0.0000000e+00 -8.2847639e-04 
2.4817225e-06 0.0000000e+00 -8.5933076e-04 
5.8098318e-04 0.0000000e+00 -8.8645500e-04 
8.3066896e-04 0.0000000e+00 -9.1329869e-04 
8.1861351e-04 0.0000000e+00 -9.3986187e-04 
6.1189098e-04 0.0000000e+00 -9.6614449e-04 
2.7757577e-04 0.0000000e+00 -9.9214655e-04 
-1.1725780e-04 0.0000000e+00 -1.0178681e-03 
-5.0553551e-04 0.0000000e+00 -1.0433090e-03 
-8.2018296e-04 0.0000000e+00 -1.0684695e-03 
-9.9412585e-04 0.0000000e+00 -1.0933494e-03 
-9.6029002e-04 0.0000000e+00 -1.1179487e-03 
-6.5160100e-04 0.0000000e+00 -1.1422675e-03 
-9.8451187e-07 0.0000000e+00 -1.1663057e-03 
6.3975656e-04 0.0000000e+00 -1.1866139e-03 
9.2242676e-04 0.0000000e+00 -1.2066414e-03 
9.1951125e-04 0.0000000e+00 -1.2263885e-03 
7.0349523e-04 0.0000000e+00 -1.2458550e-03 
3.4686405e-04 0.0000000e+00 -1.2650409e-03 
-7.7897115e-05 0.0000000e+00 -1.2839463e-03 
-4.9830304e-04 0.0000000e+00 -1.3025712e-03 
-8.4186852e-04 0.0000000e+00 -1.3209154e-03 
-1.0361082e-03 0.0000000e+00 -1.3389792e-03 
-1.0085370e-03 0.0000000e+00 -1.3567625e-03 
-6.8666966e-04 0.0000000e+00 -1.3742651e-03 
1.9791498e-06 0.0000000e+00 -1.3914872e-03 
7.1048032e-04 0.0000000e+00 -1.4049793e-03 
1.0846533e-03 0.0000000e+00 -1.4181907e-03 
1.1861057e-03 0.0000000e+00 -1.4311216e-03 
1.0764451e-03 0.0000000e+00 -1.4437719e-03 
8.1727956e-04 0.0000000e+00 -1.4561417e-03 
4.7021656e-04 0.0000000e+00 -1.4682310e-03 
9.6863943e-05 0.0000000e+00 -1.4800397e-03 
-2.4117061e-04 0.0000000e+00 -1.4915679e-03 
-4.8227937e-04 0.0000000e+00 -1.5028155e-03 
-5.6485465e-04 0.0000000e+00 -1.5137827e-03 
-4.2728861e-04 0.0000000e+00 -1.5244691e-03 
-7.9736501e-06 0.0000000e+00 -1.5348751e-03 
3.3125578e-04 0.0000000e+00 -1.5415510e-03 
2.5778092e-04 0.0000000e+00 -1.5479462e-03 
-1.2296694e-04 0.0000000e+00 -1.5540611e-03 
-7.0555648e-04 0.0000000e+00 -1.5598953e-03 
-1.3845564e-03 0.0000000e+00 -1.5654489e-03 
-2.0545356e-03 0.0000000e+00 -1.5707221e-03 
-2.6100622e-03 0.0000000e+00 -1.5757147e-03 
-2.9457055e-03 0.0000000e+00 -1.5804267e-03 
-2.9560339e-03 0.0000000e+00 -1.5848583e-03 
-2.5356160e-03 0.0000000e+00 -1.5890092e-03 
-1.5790209e-03 0.0000000e+00 -1.5928796e-03 
1.9183104e-05 0.0000000e+00 -1.5964694e-03 
-8.5270549e-06 0.0000000e+00 -4.1522416e-03 
2.0681023e-06 0.0000000e+00 -3.7916908e-03 
-8.2042658e-07 0.0000000e+00 -4.2428956e-03 
1.6492916e-06 0.0000000e+00 -4.5638927e-03 
-6.6447083e-06 0.0000000e+00 -4.1289083e-03 
1.5985921e-05 0.0000000e+00 -6.7084515e-03 
-6.8216436e-06 0.0000000e+00 -9.4396211e-03 
1.6544817e-06 0.0000000e+00 -8.4659904e-03 
-6.5634129e-07 0.0000000e+00 -9.0352017e-03 
1.3194333e-06 0.0000000e+00 -9.4345929e-03 
-5.3157669e-06 0.0000000e+00 -8.5263941e-03 
1.2788736e-05 0.0000000e+00 -1.3166078e-02 
-5.1162328e-06 0.0000000e+00 -1.4967642e-02 
1.2408613e-06 0.0000000e+00 -1.3517171e-02 
-4.9225594e-07 0.0000000e+00 -1.4178165e-02 
9.8957491e-07 0.0000000e+00 -1.4638530e-02 
-3.9868250e-06 0.0000000e+00 -1.3362276e-02 
9.5915520e-06 0.0000000e+00 -1.9604292e-02 
-3.4108218e-06 0.0000000e+00 -1.9674594e-02 
8.2724085e-07 0.0000000e+00 -1.7883522e-02 
-3.2817064e-07 0.0000000e+00 -1.8610077e-02 
6.5971659e-07 0.0000000e+00 -1.9113993e-02 
-2.6578834e-06 0.0000000e+00 -1.7574843e-02 
6.3943680e-06 0.0000000e+00 -2.4961380e-02 
-1.7054110e-06 0.0000000e+00 -2.2802111e-02 
4.1362043e-07 0.0000000e+00 -2.0806680e-02 
-1.6408532e-07 0.0000000e+00 -2.1572569e-02 
3.2985830e-07 0.0000000e+00 -2.2102617e-02 
-1.3289417e-06 0.0000000e+00 -2.0405730e-02 
3.1971840e-06 0.0000000e+00 -2.8478980e-02 
-6.9191369e-15 0.0000000e+00 -2.3895174e-02 
-8.8229307e-15 0.0000000e+00 -2.1831624e-02 
-1.0760619e-14 0.0000000e+00 -2.2610623e-02 
-1.3208334e-14 0.0000000e+00 -2.3149382e-02 
-1.4690619e-14 0.0000000e+00 -2.1399915e-02 
-1.4548387e-14 0.0000000e+00 -2.9702071e-02 
1.7054109e-06 0.0000000e+00 -2.2802111e-02 
-4.1362046e-07 0.0000000e+00 -2.0806680e-02 
1.6408531e-07 0.0000000e+00 -2.1572569e-02 
-3.2985832e-07 0.0000000e+00 -2.2102617e-02 
1.3289416e-06 0.0000000e+00 -2.0405730e-02 
-3.1971840e-06 0.0000000e+00 -2.8478980e-02 
3.4108218e-06 0.0000000e+00 -1.9674594e-02 
-8.2724085e-07 0.0000000e+00 -1.7883522e-02 
3.2817061e-07 0.0000000e+00 -1.8610077e-02 
-6.5971665e-07 0.0000000e+00 -1.9113993e-02 
2.6578832e-06 0.0000000e+00 -1.7574843e-02 
-6.3943680e-06 0.0000000e+00 -2.4961380e-02 
5.1162328e-06 0.0000000e+00 -1.4967642e-02 
-1.2408614e-06 0.0000000e+00 -1.3517171e-02 
4.9225594e-07 0.0000000e+00 -1.4178165e-02 
-9.8957491e-07 0.0000000e+00 -1.4638530e-02 
3.9868250e-06 0.0000000e+00 -1.3362276e-02 
-9.5915520e-06 0.0000000e+00 -1.9604292e-02 
6.8216436e-06 0.0000000e+00 -9.4396211e-03 
-1.6544817e-06 0.0000000e+00 -8.4659904e-03 
6.5634123e-07 0.0000000e+00 -9.0352017e-03 
-1.3194333e-06 0.0000000e+00 -9.4345929e-03 
5.3157664e-06 0.0000000e+00 -8.5263941e-03 
-1.2788736e-05 0.0000000e+00 -1.3166078e-02 
8.5270549e-06 0.0000000e+00 -4.1522416e-03 
-2.0681023e-06 0.0000000e+00 -3.7916908e-03 
8.2042658e-07 0.0000000e+00 -4.2428956e-03 
-1.6492916e-06 0.0000000e+00 -4.5638927e-03 
6.6447083e-06 0.0000000e+00 -4.1289083e-03 
-1.5985921e-05 0.0000000e+00 -6.7084515e-03 
0.0000000e+00 0.0000000e+00 0.0000000e+00 
5.8419333e-04 0.0000000e+00 -4.0756509e-05 
1.1439108e-03 0.0000000e+00 -8.1232472e-05 
1.6546767e-03 0.0000000e+00 -1.2142790e-04 
2.0920150e-03 0.0000000e+00 -1.6134277e-04 
2.4314502e-03 0.0000000e+00 -2.0097710e-04 
2.6485058e-03 0.0000000e+00 -2.4033089e-04 
2.7187068e-03 0.0000000e+00 -2.7940414e-04 
2.6175769e-03 0.0000000e+00 -3.1819683e-04 
2.3206403e-03 0.0000000e+00 -3.5670897e-04 
1.8034213e-03 0.0000000e+00 -3.9494058e-04 
1.0414439e-03 0.0000000e+00 -4.3289163e-04 
1.0232466e-05 0.0000000e+00 -4.7056217e-04 
-9.1803510e-04 0.0000000e+00 -5.0450256e-04 
-1.4086728e-03 0.0000000e+00 -5.3816236e-04 
-1.5423946e-03 0.0000000e+00 -5.7154166e-04 
-1.3999145e-03 0.0000000e+00 -6.0464040e-04 
-1.0619464e-03 0.0000000e+00 -6.3745858e-04 
-6.0920435e-04 0.0000000e+00 -6.6999625e-04 
-1.2240234e-04 0.0000000e+00 -7.0225337e-04 
3.1774570e-04 0.0000000e+00 -7.3422992e-04 
6.3052576e-04 0.0000000e+00 -7.6592597e-04 
7.3522382e-04 0.0000000e+00 -7.9734140e-04 
5.5112602e-04 0.0000000e+00 -8.2847639e-04 
-2.4817227e-06 0.0000000e+00 -8.5933076e-04 
-5.8098318e-04 0.0000000e+00 -8.8645500e-04 
-8.3066896e-04 0.0000000e+00 -9.1329869e-04 
-8.1861351e-04 0.0000000e+00 -9.3986187e-04 
-6.1189098e-04 0.0000000e+00 -9.6614449e-04 
-2.7757577e-04 0.0000000e+00 -9.9214655e-04 
1.1725780e-04 0.0000000e+00 -1.0178681e-03 
5.0553551e-04 0.0000000e+00 -1.0433090e-03 
8.2018296e-04 0.0000000e+00 -1.0684695e-03 
9.9412585e-04 0.0000000e+00 -1.0933494e-03 
9.6029002e-04 0.0000000e+00 -1.1179487e-03 
6.5160100e-04 0.0000000e+00 -1.1422675e-03 
9.8451187e-07 0.0000000e+00 -1.1663057e-03 
-6.3975656e-04 0.0000000e+00 -1.1866139e-03 
-9.2242676e-04 0.0000000e+00 -1.2066414e-03 
-9.1951125e-04 0.0000000e+00 -1.2263885e-03 
-7.0349523e-04 0.0000000e+00 -1.2458550e-03 
-3.4686405e-04 0.0000000e+00 -1.2650409e-03 
7.7897115e-05 0.0000000e+00 -1.2839463e-03 
4.9830304e-04 0.0000000e+00 -1.3025712e-03 
8.4186852e-04 0.0000000e+00 -1.3209154e-03 
1.0361082e-03 0.0000000e+00 -1.3389792e-03 
1.0085370e-03 0.0000000e+00 -1.3567625e-03 
6.8666966e-04 0.0000000e+00 -1.3742651e-03 
-1.9791498e-06 0.0000000e+00 -1.3914872e-03 
-7.1048032e-04 0.0000000e+00 -1.4049793e-03 
-1.0846533e-03 0.0000000e+00 -1.4181907e-03 
-1.1861057e-03 0.0000000e+00 -1.4311216e-03 
-1.0764451e-03 0.0000000e+00 -1.4437719e-03 
-8.1727956e-04 0.0000000e+00 -1.4561417e-03 
-4.7021656e-04 0.0000000e+00 -1.4682310e-03 
-9.6863943e-05 0.0000000e+00 -1.4800397e-03 
2.4117061e-04 0.0000000e+00 -1.4915679e-03 
4.8227937e-04 0.0000000e+00 -1.5028155e-03 
5.6485465e-04 0.0000000e+00 -1.5137827e-03 
4.2728861e-04 0.0000000e+00 -1.5244691e-03 
7.9736501e-06 0.0000000e+00 -1.5348751e-03 
-3.3125578e-04 0.0000000e+00 -1.5415510e-03 
-2.5778092e-04 0.0000000e+00 -1.5479462e-03 
1.2296694e-04 0.0000000e+00 -1.5540611e-03 
7.0555648e-04 0.0000000e+00 -1.5598953e-03 
1.3845564e-03 0.0000000e+00 -1.5654489e-03 
2.0545356e-03 0.0000000e+00 -1.5707221e-03 
2.6100622e-03 0.0000000e+00 -1.5757147e-03 
2.9457055e-03 0.0000000e+00 -1.5804267e-03 
2.9560339e-03 0.0000000e+00 -1.5848583e-03 
2.5356160e-03 0.0000000e+00 -1.5890092e-03 
1.5790209e-03 0.0000000e+00 -1.5928796e-03 
-1.9183104e-05 0.0000000e+00 -1.5964694e-03 
ROTATION 3 212  float
0.0000000e+00 -2.3530906e-03 0.0000000e+00 
0.0000000e+00 -2.3041388e-03 0.0000000e+00 
0.0000000e+00 -2.1572839e-03 0.0000000e+00 
0.0000000e+00 -1.9125256e-03 0.0000000e+00 
0.0000000e+00 -1.5698640e-03 0.0000000e+00 
0.0000000e+00 -1.1292991e-03 0.0000000e+00 
0.0000000e+00 -5.9083075e-04 0.0000000e+00 
0.0000000e+00 4.5540841e-05 0.0000000e+00 
0.0000000e+00 7.7981577e-04 0.0000000e+00 
0.0000000e+00 1.6119940e-03 0.0000000e+00 
0.0000000e+00 2.5420755e-03 0.0000000e+00 
0.0000000e+00 3.5700605e-03 0.0000000e+00 
0.0000000e+00 4.6959487e-03 0.0000000e+00 
0.0000000e+00 2.7840012e-03 0.0000000e+00 
0.0000000e+00 1.1949097e-03 0.0000000e+00 
0.0000000e+00 -7.1325987e-05 0.0000000e+00 
0.0000000e+00 -1.0147057e-03 0.0000000e+00 
0.0000000e+00 -1.6352296e-03 0.0000000e+00 
0.0000000e+00 -1.9328975e-03 0.0000000e+00 
0.0000000e+00 -1.9077094e-03 0.0000000e+00 
0.0000000e+00 -1.5596654e-03 0.0000000e+00 
0.0000000e+00 -8.8876561e-04 0.0000000e+00 
0.0000000e+00 1.0499013e-04 0.0000000e+00 
0.0000000e+00 1.4216019e-03 0.0000000e+00 
0.0000000e+00 3.0610694e-03 0.0000000e+00 
0.0000000e+00 1.6116584e-03 0.0000000e+00 
0.0000000e+00 4.3054446e-04 0.0000000e+00 
0.0000000e+00 -4.8227218e-04 0.0000000e+00 
0.0000000e+00 -1.1267916e-03 0.0000000e+00 
0.0000000e+00 -1.5030138e-03 0.0000000e+00 
0.0000000e+00 -1.6109388e-03 0.0000000e+00 
0.0000000e+00 -1.4505665e-03 0.0000000e+00 
0.0000000e+00 -1.0218971e-03 0.0000000e+00 
0.0000000e+00 -3.2493030e-04 0.0000000e+00 
0.0000000e+00 6.4033363e-04 0.0000000e+00 
0.0000000e+00 1.8738948e-03 0.0000000e+00 
0.0000000e+00 3.3757531e-03 0.0000000e+00 
0.0000000e+00 1.7984990e-03 0.0000000e+00 
0.0000000e+00 5.1118579e-04 0.0000000e+00 
0.0000000e+00 -4.8618647e-04 0.0000000e+00 
0.0000000e+00 -1.1936178e-03 0.0000000e+00 
0.0000000e+00 -1.6111082e-03 0.0000000e+00 
0.0000000e+00 -1.7386577e-03 0.0000000e+00 
0.0000000e+00 -1.5762663e-03 0.0000000e+00 
0.0000000e+00 -1.1239338e-03 0.0000000e+00 
0.0000000e+00 -3.8166056e-04 0.0000000e+00 
0.0000000e+00 6.5055367e-04 0.0000000e+00 
0.0000000e+00 1.9727089e-03 0.0000000e+00 
0.0000000e+00 3.5848049e-03 0.0000000e+00 
0.0000000e+00 2.1242765e-03 0.0000000e+00 
0.0000000e+00 9.1017870e-04 0.0000000e+00 
0.0000000e+00 -5.7488072e-05 0.0000000e+00 
0.0000000e+00 -7.7872397e-04 0.0000000e+00 
0.0000000e+00 -1.2535290e-03 0.0000000e+00 
0.0000000e+00 -1.4819030e-03 0.0000000e+00 
0.0000000e+00 -1.4638462e-03 0.0000000e+00 
0.0000000e+00 -1.1993585e-03 0.0000000e+00 
0.0000000e+00 -6.8843982e-04 0.0000000e+00 
0.0000000e+00 6.8909692e-05 0.0000000e+00 
0.0000000e+00 1.0726901e-03 0.0000000e+00 
0.0000000e+00 2.3229015e-03 0.0000000e+00 
0.0000000e+00 4.6122161e-04 0.0000000e+00 
0.0000000e+00 -9.7873295e-04 0.0000000e+00 
0.0000000e+00 -1.9969624e-03 0.0000000e+00 
0.0000000e+00 -2.5934665e-03 0.0000000e+00 
0.0000000e+00 -2.7682455e-03 0.0000000e+00 
0.0000000e+00 -2.5212991e-03 0.0000000e+00 
0.0000000e+00 -1.8526276e-03 0.0000000e+00 
0.0000000e+00 -7.6223083e-04 0.0000000e+00 
0.0000000e+00 7.4989122e-04 0.0000000e+00 
0.0000000e+00 2.6837385e-03 0.0000000e+00 
0.0000000e+00 5.0393110e-03 0.0000000e+00 
0.0000000e+00 7.8166090e-03 0.0000000e+00 
0.0000000e+00 9.4746351e-03 0.0000000e+00 
0.0000000e+00 8.1122359e-03 0.0000000e+00 
0.0000000e+00 8.3744721e-03 0.0000000e+00 
0.0000000e+00 8.5486826e-03 0.0000000e+00 
0.0000000e+00 7.4970960e-03 0.0000000e+00 
0.0000000e+00 1.2075186e-02 0.0000000e+00 
0.0000000e+00 1.1219861e-02 0.0000000e+00 
0.0000000e+00 1.0129942e-02 0.0000000e+00 
0.0000000e+00 1.0339731e-02 0.0000000e+00 
0.0000000e+00 1.0479099e-02 0.0000000e+00 
0.0000000e+00 9.6378298e-03 0.0000000e+00 
0.0000000e+00 1.3300302e-02 0.0000000e+00 
0.0000000e+00 1.0538318e-02 0.0000000e+00 
0.0000000e+00 9.7208787e-03 0.0000000e+00 
0.0000000e+00 9.8782210e-03 0.0000000e+00 
0.0000000e+00 9.9827470e-03 0.0000000e+00 
0.0000000e+00 9.3517946e-03 0.0000000e+00 
0.0000000e+00 1.2098649e-02 0.0000000e+00 
0.0000000e+00 8.0366991e-03 0.0000000e+00 
0.0000000e+00 7.4917395e-03 0.0000000e+00 
0.0000000e+00 7.5966343e-03 0.0000000e+00 
0.0000000e+00 7.6663182e-03 0.0000000e+00 
0.0000000e+00 7.2456836e-03 0.0000000e+00 
0.0000000e+00 9.0769194e-03 0.0000000e+00 
0.0000000e+00 4.3216958e-03 0.0000000e+00 
0.0000000e+00 4.0492159e-03 0.0000000e+00 
0.0000000e+00 4.1016634e-03 0.0000000e+00 
0.0000000e+00 4.1365051e-03 0.0000000e+00 
0.0000000e+00 3.9261878e-03 0.0000000e+00 
0.0000000e+00 4.8418059e-03 0.0000000e+00 
0.0000000e+00 4.5041300e-16 0.0000000e+00 
0.0000000e+00 -5.7745260e-17 0.0000000e+00 
0.0000000e+00 3.6956966e-16 0.0000000e+00 
0.0000000e+00 4.0421683e-16 0.0000000e+00 
0.0000000e+00 0.0000000e+00 0.0000000e+00 
0.0000000e+00 1.2858501e-16 0.0000000e+00 
0.0000000e+00 -4.3216958e-03 0.0000000e+00 
0.0000000e+00 -4.0492159e-03 0.0000000e+00 
0.0000000e+00 -4.1016634e-03 0.0000000e+00 
0.0000000e+00 -4.1365051e-03 0.0000000e+00 
0.0000000e+00 -3.9261878e-03 0.0000000e+00 
0.0000000e+00 -4.8418059e-03 0.0000000e+00 
0.0000000e+00 -8.0366991e-03 0.0000000e+00 
0.0000000e+00 -7.4917395e-03 0.0000000e+00 
0.0000000e+00 -7.5966343e-03 0.0000000e+00 
0.0000000e+00 -7.6663182e-03 0.0000000e+00 
0.0000000e+00 -7.2456836e-03 0.0000000e+00 
0.0000000e+00 -9.0769194e-03 0.0000000e+00 
0.0000000e+00 -1.0538318e-02 0.0000000e+00 
0.0000000e+00 -9.7208787e-03 0.0000000e+00 
0.0000000e+00 -9.8782210e-03 0.0000000e+00 
0.0000000e+00 -9.9827470e-03 0.0000000e+00 
0.0000000e+00 -9.3517946e-03 0.0000000e+00 
0.0000000e+00 -1.2098649e-02 0.0000000e+00 
0.0000000e+00 -1.1219861e-02 0.0000000e+00 
0.0000000e+00 -1.0129942e-02 0.0000000e+00 
0.0000000e+00 -1.0339731e-02 0.0000000e+00 
0.0000000e+00 -1.0479099e-02 0.0000000e+00 
0.0000000e+00 -9.6378298e-03 0.0000000e+00 
0.0000000e+00 -1.3300302e-02 0.0000000e+00 
0.0000000e+00 -9.4746351e-03 0.0000000e+00 
0.0000000e+00 -8.1122359e-03 0.0000000e+00 
0.0000000e+00 -8.3744721e-03 0.0000000e+00 
0.0000000e+00 -8.5486826e-03 0.0000000e+00 
0.0000000e+00 -7.4970960e-03 0.0000000e+00 
0.0000000e+00 -1.2075186e-02 0.0000000e+00 
0.0000000e+00 2.3530906e-03 0.0000000e+00 
0.0000000e+00 2.3041388e-03 0.0000000e+00 
0.0000000e+00 2.1572839e-03 0.0000000e+00 
0.0000000e+00 1.9125256e-03 0.0000000e+00 
0.0000000e+00 1.5698640e-03 0.0000000e+00 
0.0000000e+00 1.1292991e-03 0.0000000e+00 
0.0000000e+00 5.9083075e-04 0.0000000e+00 
0.0000000e+00 -4.5540841e-05 0.0000000e+00 
0.0000000e+00 -7.7981577e-04 0.0000000e+00 
0.0000000e+00 -1.6119940e-03 0.0000000e+00 
0.0000000e+00 -2.5420755e-03 0.0000000e+00 
0.0000000e+00 -3.5700605e-03 0.0000000e+00 
0.0000000e+00 -4.6959487e-03 0.0000000e+00 
0.0000000e+00 -2.7840012e-03 0.0000000e+00 
0.0000000e+00 -1.1949097e-03 0.0000000e+00 
0.0000000e+00 7.1325987e-05 0.0000000e+00 
0.0000000e+00 1.0147057e-03 0.0000000e+00 
0.0000000e+00 1.6352296e-03 0.0000000e+00 
0.0000000e+00 1.9328975e-03 0.0000000e+00 
0.0000000e+00 1.9077094e-03 0.0000000e+00 
0.0000000e+00 1.5596654e-03 0.0000000e+00 
0.0000000e+00 8.8876561e-04 0.0000000e+00 
0.0000000e+00 -1.0499013e-04 0.0000000e+00 
0.0000000e+00 -1.4216019e-03 0.0000000e+00 
0.0000000e+00 -3.0610694e-03 0.0000000e+00 
0.0000000e+00 -1.6116584e-03 0.0000000e+00 
0.0000000e+00 -4.3054446e-04 0.0000000e+00 
0.0000000e+00 4.8227218e-04 0.0000000e+00 
0.0000000e+00 1.1267916e-03 0.0000000e+00 
0.0000000e+00 1.5030138e-03 0.0000000e+00 
0.0000000e+00 1.6109388e-03 0.0000000e+00 
0.0000000e+00 1.4505665e-03 0.0000000e+00 
0.0000000e+00 1.0218971e-03 0.0000000e+00 
0.0000000e+00 3.2493030e-04 0.0000000e+00 
0.0000000e+00 -6.4033363e-04 0.0000000e+00 
0.0000000e+00 -1.8738948e-03 0.0000000e+00 
0.0000000e+00 -3.3757531e-03 0.0000000e+00 
0.0000000e+00 -1.7984990e-03 0.0000000e+00 
0.0000000e+00 -5.1118579e-04 0.0000000e+00 
0.0000000e+00 4.8618647e-04 0.0000000e+00 
0.0000000e+00 1.1936178e-03 0.0000000e+00 
0.0000000e+00 1.6111082e-03 0.0000000e+00 
0.0000000e+00 1.7386577e-03 0.0000000e+00 
0.0000000e+00 1.5762663e-03 0.0000000e+00 
0.0000000e+00 1.1239338e-03 0.0000000e+00 
0.0000000e+00 3.8166056e-04 0.0000000e+00 
0.0000000e+00 -6.5055367e-04 0.0000000e+00 
0.0000000e+00 -1.9727089e-03 0.0000000e+00 
0.0000000e+00 -3.5848049e-03 0.0000000e+00 
0.0000000e+00 -2.1242765e-03 0.0000000e+00 
0.0000000e+00 -9.1017870e-04 0.0000000e+00 
0.0000000e+00 5.7488072e-05 0.0000000e+00 
0.0000000e+00 7.7872397e-04 0.0000000e+00 
0.0000000e+00 1.2535290e-03 0.0000000e+00 
0.0000000e+00 1.4819030e-03 0.0000000e+00 
0.0000000e+00 1.4638462e-03 0.0000000e+00 
0.0000000e+00 1.1993585e-03 0.0000000e+00 
0.0000000e+00 6.8843982e-04 0.0000000e+00 
0.0000000e+00 -6.8909692e-05 0.0000000e+00 
0.0000000e+00 -1.0726901e-03 0.0000000e+00 
0.0000000e+00 -2.3229015e-03 0.0000000e+00 
0.0000000e+00 -4.6122161e-04 0.0000000e+00 
0.0000000e+00 9.7873295e-04 0.0000000e+00 
0.0000000e+00 1.9969624e-03 0.0000000e+00 
0.0000000e+00 2.5934665e-03 0.0000000e+00 