# vtk DataFile Version 4.0
vtk output
ASCII
DATASET UNSTRUCTURED_GRID
POINTS 212 float
0.0000000e+00 0.0000000e+00 0.0000000e+00 
0.0000000e+00 0.0000000e+00 2.5000000e-01 
0.0000000e+00 0.0000000e+00 5.0000000e-01 
0.0000000e+00 0.0000000e+00 7.5000000e-01 
0.0000000e+00 0.0000000e+00 1.0000000e+00 
0.0000000e+00 0.0000000e+00 1.2500000e+00 
0.0000000e+00 0.0000000e+00 1.5000000e+00 
0.0000000e+00 0.0000000e+00 1.7500000e+00 
0.0000000e+00 0.0000000e+00 2.0000000e+00 
0.0000000e+00 0.0000000e+00 2.2500000e+00 
0.0000000e+00 0.0000000e+00 2.5000000e+00 
0.0000000e+00 0.0000000e+00 2.7500000e+00 
0.0000000e+00 0.0000000e+00 3.0000000e+00 
0.0000000e+00 0.0000000e+00 3.2500000e+00 
0.0000000e+00 0.0000000e+00 3.5000000e+00 
0.0000000e+00 0.0000000e+00 3.7500000e+00 
0.0000000e+00 0.0000000e+00 4.0000000e+00 
0.0000000e+00 0.0000000e+00 4.2500000e+00 
0.0000000e+00 0.0000000e+00 4.5000000e+00 
0.0000000e+00 0.0000000e+00 4.7500000e+00 
0.0000000e+00 0.0000000e+00 5.0000000e+00 
0.0000000e+00 0.0000000e+00 5.2500000e+00 
0.0000000e+00 0.0000000e+00 5.5000000e+00 
0.0000000e+00 0.0000000e+00 5.7500000e+00 
0.0000000e+00 0.0000000e+00 6.0000000e+00 
0.0000000e+00 0.0000000e+00 6.2500000e+00 
0.0000000e+00 0.0000000e+00 6.5000000e+00 
0.0000000e+00 0.0000000e+00 6.7500000e+00 
0.0000000e+00 0.0000000e+00 7.0000000e+00 
0.0000000e+00 0.0000000e+00 7.2500000e+00 
0.0000000e+00 0.0000000e+00 7.5000000e+00 
0.0000000e+00 0.0000000e+00 7.7500000e+00 
0.0000000e+00 0.0000000e+00 8.0000000e+00 
0.0000000e+00 0.0000000e+00 8.2500000e+00 
0.0000000e+00 0.0000000e+00 8.5000000e+00 
0.0000000e+00 0.0000000e+00 8.7500000e+00 
0.0000000e+00 0.0000000e+00 9.0000000e+00 
0.0000000e+00 0.0000000e+00 9.2500000e+00 
0.0000000e+00 0.0000000e+00 9.5000000e+00 
0.0000000e+00 0.0000000e+00 9.7500000e+00 
0.0000000e+00 0.0000000e+00 1.0000000e+01 
0.0000000e+00 0.0000000e+00 1.0250000e+01 
0.0000000e+00 0.0000000e+00 1.0500000e+01 
0.0000000e+00 0.0000000e+00 1.0750000e+01 
0.0000000e+00 0.0000000e+00 1.1000000e+01 
0.0000000e+00 0.0000000e+00 1.1250000e+01 
0.0000000e+00 0.0000000e+00 1.1500000e+01 
0.0000000e+00 0.0000000e+00 1.1750000e+01 
0.0000000e+00 0.0000000e+00 1.2000000e+01 
0.0000000e+00 0.0000000e+00 1.2250000e+01 
0.0000000e+00 0.0000000e+00 1.2500000e+01 
0.0000000e+00 0.0000000e+00 1.2750000e+01 
0.0000000e+00 0.0000000e+00 1.3000000e+01 
0.0000000e+00 0.0000000e+00 1.3250000e+01 
0.0000000e+00 0.0000000e+00 1.3500000e+01 
0.0000000e+00 0.0000000e+00 1.3750000e+01 
0.0000000e+00 0.0000000e+00 1.4000000e+01 
0.0000000e+00 0.0000000e+00 1.4250000e+01 
0.0000000e+00 0.0000000e+00 1.4500000e+01 
0.0000000e+00 0.0000000e+00 1.4750000e+01 
0.0000000e+00 0.0000000e+00 1.5000000e+01 
0.0000000e+00 0.0000000e+00 1.5250000e+01 
0.0000000e+00 0.0000000e+00 1.5500000e+01 
0.0000000e+00 0.0000000e+00 1.5750000e+01 
0.0000000e+00 0.0000000e+00 1.6000000e+01 
0.0000000e+00 0.0000000e+00 1.6250000e+01 
0.0000000e+00 0.0000000e+00 1.6500000e+01 
0.0000000e+00 0.0000000e+00 1.6750000e+01 
0.0000000e+00 0.0000000e+00 1.7000000e+01 
0.0000000e+00 0.0000000e+00 1.7250000e+01 
0.0000000e+00 0.0000000e+00 1.7500000e+01 
0.0000000e+00 0.0000000e+00 1.7750000e+01 
0.0000000e+00 0.0000000e+00 1.8000000e+01 
5.0000000e-01 0.0000000e+00 3.0000000e+00 
5.0000000e-01 0.0000000e+00 6.0000000e+00 
5.0000000e-01 0.0000000e+00 9.0000000e+00 
5.0000000e-01 0.0000000e+00 1.2000000e+01 
5.0000000e-01 0.0000000e+00 1.5000000e+01 
5.0000000e-01 0.0000000e+00 1.8000000e+01 
1.0000000e+00 0.0000000e+00 3.0000000e+00 
1.0000000e+00 0.0000000e+00 6.0000000e+00 
1.0000000e+00 0.0000000e+00 9.0000000e+00 
1.0000000e+00 0.0000000e+00 1.2000000e+01 
1.0000000e+00 0.0000000e+00 1.5000000e+01 
1.0000000e+00 0.0000000e+00 1.8000000e+01 
1.5000000e+00 0.0000000e+00 3.0000000e+00 
1.5000000e+00 0.0000000e+00 6.0000000e+00 
1.5000000e+00 0.0000000e+00 9.0000000e+00 
1.5000000e+00 0.0000000e+00 1.2000000e+01 
1.5000000e+00 0.0000000e+00 1.5000000e+01 
1.5000000e+00 0.0000000e+00 1.8000000e+01 
2.0000000e+00 0.0000000e+00 3.0000000e+00 
2.0000000e+00 0.0000000e+00 6.0000000e+00 
2.0000000e+00 0.0000000e+00 9.0000000e+00 
2.0000000e+00 0.0000000e+00 1.2000000e+01 
2.0000000e+00 0.0000000e+00 1.5000000e+01 
2.0000000e+00 0.0000000e+00 1.8000000e+01 
2.5000000e+00 0.0000000e+00 3.0000000e+00 
2.5000000e+00 0.0000000e+00 6.0000000e+00 
2.5000000e+00 0.0000000e+00 9.0000000e+00 
2.5000000e+00 0.0000000e+00 1.2000000e+01 
2.5000000e+00 0.0000000e+00 1.5000000e+01 
2.5000000e+00 0.0000000e+00 1.8000000e+01 
3.0000000e+00 0.0000000e+00 3.0000000e+00 
3.0000000e+00 0.0000000e+00 6.0000000e+00 
3.0000000e+00 0.0000000e+00 9.0000000e+00 
3.0000000e+00 0.0000000e+00 1.2000000e+01 
3.0000000e+00 0.0000000e+00 1.5000000e+01 
3.0000000e+00 0.0000000e+00 1.8000000e+01 
3.5000000e+00 0.0000000e+00 3.0000000e+00 
3.5000000e+00 0.0000000e+00 6.0000000e+00 
3.5000000e+00 0.0000000e+00 9.0000000e+00 
3.5000000e+00 0.0000000e+00 1.2000000e+01 
3.5000000e+00 0.0000000e+00 1.5000000e+01 
3.5000000e+00 0.0000000e+00 1.8000000e+01 
4.0000000e+00 0.0000000e+00 3.0000000e+00 
4.0000000e+00 0.0000000e+00 6.0000000e+00 
4.0000000e+00 0.0000000e+00 9.0000000e+00 
4.0000000e+00 0.0000000e+00 1.2000000e+01 
4.0000000e+00 0.0000000e+00 1.5000000e+01 
4.0000000e+00 0.0000000e+00 1.8000000e+01 
4.5000000e+00 0.0000000e+00 3.0000000e+00 
4.5000000e+00 0.0000000e+00 6.0000000e+00 
4.5000000e+00 0.0000000e+00 9.0000000e+00 
4.5000000e+00 0.0000000e+00 1.2000000e+01 
4.5000000e+00 0.0000000e+00 1.5000000e+01 
4.5000000e+00 0.0000000e+00 1.8000000e+01 
5.0000000e+00 0.0000000e+00 3.0000000e+00 
5.0000000e+00 0.0000000e+00 6.0000000e+00 
5.0000000e+00 0.0000000e+00 9.0000000e+00 
5.0000000e+00 0.0000000e+00 1.2000000e+01 
5.0000000e+00 0.0000000e+00 1.5000000e+01 
5.0000000e+00 0.0000000e+00 1.8000000e+01 
5.5000000e+00 0.0000000e+00 3.0000000e+00 
5.5000000e+00 0.0000000e+00 6.0000000e+00 
5.5000000e+00 0.0000000e+00 9.0000000e+00 
5.5000000e+00 0.0000000e+00 1.2000000e+01 
5.5000000e+00 0.0000000e+00 1.5000000e+01 
5.5000000e+00 0.0000000e+00 1.8000000e+01 
6.0000000e+00 0.0000000e+00 0.0000000e+00 
6.0000000e+00 0.0000000e+00 2.5000000e-01 
6.0000000e+00 0.0000000e+00 5.0000000e-01 
6.0000000e+00 0.0000000e+00 7.5000000e-01 
6.0000000e+00 0.0000000e+00 1.0000000e+00 
6.0000000e+00 0.0000000e+00 1.2500000e+00 
6.0000000e+00 0.0000000e+00 1.5000000e+00 
6.0000000e+00 0.0000000e+00 1.7500000e+00 
6.0000000e+00 0.0000000e+00 2.0000000e+00 
6.0000000e+00 0.0000000e+00 2.2500000e+00 
6.0000000e+00 0.0000000e+00 2.5000000e+00 
6.0000000e+00 0.0000000e+00 2.7500000e+00 
6.0000000e+00 0.0000000e+00 3.0000000e+00 
6.0000000e+00 0.0000000e+00 3.2500000e+00 
6.0000000e+00 0.0000000e+00 3.5000000e+00 
6.0000000e+00 0.0000000e+00 3.7500000e+00 
6.0000000e+00 0.0000000e+00 4.0000000e+00 
6.0000000e+00 0.0000000e+00 4.2500000e+00 
6.0000000e+00 0.0000000e+00 4.5000000e+00 
6.0000000e+00 0.0000000e+00 4.7500000e+00 
6.0000000e+00 0.0000000e+00 5.0000000e+00 
6.0000000e+00 0.0000000e+00 5.2500000e+00 
6.0000000e+00 0.0000000e+00 5.5000000e+00 
6.0000000e+00 0.0000000e+00 5.7500000e+00 
6.0000000e+00 0.0000000e+00 6.0000000e+00 
6.0000000e+00 0.0000000e+00 6.2500000e+00 
6.0000000e+00 0.0000000e+00 6.5000000e+00 
6.0000000e+00 0.0000000e+00 6.7500000e+00 
6.0000000e+00 0.0000000e+00 7.0000000e+00 
6.0000000e+00 0.0000000e+00 7.2500000e+00 
6.0000000e+00 0.0000000e+00 7.5000000e+00 
6.0000000e+00 0.0000000e+00 7.7500000e+00 
6.0000000e+00 0.0000000e+00 8.0000000e+00 
6.0000000e+00 0.0000000e+00 8.2500000e+00 
6.0000000e+00 0.0000000e+00 8.5000000e+00 
6.0000000e+00 0.0000000e+00 8.7500000e+00 
6.0000000e+00 0.0000000e+00 9.0000000e+00 
6.0000000e+00 0.0000000e+00 9.2500000e+00 
6.0000000e+00 0.0000000e+00 9.5000000e+00 
6.0000000e+00 0.0000000e+00 9.7500000e+00 
6.0000000e+00 0.0000000e+00 1.0000000e+01 
6.0000000e+00 0.0000000e+00 1.0250000e+01 
6.0000000e+00 0.0000000e+00 1.0500000e+01 
6.0000000e+00 0.0000000e+00 1.0750000e+01 
6.0000000e+00 0.0000000e+00 1.1000000e+01 
6.0000000e+00 0.0000000e+00 1.1250000e+01 
6.0000000e+00 0.0000000e+00 1.1500000e+01 
6.0000000e+00 0.0000000e+00 1.1750000e+01 
6.0000000e+00 0.0000000e+00 1.2000000e+01 
6.0000000e+00 0.0000000e+00 1.2250000e+01 
6.0000000e+00 0.0000000e+00 1.2500000e+01 
6.0000000e+00 0.0000000e+00 1.2750000e+01 
6.0000000e+00 0.0000000e+00 1.3000000e+01 
6.0000000e+00 0.0000000e+00 1.3250000e+01 
6.0000000e+00 0.0000000e+00 1.3500000e+01 
6.0000000e+00 0.0000000e+00 1.3750000e+01 
6.0000000e+00 0.0000000e+00 1.4000000e+01 
6.0000000e+00 0.0000000e+00 1.4250000e+01 
6.0000000e+00 0.0000000e+00 1.4500000e+01 
6.0000000e+00 0.0000000e+00 1.4750000e+01 
6.0000000e+00 0.0000000e+00 1.5000000e+01 
6.0000000e+00 0.0000000e+00 1.5250000e+01 
6.0000000e+00 0.0000000e+00 1.5500000e+01 
6.0000000e+00 0.0000000e+00 1.5750000e+01 
6.0000000e+00 0.0000000e+00 1.6000000e+01 
6.0000000e+00 0.0000000e+00 1.6250000e+01 
6.0000000e+00 0.0000000e+00 1.6500000e+01 
6.0000000e+00 0.0000000e+00 1.6750000e+01 
6.0000000e+00 0.0000000e+00 1.7000000e+01 
6.0000000e+00 0.0000000e+00 1.7250000e+01 
6.0000000e+00 0.0000000e+00 1.7500000e+01 
6.0000000e+00 0.0000000e+00 1.7750000e+01 
6.0000000e+00 0.0000000e+00 1.8000000e+01 

CELLS 216 648
2 0 1
2 1 2
2 2 3
2 3 4
2 4 5
2 5 6
2 6 7
2 7 8
2 8 9
2 9 10
2 10 11
2 11 12
2 12 13
2 13 14
2 14 15
2 15 16
2 16 17
2 17 18
2 18 19
2 19 20
2 20 21
2 21 22
2 22 23
2 23 24
2 24 25
2 25 26
2 26 27
2 27 28
2 28 29
2 29 30
2 30 31
2 31 32
2 32 33
2 33 34
2 34 35
2 35 36
2 36 37
2 37 38
2 38 39
2 39 40
2 40 41
2 41 42
2 42 43
2 43 44
2 44 45
2 45 46
2 46 47
2 47 48
2 48 49
2 49 50
2 50 51
2 51 52
2 52 53
2 53 54
2 54 55
2 55 56
2 56 57
2 57 58
2 58 59
2 59 60
2 60 61
2 61 62
2 62 63
2 63 64
2 64 65
2 65 66
2 66 67
2 67 68
2 68 69
2 69 70
2 70 71
2 71 72
2 139 140
2 140 141
2 141 142
2 142 143
2 143 144
2 144 145
2 145 146
2 146 147
2 147 148
2 148 149
2 149 150
2 150 151
2 151 152
2 152 153
2 153 154
2 154 155
2 155 156
2 156 157
2 157 158
2 158 159
2 159 160
2 160 161
2 161 162
2 162 163
2 163 164
2 164 165
2 165 166
2 166 167
2 167 168
2 168 169
2 169 170
2 170 171
2 171 172
2 172 173
2 173 174
2 174 175
2 175 176
2 176 177
2 177 178
2 178 179
2 179 180
2 180 181
2 181 182
2 182 183
2 183 184
2 184 185
2 185 186
2 186 187
2 187 188
2 188 189
2 189 190
2 190 191
2 191 192
2 192 193
2 193 194
2 194 195
2 195 196
2 196 197
2 197 198
2 198 199
2 199 200
2 200 201
2 201 202
2 202 203
2 203 204
2 204 205
2 205 206
2 206 207
2 207 208
2 208 209
2 209 210
2 210 211
2 12 73
2 73 79
2 79 85
2 85 91
2 91 97
2 97 103
2 103 109
2 109 115
2 115 121
2 121 127
2 127 133
2 133 151
2 24 74
2 74 80
2 80 86
2 86 92
2 92 98
2 98 104
2 104 110
2 110 116
2 116 122
2 122 128
2 128 134
2 134 163
2 36 75
2 75 81
2 81 87
2 87 93
2 93 99
2 99 105
2 105 111
2 111 117
2 117 123
2 123 129
2 129 135
2 135 175
2 48 76
2 76 82
2 82 88
2 88 94
2 94 100
2 100 106
2 106 112
2 112 118
2 118 124
2 124 130
2 130 136
2 136 187
2 60 77
2 77 83
2 83 89
2 89 95
2 95 101
2 101 107
2 107 113
2 113 119
2 119 125
2 125 131
2 131 137
2 137 199
2 72 78
2 78 84
2 84 90
2 90 96
2 96 102
2 102 108
2 108 114
2 114 120
2 120 126
2 126 132
2 132 138
2 138 211

CELL_TYPES 216
3
3
3
3
3
3
3
3
3
3
3
3
3
3
3
3
3
3
3
3
3
3
3
3
3
3
3
3
3
3
3
3
3
3
3
3
3
3
3
3
3
3
3
3
3
3
3
3
3
3
3
3
3
3
3
3
3
3
3
3
3
3
3
3
3
3
3
3
3
3
3
3
3
3
3
3
3
3
3
3
3
3
3
3
3
3
3
3
3
3
3
3
3
3
3
3
3
3
3
3
3
3
3
3
3
3
3
3
3
3
3
3
3
3
3
3
3
3
3
3
3
3
3
3
3
3
3
3
3
3
3
3
3
3
3
3
3
3
3
3
3
3
3
3
3
3
3
3
3
3
3
3
3
3
3
3
3
3
3
3
3
3
3
3
3
3
3
3
3
3
3
3
3
3
3
3
3
3
3
3
3
3
3
3
3
3
3
3
3
3
3
3
3
3
3
3
3
3
3
3
3
3
3
3
3
3
3
3
3
3
3
3
3
3
3
3
POINT_DATA 212
FIELD FieldData 8
DISPLACEMENT 3 212  float
0.0000000e+00 0.0000000e+00 0.0000000e+00 
-2.2417448e-06 0.0000000e+00 -4.4513476e-06 
-4.3931896e-06 0.0000000e+00 -8.8720799e-06 
-6.3640346e-06 0.0000000e+00 -1.3262198e-05 
-8.0639793e-06 0.0000000e+00 -1.7621700e-05 
-9.4027246e-06 0.0000000e+00 -2.1950587e-05 
-1.0289968e-05 0.0000000e+00 -2.6248859e-05 
-1.0635414e-05 0.0000000e+00 -3.0516516e-05 
-1.0348758e-05 0.0000000e+00 -3.4753557e-05 
-9.3397030e-06 0.0000000e+00 -3.8959985e-05 
-7.5179469e-06 0.0000000e+00 -4.3135795e-05 
-4.7931912e-06 0.0000000e+00 -4.7280992e-05 
-1.0751355e-06 0.0000000e+00 -5.1395571e-05 
2.3038956e-06 0.0000000e+00 -5.5102479e-05 
4.1408466e-06 0.0000000e+00 -5.8778765e-05 
4.7199219e-06 0.0000000e+00 -6.2424442e-05 
4.3253262e-06 0.0000000e+00 -6.6039502e-05 
3.2412636e-06 0.0000000e+00 -6.9623944e-05 
1.7519388e-06 0.0000000e+00 -7.3177776e-05 
1.4155599e-07 0.0000000e+00 -7.6700991e-05 
-1.3056804e-06 0.0000000e+00 -8.0193589e-05 
-2.3055659e-06 0.0000000e+00 -8.3655570e-05 
-2.5738959e-06 0.0000000e+00 -8.7086941e-05 
-1.8264662e-06 0.0000000e+00 -9.0487694e-05 
2.2092748e-07 0.0000000e+00 -9.3857831e-05 
2.3303778e-06 0.0000000e+00 -9.6820295e-05 
3.2374135e-06 0.0000000e+00 -9.9752142e-05 
3.1863940e-06 0.0000000e+00 -1.0265338e-04 
2.4216788e-06 0.0000000e+00 -1.0552399e-04 
1.1876272e-06 0.0000000e+00 -1.0836399e-04 
-2.7140152e-07 0.0000000e+00 -1.1117338e-04 
-1.7110477e-06 0.0000000e+00 -1.1395216e-04 
-2.8869522e-06 0.0000000e+00 -1.1670031e-04 
-3.5547557e-06 0.0000000e+00 -1.1941785e-04 
-3.4700984e-06 0.0000000e+00 -1.2210477e-04 
-2.3886214e-06 0.0000000e+00 -1.2476109e-04 
-6.5964954e-08 0.0000000e+00 -1.2738678e-04 
2.2384329e-06 0.0000000e+00 -1.2960480e-04 
3.2730657e-06 0.0000000e+00 -1.3179221e-04 
3.2941898e-06 0.0000000e+00 -1.3394900e-04 
2.5580616e-06 0.0000000e+00 -1.3607518e-04 
1.3209376e-06 0.0000000e+00 -1.3817073e-04 
-1.6092585e-07 0.0000000e+00 -1.4023567e-04 
-1.6312724e-06 0.0000000e+00 -1.4227000e-04 
-2.8338457e-06 0.0000000e+00 -1.4427373e-04 
-3.5123894e-06 0.0000000e+00 -1.4624682e-04 
-3.4106467e-06 0.0000000e+00 -1.4818930e-04 
-2.2723618e-06 0.0000000e+00 -1.5010117e-04 
1.5872197e-07 0.0000000e+00 -1.5198243e-04 
2.6340686e-06 0.0000000e+00 -1.5345600e-04 
3.8860571e-06 0.0000000e+00 -1.5489897e-04 
4.1423191e-06 0.0000000e+00 -1.5631130e-04 
3.6304837e-06 0.0000000e+00 -1.5769304e-04 
2.5781815e-06 0.0000000e+00 -1.5904415e-04 
1.2130433e-06 0.0000000e+00 -1.6036467e-04 
-2.3730087e-07 0.0000000e+00 -1.6165455e-04 
-1.5452207e-06 0.0000000e+00 -1.6291381e-04 
-2.4830856e-06 0.0000000e+00 -1.6414248e-04 
-2.8232657e-06 0.0000000e+00 -1.6534052e-04 
-2.3381303e-06 0.0000000e+00 -1.6650795e-04 
-8.0004912e-07 0.0000000e+00 -1.6764476e-04 
5.0003212e-07 0.0000000e+00 -1.6837388e-04 
3.6736225e-07 0.0000000e+00 -1.6907240e-04 
-8.2613678e-07 0.0000000e+00 -1.6974031e-04 
-2.7085430e-06 0.0000000e+00 -1.7037761e-04 
-4.9079345e-06 0.0000000e+00 -1.7098428e-04 
-7.0523893e-06 0.0000000e+00 -1.7156033e-04 
-8.7699855e-06 0.0000000e+00 -1.7210578e-04 
-9.6888007e-06 0.0000000e+00 -1.7262061e-04 
-9.4369134e-06 0.0000000e+00 -1.7310483e-04 
-7.6424012e-06 0.0000000e+00 -1.7355842e-04 
-3.9333431e-06 0.0000000e+00 -1.7398140e-04 
2.0621837e-06 0.0000000e+00 -1.7437377e-04 
-8.9594630e-07 0.0000000e+00 -6.4663385e-05 
1.8410623e-07 0.0000000e+00 -1.0446237e-04 
-5.4970798e-08 0.0000000e+00 -1.3841773e-04 
1.3226831e-07 0.0000000e+00 -1.6326674e-04 
-6.6670759e-07 0.0000000e+00 -1.7705455e-04 
1.7184865e-06 0.0000000e+00 -1.9317446e-04 
-7.1675703e-07 0.0000000e+00 -8.3679370e-05 
1.4728498e-07 0.0000000e+00 -1.2129932e-04 
-4.3976637e-08 0.0000000e+00 -1.5560356e-04 
1.0581465e-07 0.0000000e+00 -1.8065987e-04 
-5.3336612e-07 0.0000000e+00 -1.9291397e-04 
1.3747891e-06 0.0000000e+00 -2.1671734e-04 
-5.3756776e-07 0.0000000e+00 -1.0354722e-04 
1.1046374e-07 0.0000000e+00 -1.3947237e-04 
-3.2982477e-08 0.0000000e+00 -1.7404796e-04 
7.9360987e-08 0.0000000e+00 -1.9926552e-04 
-4.0002456e-07 0.0000000e+00 -2.1032672e-04 
1.0310919e-06 0.0000000e+00 -2.4010611e-04 
-3.5837851e-07 0.0000000e+00 -1.2045872e-04 
7.3642489e-08 0.0000000e+00 -1.5517327e-04 
-2.1988319e-08 0.0000000e+00 -1.8994270e-04 
5.2907325e-08 0.0000000e+00 -2.1527542e-04 
-2.6668306e-07 0.0000000e+00 -2.2548456e-04 
6.8739456e-07 0.0000000e+00 -2.5953253e-04 
-1.7918926e-07 0.0000000e+00 -1.3169368e-04 
3.6821245e-08 0.0000000e+00 -1.6568188e-04 
-1.0994159e-08 0.0000000e+00 -2.0056761e-04 
2.6453662e-08 0.0000000e+00 -2.2596943e-04 
-1.3334153e-07 0.0000000e+00 -2.3566734e-04 
3.4369728e-07 0.0000000e+00 -2.7227646e-04 
2.4678905e-17 0.0000000e+00 -1.3562001e-04 
3.8348444e-17 0.0000000e+00 -1.6936610e-04 
4.1419726e-17 0.0000000e+00 -2.0429058e-04 
2.4753236e-17 0.0000000e+00 -2.2971544e-04 
6.5355638e-19 0.0000000e+00 -2.3924295e-04 
-1.5783721e-17 0.0000000e+00 -2.7670577e-04 
1.7918926e-07 0.0000000e+00 -1.3169368e-04 
-3.6821245e-08 0.0000000e+00 -1.6568188e-04 
1.0994159e-08 0.0000000e+00 -2.0056761e-04 
-2.6453662e-08 0.0000000e+00 -2.2596943e-04 
1.3334153e-07 0.0000000e+00 -2.3566734e-04 
-3.4369728e-07 0.0000000e+00 -2.7227646e-04 
3.5837851e-07 0.0000000e+00 -1.2045872e-04 
-7.3642489e-08 0.0000000e+00 -1.5517327e-04 
2.1988319e-08 0.0000000e+00 -1.8994270e-04 
-5.2907325e-08 0.0000000e+00 -2.1527542e-04 
2.6668306e-07 0.0000000e+00 -2.2548456e-04 
-6.8739456e-07 0.0000000e+00 -2.5953253e-04 
5.3756776e-07 0.0000000e+00 -1.0354722e-04 
-1.1046374e-07 0.0000000e+00 -1.3947237e-04 
3.2982477e-08 0.0000000e+00 -1.7404796e-04 
-7.9360987e-08 0.0000000e+00 -1.9926552e-04 
4.0002456e-07 0.0000000e+00 -2.1032672e-04 
-1.0310919e-06 0.0000000e+00 -2.4010611e-04 
7.1675703e-07 0.0000000e+00 -8.3679370e-05 
-1.4728498e-07 0.0000000e+00 -1.2129932e-04 
4.3976637e-08 0.0000000e+00 -1.5560356e-04 
-1.0581465e-07 0.0000000e+00 -1.8065987e-04 
5.3336612e-07 0.0000000e+00 -1.9291397e-04 
-1.3747891e-06 0.0000000e+00 -2.1671734e-04 
8.9594630e-07 0.0000000e+00 -6.4663385e-05 
-1.8410623e-07 0.0000000e+00 -1.0446237e-04 
5.4970798e-08 0.0000000e+00 -1.3841773e-04 
-1.3226831e-07 0.0000000e+00 -1.6326674e-04 
6.6670759e-07 0.0000000e+00 -1.7705455e-04 
-1.7184865e-06 0.0000000e+00 -1.9317446e-04 
0.0000000e+00 0.0000000e+00 0.0000000e+00 
2.2417448e-06 0.0000000e+00 -4.4513476e-06 
4.3931896e-06 0.0000000e+00 -8.8720799e-06 
6.3640346e-06 0.0000000e+00 -1.3262198e-05 
8.0639793e-06 0.0000000e+00 -1.7621700e-05 
9.4027246e-06 0.0000000e+00 -2.1950587e-05 
1.0289968e-05 0.0000000e+00 -2.6248859e-05 
1.0635414e-05 0.0000000e+00 -3.0516516e-05 
1.0348758e-05 0.0000000e+00 -3.4753557e-05 
9.3397030e-06 0.0000000e+00 -3.8959985e-05 
7.5179469e-06 0.0000000e+00 -4.3135795e-05 
4.7931912e-06 0.0000000e+00 -4.7280992e-05 
1.0751355e-06 0.0000000e+00 -5.1395571e-05 
-2.3038956e-06 0.0000000e+00 -5.5102479e-05 
-4.1408466e-06 0.0000000e+00 -5.8778765e-05 
-4.7199219e-06 0.0000000e+00 -6.2424442e-05 
-4.3253262e-06 0.0000000e+00 -6.6039502e-05 
-3.2412636e-06 0.0000000e+00 -6.9623944e-05 
-1.7519388e-06 0.0000000e+00 -7.3177776e-05 
-1.4155599e-07 0.0000000e+00 -7.6700991e-05 
1.3056804e-06 0.0000000e+00 -8.0193589e-05 
2.3055659e-06 0.0000000e+00 -8.3655570e-05 
2.5738959e-06 0.0000000e+00 -8.7086941e-05 
1.8264662e-06 0.0000000e+00 -9.0487694e-05 
-2.2092748e-07 0.0000000e+00 -9.3857831e-05 
-2.3303778e-06 0.0000000e+00 -9.6820295e-05 
-3.2374135e-06 0.0000000e+00 -9.9752142e-05 
-3.1863940e-06 0.0000000e+00 -1.0265338e-04 
-2.4216788e-06 0.0000000e+00 -1.0552399e-04 
-1.1876272e-06 0.0000000e+00 -1.0836399e-04 
2.7140152e-07 0.0000000e+00 -1.1117338e-04 
1.7110477e-06 0.0000000e+00 -1.1395216e-04 
2.8869522e-06 0.0000000e+00 -1.1670031e-04 
3.5547557e-06 0.0000000e+00 -1.1941785e-04 
3.4700984e-06 0.0000000e+00 -1.2210477e-04 
2.3886214e-06 0.0000000e+00 -1.2476109e-04 
6.5964954e-08 0.0000000e+00 -1.2738678e-04 
-2.2384329e-06 0.0000000e+00 -1.2960480e-04 
-3.2730657e-06 0.0000000e+00 -1.3179221e-04 
-3.2941898e-06 0.0000000e+00 -1.3394900e-04 
-2.5580616e-06 0.0000000e+00 -1.3607518e-04 
-1.3209376e-06 0.0000000e+00 -1.3817073e-04 
1.6092585e-07 0.0000000e+00 -1.4023567e-04 
1.6312724e-06 0.0000000e+00 -1.4227000e-04 
2.8338457e-06 0.0000000e+00 -1.4427373e-04 
3.5123894e-06 0.0000000e+00 -1.4624682e-04 
3.4106467e-06 0.0000000e+00 -1.4818930e-04 
2.2723618e-06 0.0000000e+00 -1.5010117e-04 
-1.5872197e-07 0.0000000e+00 -1.5198243e-04 
-2.6340686e-06 0.0000000e+00 -1.5345600e-04 
-3.8860571e-06 0.0000000e+00 -1.5489897e-04 
-4.1423191e-06 0.0000000e+00 -1.5631130e-04 
-3.6304837e-06 0.0000000e+00 -1.5769304e-04 
-2.5781815e-06 0.0000000e+00 -1.5904415e-04 
-1.2130433e-06 0.0000000e+00 -1.6036467e-04 
2.3730087e-07 0.0000000e+00 -1.6165455e-04 
1.5452207e-06 0.0000000e+00 -1.6291381e-04 
2.4830856e-06 0.0000000e+00 -1.6414248e-04 
2.8232657e-06 0.0000000e+00 -1.6534052e-04 
2.3381303e-06 0.0000000e+00 -1.6650795e-04 
8.0004912e-07 0.0000000e+00 -1.6764476e-04 
-5.0003212e-07 0.0000000e+00 -1.6837388e-04 
-3.6736225e-07 0.0000000e+00 -1.6907240e-04 
8.2613678e-07 0.0000000e+00 -1.6974031e-04 
2.7085430e-06 0.0000000e+00 -1.7037761e-04 
4.9079345e-06 0.0000000e+00 -1.7098428e-04 
7.0523893e-06 0.0000000e+00 -1.7156033e-04 
8.7699855e-06 0.0000000e+00 -1.7210578e-04 
9.6888007e-06 0.0000000e+00 -1.7262061e-04 
9.4369134e-06 0.0000000e+00 -1.7310483e-04 
7.6424012e-06 0.0000000e+00 -1.7355842e-04 
3.9333431e-06 0.0000000e+00 -1.7398140e-04 
-2.0621837e-06 0.0000000e+00 -1.7437377e-04 
ROTATION 3 212  float
0.0000000e+00 -9.0271797e-06 0.0000000e+00 
0.0000000e+00 -8.8465795e-06 0.0000000e+00 
0.0000000e+00 -8.3047798e-06 0.0000000e+00 
0.0000000e+00 -7.4017794e-06 0.0000000e+00 
0.0000000e+00 -6.1375790e-06 0.0000000e+00 
0.0000000e+00 -4.5121792e-06 0.0000000e+00 
0.0000000e+00 -2.5255788e-06 0.0000000e+00 
0.0000000e+00 -1.7777849e-07 0.0000000e+00 
0.0000000e+00 2.5312218e-06 0.0000000e+00 
0.0000000e+00 5.6014223e-06 0.0000000e+00 
0.0000000e+00 9.0328222e-06 0.0000000e+00 
0.0000000e+00 1.2825423e-05 0.0000000e+00 
0.0000000e+00 1.6979224e-05 0.0000000e+00 
0.0000000e+00 1.0242495e-05 0.0000000e+00 
0.0000000e+00 4.6425835e-06 0.0000000e+00 
0.0000000e+00 1.7948972e-07 0.0000000e+00 
0.0000000e+00 -3.1467862e-06 0.0000000e+00 
0.0000000e+00 -5.3362446e-06 0.0000000e+00 
0.0000000e+00 -6.3888851e-06 0.0000000e+00 
0.0000000e+00 -6.3047078e-06 0.0000000e+00 
0.0000000e+00 -5.0837129e-06 0.0000000e+00 
0.0000000e+00 -2.7259007e-06 0.0000000e+00 
0.0000000e+00 7.6872936e-07 0.0000000e+00 
0.0000000e+00 5.4001771e-06 0.0000000e+00 
0.0000000e+00 1.1168443e-05 0.0000000e+00 
0.0000000e+00 5.8700657e-06 0.0000000e+00 
0.0000000e+00 1.5491263e-06 0.0000000e+00 
0.0000000e+00 -1.7943756e-06 0.0000000e+00 
0.0000000e+00 -4.1604399e-06 0.0000000e+00 
0.0000000e+00 -5.5490668e-06 0.0000000e+00 
0.0000000e+00 -5.9602562e-06 0.0000000e+00 
0.0000000e+00 -5.3940080e-06 0.0000000e+00 
0.0000000e+00 -3.8503222e-06 0.0000000e+00 
0.0000000e+00 -1.3291987e-06 0.0000000e+00 
0.0000000e+00 2.1693622e-06 0.0000000e+00 
0.0000000e+00 6.6453608e-06 0.0000000e+00 
0.0000000e+00 1.2098797e-05 0.0000000e+00 
0.0000000e+00 6.5072236e-06 0.0000000e+00 
0.0000000e+00 1.9406762e-06 0.0000000e+00 
0.0000000e+00 -1.6008456e-06 0.0000000e+00 
0.0000000e+00 -4.1173421e-06 0.0000000e+00 
0.0000000e+00 -5.6088124e-06 0.0000000e+00 
0.0000000e+00 -6.0752577e-06 0.0000000e+00 
0.0000000e+00 -5.5166774e-06 0.0000000e+00 
0.0000000e+00 -3.9330712e-06 0.0000000e+00 
0.0000000e+00 -1.3244398e-06 0.0000000e+00 
0.0000000e+00 2.3092173e-06 0.0000000e+00 
0.0000000e+00 6.9678999e-06 0.0000000e+00 
0.0000000e+00 1.2651608e-05 0.0000000e+00 
0.0000000e+00 7.3029173e-06 0.0000000e+00 
0.0000000e+00 2.8647473e-06 0.0000000e+00 
0.0000000e+00 -6.6290113e-07 0.0000000e+00 
0.0000000e+00 -3.2800283e-06 0.0000000e+00 
0.0000000e+00 -4.9866339e-06 0.0000000e+00 
0.0000000e+00 -5.7827183e-06 0.0000000e+00 
0.0000000e+00 -5.6682816e-06 0.0000000e+00 
0.0000000e+00 -4.6433233e-06 0.0000000e+00 
0.0000000e+00 -2.7078436e-06 0.0000000e+00 
0.0000000e+00 1.3815729e-07 0.0000000e+00 
0.0000000e+00 3.8946796e-06 0.0000000e+00 
0.0000000e+00 8.5617230e-06 0.0000000e+00 
0.0000000e+00 2.0868747e-06 0.0000000e+00 
0.0000000e+00 -2.9002858e-06 0.0000000e+00 
0.0000000e+00 -6.3997586e-06 0.0000000e+00 
0.0000000e+00 -8.4115436e-06 0.0000000e+00 
0.0000000e+00 -8.9356399e-06 0.0000000e+00 
0.0000000e+00 -7.9720494e-06 0.0000000e+00 
0.0000000e+00 -5.5207706e-06 0.0000000e+00 
0.0000000e+00 -1.5818042e-06 0.0000000e+00 
0.0000000e+00 3.8448502e-06 0.0000000e+00 
0.0000000e+00 1.0759192e-05 0.0000000e+00 
0.0000000e+00 1.9161222e-05 0.0000000e+00 
0.0000000e+00 2.9050940e-05 0.0000000e+00 
0.0000000e+00 3.4097244e-05 0.0000000e+00 
0.0000000e+00 2.9254927e-05 0.0000000e+00 
0.0000000e+00 3.0030222e-05 0.0000000e+00 
0.0000000e+00 3.0490897e-05 0.0000000e+00 
0.0000000e+00 2.7082660e-05 0.0000000e+00 
0.0000000e+00 4.4157008e-05 0.0000000e+00 
0.0000000e+00 4.0334595e-05 0.0000000e+00 
0.0000000e+00 3.6460740e-05 0.0000000e+00 
0.0000000e+00 3.7080979e-05 0.0000000e+00 
0.0000000e+00 3.7449518e-05 0.0000000e+00 
0.0000000e+00 3.4722929e-05 0.0000000e+00 
0.0000000e+00 4.8382408e-05 0.0000000e+00 
0.0000000e+00 3.7867412e-05 0.0000000e+00 
0.0000000e+00 3.4962024e-05 0.0000000e+00 
0.0000000e+00 3.5427202e-05 0.0000000e+00 
0.0000000e+00 3.5703608e-05 0.0000000e+00 
0.0000000e+00 3.3658664e-05 0.0000000e+00 
0.0000000e+00 4.3903274e-05 0.0000000e+00 
0.0000000e+00 2.8871831e-05 0.0000000e+00 
0.0000000e+00 2.6934906e-05 0.0000000e+00 
0.0000000e+00 2.7245023e-05 0.0000000e+00 
0.0000000e+00 2.7429294e-05 0.0000000e+00 
0.0000000e+00 2.6065998e-05 0.0000000e+00 
0.0000000e+00 3.2895736e-05 0.0000000e+00 
0.0000000e+00 1.5523983e-05 0.0000000e+00 
0.0000000e+00 1.4555520e-05 0.0000000e+00 
0.0000000e+00 1.4710578e-05 0.0000000e+00 
0.0000000e+00 1.4802714e-05 0.0000000e+00 
0.0000000e+00 1.4121066e-05 0.0000000e+00 
0.0000000e+00 1.7535935e-05 0.0000000e+00 
0.0000000e+00 -4.0401503e-18 0.0000000e+00 
0.0000000e+00 -3.3435726e-18 0.0000000e+00 
0.0000000e+00 -2.0897329e-18 0.0000000e+00 
0.0000000e+00 1.9504172e-18 0.0000000e+00 
0.0000000e+00 -1.5324708e-18 0.0000000e+00 
0.0000000e+00 1.7017478e-18 0.0000000e+00 
0.0000000e+00 -1.5523983e-05 0.0000000e+00 
0.0000000e+00 -1.4555520e-05 0.0000000e+00 
0.0000000e+00 -1.4710578e-05 0.0000000e+00 
0.0000000e+00 -1.4802714e-05 0.0000000e+00 
0.0000000e+00 -1.4121066e-05 0.0000000e+00 
0.0000000e+00 -1.7535935e-05 0.0000000e+00 
0.0000000e+00 -2.8871831e-05 0.0000000e+00 
0.0000000e+00 -2.6934906e-05 0.0000000e+00 
0.0000000e+00 -2.7245023e-05 0.0000000e+00 
0.0000000e+00 -2.7429294e-05 0.0000000e+00 
0.0000000e+00 -2.6065998e-05 0.0000000e+00 
0.0000000e+00 -3.2895736e-05 0.0000000e+00 
0.0000000e+00 -3.7867412e-05 0.0000000e+00 
0.0000000e+00 -3.4962024e-05 0.0000000e+00 
0.0000000e+00 -3.5427202e-05 0.0000000e+00 
0.0000000e+00 -3.5703608e-05 0.0000000e+00 
0.0000000e+00 -3.3658664e-05 0.0000000e+00 
0.0000000e+00 -4.3903274e-05 0.0000000e+00 
0.0000000e+00 -4.0334595e-05 0.0000000e+00 
0.0000000e+00 -3.6460740e-05 0.0000000e+00 
0.0000000e+00 -3.7080979e-05 0.0000000e+00 
0.0000000e+00 -3.7449518e-05 0.0000000e+00 
0.0000000e+00 -3.4722929e-05 0.0000000e+00 
0.0000000e+00 -4.8382408e-05 0.0000000e+00 
0.0000000e+00 -3.4097244e-05 0.0000000e+00 
0.0000000e+00 -2.9254927e-05 0.0000000e+00 
0.0000000e+00 -3.0030222e-05 0.0000000e+00 
0.0000000e+00 -3.0490897e-05 0.0000000e+00 
0.0000000e+00 -2.7082660e-05 0.0000000e+00 
0.0000000e+00 -4.4157008e-05 0.0000000e+00 
0.0000000e+00 9.0271797e-06 0.0000000e+00 
0.0000000e+00 8.8465795e-06 0.0000000e+00 
0.0000000e+00 8.3047798e-06 0.0000000e+00 
0.0000000e+00 7.4017794e-06 0.0000000e+00 
0.0000000e+00 6.1375790e-06 0.0000000e+00 
0.0000000e+00 4.5121792e-06 0.0000000e+00 
0.0000000e+00 2.5255788e-06 0.0000000e+00 
0.0000000e+00 1.7777849e-07 0.0000000e+00 
0.0000000e+00 -2.5312218e-06 0.0000000e+00 
0.0000000e+00 -5.6014223e-06 0.0000000e+00 
0.0000000e+00 -9.0328222e-06 0.0000000e+00 
0.0000000e+00 -1.2825423e-05 0.0000000e+00 
0.0000000e+00 -1.6979224e-05 0.0000000e+00 
0.0000000e+00 -1.0242495e-05 0.0000000e+00 
0.0000000e+00 -4.6425835e-06 0.0000000e+00 
0.0000000e+00 -1.7948972e-07 0.0000000e+00 
0.0000000e+00 3.1467862e-06 0.0000000e+00 
0.0000000e+00 5.3362446e-06 0.0000000e+00 
0.0000000e+00 6.3888851e-06 0.0000000e+00 
0.0000000e+00 6.3047078e-06 0.0000000e+00 
0.0000000e+00 5.0837129e-06 0.0000000e+00 
0.0000000e+00 2.7259007e-06 0.0000000e+00 
0.0000000e+00 -7.6872936e-07 0.0000000e+00 
0.0000000e+00 -5.4001771e-06 0.0000000e+00 
0.0000000e+00 -1.1168443e-05 0.0000000e+00 
0.0000000e+00 -5.8700657e-06 0.0000000e+00 
0.0000000e+00 -1.5491263e-06 0.0000000e+00 
0.0000000e+00 1.7943756e-06 0.0000000e+00 
0.0000000e+00 4.1604399e-06 0.0000000e+00 
0.0000000e+00 5.5490668e-06 0.0000000e+00 
0.0000000e+00 5.9602562e-06 0.0000000e+00 
0.0000000e+00 5.3940080e-06 0.0000000e+00 
0.0000000e+00 3.8503222e-06 0.0000000e+00 
0.0000000e+00 1.3291987e-06 0.0000000e+00 
0.0000000e+00 -2.1693622e-06 0.0000000e+00 
0.0000000e+00 -6.6453608e-06 0.0000000e+00 
0.0000000e+00 -1.2098797e-05 0.0000000e+00 
0.0000000e+00 -6.5072236e-06 0.0000000e+00 
0.0000000e+00 -1.9406762e-06 0.0000000e+00 
0.0000000e+00 1.6008456e-06 0.0000000e+00 
0.0000000e+00 4.1173421e-06 0.0000000e+00 
0.0000000e+00 5.6088124e-06 0.0000000e+00 
0.0000000e+00 6.0752577e-06 0.0000000e+00 
0.0000000e+00 5.5166774e-06 0.0000000e+00 
0.0000000e+00 3.9330712e-06 0.0000000e+00 
0.0000000e+00 1.3244398e-06 0.0000000e+00 
0.0000000e+00 -2.3092173e-06 0.0000000e+00 
0.0000000e+00 -6.9678999e-06 0.0000000e+00 
0.0000000e+00 -1.2651608e-05 0.0000000e+00 
0.0000000e+00 -7.3029173e-06 0.0000000e+00 
0.0000000e+00 -2.8647473e-06 0.0000000e+00 
0.0000000e+00 6.6290113e-07 0.0000000e+00 
0.0000000e+00 3.2800283e-06 0.0000000e+00 
0.0000000e+00 4.9866339e-06 0.0000000e+00 
0.0000000e+00 5.7827183e-06 0.0000000e+00 
0.0000000e+00 5.6682816e-06 0.0000000e+00 
0.0000000e+00 4.6433233e-06 0.0000000e+00 
0.0000000e+00 2.7078436e-06 0.0000000e+00 
0.0000000e+00 -1.3815729e-07 0.0000000e+00 
0.0000000e+00 -3.8946796e-06 0.0000000e+00 
0.0000000e+00 -8.5617230e-06 0.0000000e+00 
0.0000000e+00 -2.0868747e-06 0.0000000e+00 
0.0000000e+00 2.9002858e-06 0.0000000e+00 
0.0000000e+00 6.3997586e-06 0.0000000e+00 
0.0000000e+00 8.4115436e-06 0.0000000e+00 