# vtk DataFile Version 4.0
vtk output
ASCII
DATASET UNSTRUCTURED_GRID
POINTS 212 float
0.0000000e+00 0.0000000e+00 0.0000000e+00 
0.0000000e+00 0.0000000e+00 2.5000000e-01 
0.0000000e+00 0.0000000e+00 5.0000000e-01 
0.0000000e+00 0.0000000e+00 7.5000000e-01 
0.0000000e+00 0.0000000e+00 1.0000000e+00 
0.0000000e+00 0.0000000e+00 1.2500000e+00 
0.0000000e+00 0.0000000e+00 1.5000000e+00 
0.0000000e+00 0.0000000e+00 1.7500000e+00 
0.0000000e+00 0.0000000e+00 2.0000000e+00 
0.0000000e+00 0.0000000e+00 2.2500000e+00 
0.0000000e+00 0.0000000e+00 2.5000000e+00 
0.0000000e+00 0.0000000e+00 2.7500000e+00 
0.0000000e+00 0.0000000e+00 3.0000000e+00 
0.0000000e+00 0.0000000e+00 3.2500000e+00 
0.0000000e+00 0.0000000e+00 3.5000000e+00 
0.0000000e+00 0.0000000e+00 3.7500000e+00 
0.0000000e+00 0.0000000e+00 4.0000000e+00 
0.0000000e+00 0.0000000e+00 4.2500000e+00 
0.0000000e+00 0.0000000e+00 4.5000000e+00 
0.0000000e+00 0.0000000e+00 4.7500000e+00 
0.0000000e+00 0.0000000e+00 5.0000000e+00 
0.0000000e+00 0.0000000e+00 5.2500000e+00 
0.0000000e+00 0.0000000e+00 5.5000000e+00 
0.0000000e+00 0.0000000e+00 5.7500000e+00 
0.0000000e+00 0.0000000e+00 6.0000000e+00 
0.0000000e+00 0.0000000e+00 6.2500000e+00 
0.0000000e+00 0.0000000e+00 6.5000000e+00 
0.0000000e+00 0.0000000e+00 6.7500000e+00 
0.0000000e+00 0.0000000e+00 7.0000000e+00 
0.0000000e+00 0.0000000e+00 7.2500000e+00 
0.0000000e+00 0.0000000e+00 7.5000000e+00 
0.0000000e+00 0.0000000e+00 7.7500000e+00 
0.0000000e+00 0.0000000e+00 8.0000000e+00 
0.0000000e+00 0.0000000e+00 8.2500000e+00 
0.0000000e+00 0.0000000e+00 8.5000000e+00 
0.0000000e+00 0.0000000e+00 8.7500000e+00 
0.0000000e+00 0.0000000e+00 9.0000000e+00 
0.0000000e+00 0.0000000e+00 9.2500000e+00 
0.0000000e+00 0.0000000e+00 9.5000000e+00 
0.0000000e+00 0.0000000e+00 9.7500000e+00 
0.0000000e+00 0.0000000e+00 1.0000000e+01 
0.0000000e+00 0.0000000e+00 1.0250000e+01 
0.0000000e+00 0.0000000e+00 1.0500000e+01 
0.0000000e+00 0.0000000e+00 1.0750000e+01 
0.0000000e+00 0.0000000e+00 1.1000000e+01 
0.0000000e+00 0.0000000e+00 1.1250000e+01 
0.0000000e+00 0.0000000e+00 1.1500000e+01 
0.0000000e+00 0.0000000e+00 1.1750000e+01 
0.0000000e+00 0.0000000e+00 1.2000000e+01 
0.0000000e+00 0.0000000e+00 1.2250000e+01 
0.0000000e+00 0.0000000e+00 1.2500000e+01 
0.0000000e+00 0.0000000e+00 1.2750000e+01 
0.0000000e+00 0.0000000e+00 1.3000000e+01 
0.0000000e+00 0.0000000e+00 1.3250000e+01 
0.0000000e+00 0.0000000e+00 1.3500000e+01 
0.0000000e+00 0.0000000e+00 1.3750000e+01 
0.0000000e+00 0.0000000e+00 1.4000000e+01 
0.0000000e+00 0.0000000e+00 1.4250000e+01 
0.0000000e+00 0.0000000e+00 1.4500000e+01 
0.0000000e+00 0.0000000e+00 1.4750000e+01 
0.0000000e+00 0.0000000e+00 1.5000000e+01 
0.0000000e+00 0.0000000e+00 1.5250000e+01 
0.0000000e+00 0.0000000e+00 1.5500000e+01 
0.0000000e+00 0.0000000e+00 1.5750000e+01 
0.0000000e+00 0.0000000e+00 1.6000000e+01 
0.0000000e+00 0.0000000e+00 1.6250000e+01 
0.0000000e+00 0.0000000e+00 1.6500000e+01 
0.0000000e+00 0.0000000e+00 1.6750000e+01 
0.0000000e+00 0.0000000e+00 1.7000000e+01 
0.0000000e+00 0.0000000e+00 1.7250000e+01 
0.0000000e+00 0.0000000e+00 1.7500000e+01 
0.0000000e+00 0.0000000e+00 1.7750000e+01 
0.0000000e+00 0.0000000e+00 1.8000000e+01 
5.0000000e-01 0.0000000e+00 3.0000000e+00 
5.0000000e-01 0.0000000e+00 6.0000000e+00 
5.0000000e-01 0.0000000e+00 9.0000000e+00 
5.0000000e-01 0.0000000e+00 1.2000000e+01 
5.0000000e-01 0.0000000e+00 1.5000000e+01 
5.0000000e-01 0.0000000e+00 1.8000000e+01 
1.0000000e+00 0.0000000e+00 3.0000000e+00 
1.0000000e+00 0.0000000e+00 6.0000000e+00 
1.0000000e+00 0.0000000e+00 9.0000000e+00 
1.0000000e+00 0.0000000e+00 1.2000000e+01 
1.0000000e+00 0.0000000e+00 1.5000000e+01 
1.0000000e+00 0.0000000e+00 1.8000000e+01 
1.5000000e+00 0.0000000e+00 3.0000000e+00 
1.5000000e+00 0.0000000e+00 6.0000000e+00 
1.5000000e+00 0.0000000e+00 9.0000000e+00 
1.5000000e+00 0.0000000e+00 1.2000000e+01 
1.5000000e+00 0.0000000e+00 1.5000000e+01 
1.5000000e+00 0.0000000e+00 1.8000000e+01 
2.0000000e+00 0.0000000e+00 3.0000000e+00 
2.0000000e+00 0.0000000e+00 6.0000000e+00 
2.0000000e+00 0.0000000e+00 9.0000000e+00 
2.0000000e+00 0.0000000e+00 1.2000000e+01 
2.0000000e+00 0.0000000e+00 1.5000000e+01 
2.0000000e+00 0.0000000e+00 1.8000000e+01 
2.5000000e+00 0.0000000e+00 3.0000000e+00 
2.5000000e+00 0.0000000e+00 6.0000000e+00 
2.5000000e+00 0.0000000e+00 9.0000000e+00 
2.5000000e+00 0.0000000e+00 1.2000000e+01 
2.5000000e+00 0.0000000e+00 1.5000000e+01 
2.5000000e+00 0.0000000e+00 1.8000000e+01 
3.0000000e+00 0.0000000e+00 3.0000000e+00 
3.0000000e+00 0.0000000e+00 6.0000000e+00 
3.0000000e+00 0.0000000e+00 9.0000000e+00 
3.0000000e+00 0.0000000e+00 1.2000000e+01 
3.0000000e+00 0.0000000e+00 1.5000000e+01 
3.0000000e+00 0.0000000e+00 1.8000000e+01 
3.5000000e+00 0.0000000e+00 3.0000000e+00 
3.5000000e+00 0.0000000e+00 6.0000000e+00 
3.5000000e+00 0.0000000e+00 9.0000000e+00 
3.5000000e+00 0.0000000e+00 1.2000000e+01 
3.5000000e+00 0.0000000e+00 1.5000000e+01 
3.5000000e+00 0.0000000e+00 1.8000000e+01 
4.0000000e+00 0.0000000e+00 3.0000000e+00 
4.0000000e+00 0.0000000e+00 6.0000000e+00 
4.0000000e+00 0.0000000e+00 9.0000000e+00 
4.0000000e+00 0.0000000e+00 1.2000000e+01 
4.0000000e+00 0.0000000e+00 1.5000000e+01 
4.0000000e+00 0.0000000e+00 1.8000000e+01 
4.5000000e+00 0.0000000e+00 3.0000000e+00 
4.5000000e+00 0.0000000e+00 6.0000000e+00 
4.5000000e+00 0.0000000e+00 9.0000000e+00 
4.5000000e+00 0.0000000e+00 1.2000000e+01 
4.5000000e+00 0.0000000e+00 1.5000000e+01 
4.5000000e+00 0.0000000e+00 1.8000000e+01 
5.0000000e+00 0.0000000e+00 3.0000000e+00 
5.0000000e+00 0.0000000e+00 6.0000000e+00 
5.0000000e+00 0.0000000e+00 9.0000000e+00 
5.0000000e+00 0.0000000e+00 1.2000000e+01 
5.0000000e+00 0.0000000e+00 1.5000000e+01 
5.0000000e+00 0.0000000e+00 1.8000000e+01 
5.5000000e+00 0.0000000e+00 3.0000000e+00 
5.5000000e+00 0.0000000e+00 6.0000000e+00 
5.5000000e+00 0.0000000e+00 9.0000000e+00 
5.5000000e+00 0.0000000e+00 1.2000000e+01 
5.5000000e+00 0.0000000e+00 1.5000000e+01 
5.5000000e+00 0.0000000e+00 1.8000000e+01 
6.0000000e+00 0.0000000e+00 0.0000000e+00 
6.0000000e+00 0.0000000e+00 2.5000000e-01 
6.0000000e+00 0.0000000e+00 5.0000000e-01 
6.0000000e+00 0.0000000e+00 7.5000000e-01 
6.0000000e+00 0.0000000e+00 1.0000000e+00 
6.0000000e+00 0.0000000e+00 1.2500000e+00 
6.0000000e+00 0.0000000e+00 1.5000000e+00 
6.0000000e+00 0.0000000e+00 1.7500000e+00 
6.0000000e+00 0.0000000e+00 2.0000000e+00 
6.0000000e+00 0.0000000e+00 2.2500000e+00 
6.0000000e+00 0.0000000e+00 2.5000000e+00 
6.0000000e+00 0.0000000e+00 2.7500000e+00 
6.0000000e+00 0.0000000e+00 3.0000000e+00 
6.0000000e+00 0.0000000e+00 3.2500000e+00 
6.0000000e+00 0.0000000e+00 3.5000000e+00 
6.0000000e+00 0.0000000e+00 3.7500000e+00 
6.0000000e+00 0.0000000e+00 4.0000000e+00 
6.0000000e+00 0.0000000e+00 4.2500000e+00 
6.0000000e+00 0.0000000e+00 4.5000000e+00 
6.0000000e+00 0.0000000e+00 4.7500000e+00 
6.0000000e+00 0.0000000e+00 5.0000000e+00 
6.0000000e+00 0.0000000e+00 5.2500000e+00 
6.0000000e+00 0.0000000e+00 5.5000000e+00 
6.0000000e+00 0.0000000e+00 5.7500000e+00 
6.0000000e+00 0.0000000e+00 6.0000000e+00 
6.0000000e+00 0.0000000e+00 6.2500000e+00 
6.0000000e+00 0.0000000e+00 6.5000000e+00 
6.0000000e+00 0.0000000e+00 6.7500000e+00 
6.0000000e+00 0.0000000e+00 7.0000000e+00 
6.0000000e+00 0.0000000e+00 7.2500000e+00 
6.0000000e+00 0.0000000e+00 7.5000000e+00 
6.0000000e+00 0.0000000e+00 7.7500000e+00 
6.0000000e+00 0.0000000e+00 8.0000000e+00 
6.0000000e+00 0.0000000e+00 8.2500000e+00 
6.0000000e+00 0.0000000e+00 8.5000000e+00 
6.0000000e+00 0.0000000e+00 8.7500000e+00 
6.0000000e+00 0.0000000e+00 9.0000000e+00 
6.0000000e+00 0.0000000e+00 9.2500000e+00 
6.0000000e+00 0.0000000e+00 9.5000000e+00 
6.0000000e+00 0.0000000e+00 9.7500000e+00 
6.0000000e+00 0.0000000e+00 1.0000000e+01 
6.0000000e+00 0.0000000e+00 1.0250000e+01 
6.0000000e+00 0.0000000e+00 1.0500000e+01 
6.0000000e+00 0.0000000e+00 1.0750000e+01 
6.0000000e+00 0.0000000e+00 1.1000000e+01 
6.0000000e+00 0.0000000e+00 1.1250000e+01 
6.0000000e+00 0.0000000e+00 1.1500000e+01 
6.0000000e+00 0.0000000e+00 1.1750000e+01 
6.0000000e+00 0.0000000e+00 1.2000000e+01 
6.0000000e+00 0.0000000e+00 1.2250000e+01 
6.0000000e+00 0.0000000e+00 1.2500000e+01 
6.0000000e+00 0.0000000e+00 1.2750000e+01 
6.0000000e+00 0.0000000e+00 1.3000000e+01 
6.0000000e+00 0.0000000e+00 1.3250000e+01 
6.0000000e+00 0.0000000e+00 1.3500000e+01 
6.0000000e+00 0.0000000e+00 1.3750000e+01 
6.0000000e+00 0.0000000e+00 1.4000000e+01 
6.0000000e+00 0.0000000e+00 1.4250000e+01 
6.0000000e+00 0.0000000e+00 1.4500000e+01 
6.0000000e+00 0.0000000e+00 1.4750000e+01 
6.0000000e+00 0.0000000e+00 1.5000000e+01 
6.0000000e+00 0.0000000e+00 1.5250000e+01 
6.0000000e+00 0.0000000e+00 1.5500000e+01 
6.0000000e+00 0.0000000e+00 1.5750000e+01 
6.0000000e+00 0.0000000e+00 1.6000000e+01 
6.0000000e+00 0.0000000e+00 1.6250000e+01 
6.0000000e+00 0.0000000e+00 1.6500000e+01 
6.0000000e+00 0.0000000e+00 1.6750000e+01 
6.0000000e+00 0.0000000e+00 1.7000000e+01 
6.0000000e+00 0.0000000e+00 1.7250000e+01 
6.0000000e+00 0.0000000e+00 1.7500000e+01 
6.0000000e+00 0.0000000e+00 1.7750000e+01 
6.0000000e+00 0.0000000e+00 1.8000000e+01 

CELLS 216 648
2 0 1
2 1 2
2 2 3
2 3 4
2 4 5
2 5 6
2 6 7
2 7 8
2 8 9
2 9 10
2 10 11
2 11 12
2 12 13
2 13 14
2 14 15
2 15 16
2 16 17
2 17 18
2 18 19
2 19 20
2 20 21
2 21 22
2 22 23
2 23 24
2 24 25
2 25 26
2 26 27
2 27 28
2 28 29
2 29 30
2 30 31
2 31 32
2 32 33
2 33 34
2 34 35
2 35 36
2 36 37
2 37 38
2 38 39
2 39 40
2 40 41
2 41 42
2 42 43
2 43 44
2 44 45
2 45 46
2 46 47
2 47 48
2 48 49
2 49 50
2 50 51
2 51 52
2 52 53
2 53 54
2 54 55
2 55 56
2 56 57
2 57 58
2 58 59
2 59 60
2 60 61
2 61 62
2 62 63
2 63 64
2 64 65
2 65 66
2 66 67
2 67 68
2 68 69
2 69 70
2 70 71
2 71 72
2 139 140
2 140 141
2 141 142
2 142 143
2 143 144
2 144 145
2 145 146
2 146 147
2 147 148
2 148 149
2 149 150
2 150 151
2 151 152
2 152 153
2 153 154
2 154 155
2 155 156
2 156 157
2 157 158
2 158 159
2 159 160
2 160 161
2 161 162
2 162 163
2 163 164
2 164 165
2 165 166
2 166 167
2 167 168
2 168 169
2 169 170
2 170 171
2 171 172
2 172 173
2 173 174
2 174 175
2 175 176
2 176 177
2 177 178
2 178 179
2 179 180
2 180 181
2 181 182
2 182 183
2 183 184
2 184 185
2 185 186
2 186 187
2 187 188
2 188 189
2 189 190
2 190 191
2 191 192
2 192 193
2 193 194
2 194 195
2 195 196
2 196 197
2 197 198
2 198 199
2 199 200
2 200 201
2 201 202
2 202 203
2 203 204
2 204 205
2 205 206
2 206 207
2 207 208
2 208 209
2 209 210
2 210 211
2 12 73
2 73 79
2 79 85
2 85 91
2 91 97
2 97 103
2 103 109
2 109 115
2 115 121
2 121 127
2 127 133
2 133 151
2 24 74
2 74 80
2 80 86
2 86 92
2 92 98
2 98 104
2 104 110
2 110 116
2 116 122
2 122 128
2 128 134
2 134 163
2 36 75
2 75 81
2 81 87
2 87 93
2 93 99
2 99 105
2 105 111
2 111 117
2 117 123
2 123 129
2 129 135
2 135 175
2 48 76
2 76 82
2 82 88
2 88 94
2 94 100
2 100 106
2 106 112
2 112 118
2 118 124
2 124 130
2 130 136
2 136 187
2 60 77
2 77 83
2 83 89
2 89 95
2 95 101
2 101 107
2 107 113
2 113 119
2 119 125
2 125 131
2 131 137
2 137 199
2 72 78
2 78 84
2 84 90
2 90 96
2 96 102
2 102 108
2 108 114
2 114 120
2 120 126
2 126 132
2 132 138
2 138 211

CELL_TYPES 216
3
3
3
3
3
3
3
3
3
3
3
3
3
3
3
3
3
3
3
3
3
3
3
3
3
3
3
3
3
3
3
3
3
3
3
3
3
3
3
3
3
3
3
3
3
3
3
3
3
3
3
3
3
3
3
3
3
3
3
3
3
3
3
3
3
3
3
3
3
3
3
3
3
3
3
3
3
3
3
3
3
3
3
3
3
3
3
3
3
3
3
3
3
3
3
3
3
3
3
3
3
3
3
3
3
3
3
3
3
3
3
3
3
3
3
3
3
3
3
3
3
3
3
3
3
3
3
3
3
3
3
3
3
3
3
3
3
3
3
3
3
3
3
3
3
3
3
3
3
3
3
3
3
3
3
3
3
3
3
3
3
3
3
3
3
3
3
3
3
3
3
3
3
3
3
3
3
3
3
3
3
3
3
3
3
3
3
3
3
3
3
3
3
3
3
3
3
3
3
3
3
3
3
3
3
3
3
3
3
3
3
3
3
3
3
3
POINT_DATA 212
FIELD FieldData 8
DISPLACEMENT 3 212  float
0.0000000e+00 0.0000000e+00 0.0000000e+00 
-1.1805405e-05 0.0000000e+00 -3.1402787e-06 
-2.3118200e-05 0.0000000e+00 -6.2587369e-06 
-3.3445773e-05 0.0000000e+00 -9.3553745e-06 
-4.2295513e-05 0.0000000e+00 -1.2430191e-05 
-4.9174811e-05 0.0000000e+00 -1.5483187e-05 
-5.3591055e-05 0.0000000e+00 -1.8514364e-05 
-5.5051634e-05 0.0000000e+00 -2.1523718e-05 
-5.3063937e-05 0.0000000e+00 -2.4511253e-05 
-4.7135352e-05 0.0000000e+00 -2.7476966e-05 
-3.6773272e-05 0.0000000e+00 -3.0420859e-05 
-2.1485084e-05 0.0000000e+00 -3.3342931e-05 
-7.7817782e-07 0.0000000e+00 -3.6243182e-05 
1.7879887e-05 0.0000000e+00 -3.8858263e-05 
2.7770984e-05 0.0000000e+00 -4.1451523e-05 
3.0511872e-05 0.0000000e+00 -4.4022963e-05 
2.7719308e-05 0.0000000e+00 -4.6572583e-05 
2.1010057e-05 0.0000000e+00 -4.9100381e-05 
1.2000874e-05 0.0000000e+00 -5.1606356e-05 
2.3085206e-06 0.0000000e+00 -5.4090513e-05 
-6.4502437e-06 0.0000000e+00 -5.6552850e-05 
-1.2658659e-05 0.0000000e+00 -5.8993366e-05 
-1.4699966e-05 0.0000000e+00 -6.1412058e-05 
-1.0957407e-05 0.0000000e+00 -6.3808933e-05 
1.8578164e-07 0.0000000e+00 -6.6183988e-05 
1.1812513e-05 0.0000000e+00 -6.8273868e-05 
1.6826783e-05 0.0000000e+00 -7.0341935e-05 
1.6576974e-05 0.0000000e+00 -7.2388175e-05 
1.2411469e-05 0.0000000e+00 -7.4412594e-05 
5.6786453e-06 0.0000000e+00 -7.6415192e-05 
-2.2731144e-06 0.0000000e+00 -7.8395969e-05 
-1.0095428e-05 0.0000000e+00 -8.0354934e-05 
-1.6439917e-05 0.0000000e+00 -8.2292070e-05 
-1.9958197e-05 0.0000000e+00 -8.4207386e-05 
-1.9301888e-05 0.0000000e+00 -8.6100881e-05 
-1.3122611e-05 0.0000000e+00 -8.7972556e-05 
-7.1982100e-08 0.0000000e+00 -8.9822417e-05 
1.2791317e-05 0.0000000e+00 -9.1387097e-05 
1.8477931e-05 0.0000000e+00 -9.2929964e-05 
1.8440225e-05 0.0000000e+00 -9.4451003e-05 
1.4130565e-05 0.0000000e+00 -9.5950229e-05 
7.0013175e-06 0.0000000e+00 -9.7427626e-05 
-1.4951530e-06 0.0000000e+00 -9.8883211e-05 
-9.9064800e-06 0.0000000e+00 -1.0031697e-04 
-1.6780297e-05 0.0000000e+00 -1.0172891e-04 
-2.0664240e-05 0.0000000e+00 -1.0311903e-04 
-2.0105941e-05 0.0000000e+00 -1.0448733e-04 
-1.3653037e-05 0.0000000e+00 -1.0583381e-04 
1.4684092e-07 0.0000000e+00 -1.0715846e-04 
1.4328883e-05 0.0000000e+00 -1.0819795e-04 
2.1786864e-05 0.0000000e+00 -1.0921562e-04 
2.3761026e-05 0.0000000e+00 -1.1021146e-04 
2.1491607e-05 0.0000000e+00 -1.1118548e-04 
1.6218850e-05 0.0000000e+00 -1.1213768e-04 
9.1829961e-06 0.0000000e+00 -1.1306807e-04 
1.6242841e-06 0.0000000e+00 -1.1397663e-04 
-5.2170440e-06 0.0000000e+00 -1.1486337e-04 
-1.0100748e-05 0.0000000e+00 -1.1572830e-04 
-1.1786587e-05 0.0000000e+00 -1.1657139e-04 
-9.0343201e-06 0.0000000e+00 -1.1739267e-04 
-6.0370724e-07 0.0000000e+00 -1.1819213e-04 
6.2475960e-06 0.0000000e+00 -1.1870642e-04 
4.8433408e-06 0.0000000e+00 -1.1919888e-04 
-2.7041228e-06 0.0000000e+00 -1.1966954e-04 
-1.4282444e-05 0.0000000e+00 -1.2011836e-04 
-2.7779270e-05 0.0000000e+00 -1.2054537e-04 
-4.1082254e-05 0.0000000e+00 -1.2095055e-04 
-5.2079038e-05 0.0000000e+00 -1.2133391e-04 
-5.8657279e-05 0.0000000e+00 -1.2169546e-04 
-5.8704620e-05 0.0000000e+00 -1.2203518e-04 
-5.0108712e-05 0.0000000e+00 -1.2235309e-04 
-3.0757208e-05 0.0000000e+00 -1.2264916e-04 
1.4622482e-06 0.0000000e+00 -1.2292342e-04 
-6.4848149e-07 0.0000000e+00 -1.1016237e-04 
1.5481803e-07 0.0000000e+00 -1.2507342e-04 
-5.9985084e-08 0.0000000e+00 -1.5155964e-04 
1.2236744e-07 0.0000000e+00 -1.7076885e-04 
-5.0308938e-07 0.0000000e+00 -1.7029965e-04 
1.2185402e-06 0.0000000e+00 -2.2576726e-04 
-5.1878521e-07 0.0000000e+00 -2.1629375e-04 
1.2385442e-07 0.0000000e+00 -2.1890773e-04 
-4.7988067e-08 0.0000000e+00 -2.4772398e-04 
9.7893945e-08 0.0000000e+00 -2.6846575e-04 
-4.0247150e-07 0.0000000e+00 -2.5858515e-04 
9.7483212e-07 0.0000000e+00 -3.5556426e-04 
-3.8908891e-07 0.0000000e+00 -3.2724612e-04 
9.2890822e-08 0.0000000e+00 -3.2029569e-04 
-3.5991050e-08 0.0000000e+00 -3.5092415e-04 
7.3420459e-08 0.0000000e+00 -3.7285796e-04 
-3.0185362e-07 0.0000000e+00 -3.5565734e-04 
7.3112409e-07 0.0000000e+00 -4.8492319e-04 
-2.5939261e-07 0.0000000e+00 -4.2171514e-04 
6.1927210e-08 0.0000000e+00 -4.0793302e-04 
-2.3994033e-08 0.0000000e+00 -4.3985594e-04 
4.8946973e-08 0.0000000e+00 -4.6264118e-04 
-2.0123575e-07 0.0000000e+00 -4.4021200e-04 
4.8741606e-07 0.0000000e+00 -5.9253979e-04 
-1.2969630e-07 0.0000000e+00 -4.8448349e-04 
3.0963605e-08 0.0000000e+00 -4.6660236e-04 
-1.1997017e-08 0.0000000e+00 -4.9930194e-04 
2.4473486e-08 0.0000000e+00 -5.2259804e-04 
-1.0061787e-07 0.0000000e+00 -4.9703172e-04 
2.4370803e-07 0.0000000e+00 -6.6319673e-04 
8.0246426e-17 0.0000000e+00 -5.0642079e-04 
1.2596584e-16 0.0000000e+00 -4.8717330e-04 
1.6813727e-16 0.0000000e+00 -5.2013178e-04 
1.7115317e-16 0.0000000e+00 -5.4359814e-04 
1.4335265e-16 0.0000000e+00 -5.1698613e-04 
1.1989108e-16 0.0000000e+00 -6.8776350e-04 
1.2969630e-07 0.0000000e+00 -4.8448349e-04 
-3.0963605e-08 0.0000000e+00 -4.6660236e-04 
1.1997018e-08 0.0000000e+00 -4.9930194e-04 
-2.4473486e-08 0.0000000e+00 -5.2259804e-04 
1.0061787e-07 0.0000000e+00 -4.9703172e-04 
-2.4370803e-07 0.0000000e+00 -6.6319673e-04 
2.5939261e-07 0.0000000e+00 -4.2171514e-04 
-6.1927210e-08 0.0000000e+00 -4.0793302e-04 
2.3994035e-08 0.0000000e+00 -4.3985594e-04 
-4.8946973e-08 0.0000000e+00 -4.6264118e-04 
2.0123575e-07 0.0000000e+00 -4.4021200e-04 
-4.8741606e-07 0.0000000e+00 -5.9253979e-04 
3.8908891e-07 0.0000000e+00 -3.2724612e-04 
-9.2890822e-08 0.0000000e+00 -3.2029569e-04 
3.5991050e-08 0.0000000e+00 -3.5092415e-04 
-7.3420459e-08 0.0000000e+00 -3.7285796e-04 
3.0185362e-07 0.0000000e+00 -3.5565734e-04 
-7.3112409e-07 0.0000000e+00 -4.8492319e-04 
5.1878521e-07 0.0000000e+00 -2.1629375e-04 
-1.2385442e-07 0.0000000e+00 -2.1890773e-04 
4.7988070e-08 0.0000000e+00 -2.4772398e-04 
-9.7893945e-08 0.0000000e+00 -2.6846575e-04 
4.0247150e-07 0.0000000e+00 -2.5858515e-04 
-9.7483212e-07 0.0000000e+00 -3.5556426e-04 
6.4848149e-07 0.0000000e+00 -1.1016237e-04 
-1.5481803e-07 0.0000000e+00 -1.2507342e-04 
5.9985084e-08 0.0000000e+00 -1.5155964e-04 
-1.2236744e-07 0.0000000e+00 -1.7076885e-04 
5.0308938e-07 0.0000000e+00 -1.7029965e-04 
-1.2185402e-06 0.0000000e+00 -2.2576726e-04 
0.0000000e+00 0.0000000e+00 0.0000000e+00 
1.1805405e-05 0.0000000e+00 -3.1402787e-06 
2.3118200e-05 0.0000000e+00 -6.2587369e-06 
3.3445773e-05 0.0000000e+00 -9.3553745e-06 
4.2295513e-05 0.0000000e+00 -1.2430191e-05 
4.9174811e-05 0.0000000e+00 -1.5483187e-05 
5.3591055e-05 0.0000000e+00 -1.8514364e-05 
5.5051634e-05 0.0000000e+00 -2.1523718e-05 
5.3063937e-05 0.0000000e+00 -2.4511253e-05 
4.7135352e-05 0.0000000e+00 -2.7476966e-05 
3.6773272e-05 0.0000000e+00 -3.0420859e-05 
2.1485084e-05 0.0000000e+00 -3.3342931e-05 
7.7817782e-07 0.0000000e+00 -3.6243182e-05 
-1.7879887e-05 0.0000000e+00 -3.8858263e-05 
-2.7770984e-05 0.0000000e+00 -4.1451523e-05 
-3.0511872e-05 0.0000000e+00 -4.4022963e-05 
-2.7719308e-05 0.0000000e+00 -4.6572583e-05 
-2.1010057e-05 0.0000000e+00 -4.9100381e-05 
-1.2000874e-05 0.0000000e+00 -5.1606356e-05 
-2.3085206e-06 0.0000000e+00 -5.4090513e-05 
6.4502437e-06 0.0000000e+00 -5.6552850e-05 
1.2658659e-05 0.0000000e+00 -5.8993366e-05 
1.4699966e-05 0.0000000e+00 -6.1412058e-05 
1.0957407e-05 0.0000000e+00 -6.3808933e-05 
-1.8578164e-07 0.0000000e+00 -6.6183988e-05 
-1.1812513e-05 0.0000000e+00 -6.8273868e-05 
-1.6826783e-05 0.0000000e+00 -7.0341935e-05 
-1.6576974e-05 0.0000000e+00 -7.2388175e-05 
-1.2411469e-05 0.0000000e+00 -7.4412594e-05 
-5.6786453e-06 0.0000000e+00 -7.6415192e-05 
2.2731144e-06 0.0000000e+00 -7.8395969e-05 
1.0095428e-05 0.0000000e+00 -8.0354934e-05 
1.6439917e-05 0.0000000e+00 -8.2292070e-05 
1.9958197e-05 0.0000000e+00 -8.4207386e-05 
1.9301888e-05 0.0000000e+00 -8.6100881e-05 
1.3122611e-05 0.0000000e+00 -8.7972556e-05 
7.1982100e-08 0.0000000e+00 -8.9822417e-05 
-1.2791317e-05 0.0000000e+00 -9.1387097e-05 
-1.8477931e-05 0.0000000e+00 -9.2929964e-05 
-1.8440225e-05 0.0000000e+00 -9.4451003e-05 
-1.4130565e-05 0.0000000e+00 -9.5950229e-05 
-7.0013175e-06 0.0000000e+00 -9.7427626e-05 
1.4951530e-06 0.0000000e+00 -9.8883211e-05 
9.9064800e-06 0.0000000e+00 -1.0031697e-04 
1.6780297e-05 0.0000000e+00 -1.0172891e-04 
2.0664240e-05 0.0000000e+00 -1.0311903e-04 
2.0105941e-05 0.0000000e+00 -1.0448733e-04 
1.3653037e-05 0.0000000e+00 -1.0583381e-04 
-1.4684092e-07 0.0000000e+00 -1.0715846e-04 
-1.4328883e-05 0.0000000e+00 -1.0819795e-04 
-2.1786864e-05 0.0000000e+00 -1.0921562e-04 
-2.3761026e-05 0.0000000e+00 -1.1021146e-04 
-2.1491607e-05 0.0000000e+00 -1.1118548e-04 
-1.6218850e-05 0.0000000e+00 -1.1213768e-04 
-9.1829961e-06 0.0000000e+00 -1.1306807e-04 
-1.6242841e-06 0.0000000e+00 -1.1397663e-04 
5.2170440e-06 0.0000000e+00 -1.1486337e-04 
1.0100748e-05 0.0000000e+00 -1.1572830e-04 
1.1786587e-05 0.0000000e+00 -1.1657139e-04 
9.0343201e-06 0.0000000e+00 -1.1739267e-04 
6.0370724e-07 0.0000000e+00 -1.1819213e-04 
-6.2475960e-06 0.0000000e+00 -1.1870642e-04 
-4.8433408e-06 0.0000000e+00 -1.1919888e-04 
2.7041228e-06 0.0000000e+00 -1.1966954e-04 
1.4282444e-05 0.0000000e+00 -1.2011836e-04 
2.7779270e-05 0.0000000e+00 -1.2054537e-04 
4.1082254e-05 0.0000000e+00 -1.2095055e-04 
5.2079038e-05 0.0000000e+00 -1.2133391e-04 
5.8657279e-05 0.0000000e+00 -1.2169546e-04 
5.8704620e-05 0.0000000e+00 -1.2203518e-04 
5.0108712e-05 0.0000000e+00 -1.2235309e-04 
3.0757208e-05 0.0000000e+00 -1.2264916e-04 
-1.4622482e-06 0.0000000e+00 -1.2292342e-04 
ROTATION 3 212  float
0.0000000e+00 -4.7550027e-05 0.0000000e+00 
0.0000000e+00 -4.6564808e-05 0.0000000e+00 
0.0000000e+00 -4.3609143e-05 0.0000000e+00 
0.0000000e+00 -3.8683032e-05 0.0000000e+00 
0.0000000e+00 -3.1786483e-05 0.0000000e+00 
0.0000000e+00 -2.2919488e-05 0.0000000e+00 
0.0000000e+00 -1.2082051e-05 0.0000000e+00 
0.0000000e+00 7.2582895e-07 0.0000000e+00 
0.0000000e+00 1.5504153e-05 0.0000000e+00 
0.0000000e+00 3.2252919e-05 0.0000000e+00 
0.0000000e+00 5.0972129e-05 0.0000000e+00 
0.0000000e+00 7.1661780e-05 0.0000000e+00 
0.0000000e+00 9.4321877e-05 0.0000000e+00 
0.0000000e+00 5.6020483e-05 0.0000000e+00 
0.0000000e+00 2.4186127e-05 0.0000000e+00 
0.0000000e+00 -1.1811901e-06 0.0000000e+00 
0.0000000e+00 -2.0081468e-05 0.0000000e+00 
0.0000000e+00 -3.2514708e-05 0.0000000e+00 
0.0000000e+00 -3.8480910e-05 0.0000000e+00 
0.0000000e+00 -3.7980077e-05 0.0000000e+00 
0.0000000e+00 -3.1012201e-05 0.0000000e+00 
0.0000000e+00 -1.7577286e-05 0.0000000e+00 
0.0000000e+00 2.3246664e-06 0.0000000e+00 
0.0000000e+00 2.8693657e-05 0.0000000e+00 
0.0000000e+00 6.1529689e-05 0.0000000e+00 
0.0000000e+00 3.2383083e-05 0.0000000e+00 
0.0000000e+00 8.6300042e-06 0.0000000e+00 
0.0000000e+00 -9.7295506e-06 0.0000000e+00 
0.0000000e+00 -2.2695582e-05 0.0000000e+00 
0.0000000e+00 -3.0268087e-05 0.0000000e+00 
0.0000000e+00 -3.2447067e-05 0.0000000e+00 
0.0000000e+00 -2.9232524e-05 0.0000000e+00 
0.0000000e+00 -2.0624457e-05 0.0000000e+00 
0.0000000e+00 -6.6228654e-06 0.0000000e+00 
0.0000000e+00 1.2772251e-05 0.0000000e+00 
0.0000000e+00 3.7560891e-05 0.0000000e+00 
0.0000000e+00 6.7743058e-05 0.0000000e+00 
0.0000000e+00 3.6131583e-05 0.0000000e+00 
0.0000000e+00 1.0329572e-05 0.0000000e+00 
0.0000000e+00 -9.6629756e-06 0.0000000e+00 
0.0000000e+00 -2.3846060e-05 0.0000000e+00 
0.0000000e+00 -3.2219679e-05 0.0000000e+00 
0.0000000e+00 -3.4783840e-05 0.0000000e+00 
0.0000000e+00 -3.1538533e-05 0.0000000e+00 
0.0000000e+00 -2.2483764e-05 0.0000000e+00 
0.0000000e+00 -7.6195324e-06 0.0000000e+00 
0.0000000e+00 1.3054163e-05 0.0000000e+00 
0.0000000e+00 3.9537321e-05 0.0000000e+00 
0.0000000e+00 7.1829942e-05 0.0000000e+00 
0.0000000e+00 4.2453219e-05 0.0000000e+00 
0.0000000e+00 1.8037457e-05 0.0000000e+00 
0.0000000e+00 -1.4173410e-06 0.0000000e+00 
0.0000000e+00 -1.5911177e-05 0.0000000e+00 
0.0000000e+00 -2.5444049e-05 0.0000000e+00 
0.0000000e+00 -3.0015961e-05 0.0000000e+00 
0.0000000e+00 -2.9626908e-05 0.0000000e+00 
0.0000000e+00 -2.4276891e-05 0.0000000e+00 
0.0000000e+00 -1.3965913e-05 0.0000000e+00 
0.0000000e+00 1.3060284e-06 0.0000000e+00 
0.0000000e+00 2.1538932e-05 0.0000000e+00 
0.0000000e+00 4.6732799e-05 0.0000000e+00 
0.0000000e+00 9.4858624e-06 0.0000000e+00 
0.0000000e+00 -1.9311672e-05 0.0000000e+00 
0.0000000e+00 -3.9659801e-05 0.0000000e+00 
0.0000000e+00 -5.1558531e-05 0.0000000e+00 
0.0000000e+00 -5.5007851e-05 0.0000000e+00 
0.0000000e+00 -5.0007769e-05 0.0000000e+00 
0.0000000e+00 -3.6558286e-05 0.0000000e+00 
0.0000000e+00 -1.4659397e-05 0.0000000e+00 
0.0000000e+00 1.5688895e-05 0.0000000e+00 
0.0000000e+00 5.4486591e-05 0.0000000e+00 
0.0000000e+00 1.0173369e-04 0.0000000e+00 
0.0000000e+00 1.5743020e-04 0.0000000e+00 
0.0000000e+00 1.9019547e-04 0.0000000e+00 
0.0000000e+00 1.6286864e-04 0.0000000e+00 
0.0000000e+00 1.6804645e-04 0.0000000e+00 
0.0000000e+00 1.7145219e-04 0.0000000e+00 
0.0000000e+00 1.5053790e-04 0.0000000e+00 
0.0000000e+00 2.4278574e-04 0.0000000e+00 
0.0000000e+00 2.2519966e-04 0.0000000e+00 
0.0000000e+00 2.0333820e-04 0.0000000e+00 
0.0000000e+00 2.0748045e-04 0.0000000e+00 
0.0000000e+00 2.1020503e-04 0.0000000e+00 
0.0000000e+00 1.9347361e-04 0.0000000e+00 
0.0000000e+00 2.6727185e-04 0.0000000e+00 
0.0000000e+00 2.1150832e-04 0.0000000e+00 
0.0000000e+00 1.9511222e-04 0.0000000e+00 
0.0000000e+00 1.9821891e-04 0.0000000e+00 
0.0000000e+00 2.0026235e-04 0.0000000e+00 
0.0000000e+00 1.8771378e-04 0.0000000e+00 
0.0000000e+00 2.4306249e-04 0.0000000e+00 
0.0000000e+00 1.6129535e-04 0.0000000e+00 
0.0000000e+00 1.5036462e-04 0.0000000e+00 
0.0000000e+00 1.5243575e-04 0.0000000e+00 
0.0000000e+00 1.5379804e-04 0.0000000e+00 
0.0000000e+00 1.4543232e-04 0.0000000e+00 
0.0000000e+00 1.8233145e-04 0.0000000e+00 
0.0000000e+00 8.6734617e-05 0.0000000e+00 
0.0000000e+00 8.1269252e-05 0.0000000e+00 
0.0000000e+00 8.2304810e-05 0.0000000e+00 
0.0000000e+00 8.2985964e-05 0.0000000e+00 
0.0000000e+00 7.8803103e-05 0.0000000e+00 
0.0000000e+00 9.7252669e-05 0.0000000e+00 
0.0000000e+00 -3.3480485e-18 0.0000000e+00 
0.0000000e+00 -8.4988920e-18 0.0000000e+00 
0.0000000e+00 -4.1206751e-18 0.0000000e+00 
0.0000000e+00 7.4687238e-18 0.0000000e+00 
0.0000000e+00 3.6055905e-18 0.0000000e+00 
0.0000000e+00 1.4358112e-18 0.0000000e+00 
0.0000000e+00 -8.6734617e-05 0.0000000e+00 
0.0000000e+00 -8.1269252e-05 0.0000000e+00 
0.0000000e+00 -8.2304810e-05 0.0000000e+00 
0.0000000e+00 -8.2985964e-05 0.0000000e+00 
0.0000000e+00 -7.8803103e-05 0.0000000e+00 
0.0000000e+00 -9.7252669e-05 0.0000000e+00 
0.0000000e+00 -1.6129535e-04 0.0000000e+00 
0.0000000e+00 -1.5036462e-04 0.0000000e+00 
0.0000000e+00 -1.5243575e-04 0.0000000e+00 
0.0000000e+00 -1.5379804e-04 0.0000000e+00 
0.0000000e+00 -1.4543232e-04 0.0000000e+00 
0.0000000e+00 -1.8233145e-04 0.0000000e+00 
0.0000000e+00 -2.1150832e-04 0.0000000e+00 
0.0000000e+00 -1.9511222e-04 0.0000000e+00 
0.0000000e+00 -1.9821891e-04 0.0000000e+00 
0.0000000e+00 -2.0026235e-04 0.0000000e+00 
0.0000000e+00 -1.8771378e-04 0.0000000e+00 
0.0000000e+00 -2.4306249e-04 0.0000000e+00 
0.0000000e+00 -2.2519966e-04 0.0000000e+00 
0.0000000e+00 -2.0333820e-04 0.0000000e+00 
0.0000000e+00 -2.0748045e-04 0.0000000e+00 
0.0000000e+00 -2.1020503e-04 0.0000000e+00 
0.0000000e+00 -1.9347361e-04 0.0000000e+00 
0.0000000e+00 -2.6727185e-04 0.0000000e+00 
0.0000000e+00 -1.9019547e-04 0.0000000e+00 
0.0000000e+00 -1.6286864e-04 0.0000000e+00 
0.0000000e+00 -1.6804645e-04 0.0000000e+00 
0.0000000e+00 -1.7145219e-04 0.0000000e+00 
0.0000000e+00 -1.5053790e-04 0.0000000e+00 
0.0000000e+00 -2.4278574e-04 0.0000000e+00 
0.0000000e+00 4.7550027e-05 0.0000000e+00 
0.0000000e+00 4.6564808e-05 0.0000000e+00 
0.0000000e+00 4.3609143e-05 0.0000000e+00 
0.0000000e+00 3.8683032e-05 0.0000000e+00 
0.0000000e+00 3.1786483e-05 0.0000000e+00 
0.0000000e+00 2.2919488e-05 0.0000000e+00 
0.0000000e+00 1.2082051e-05 0.0000000e+00 
0.0000000e+00 -7.2582895e-07 0.0000000e+00 
0.0000000e+00 -1.5504153e-05 0.0000000e+00 
0.0000000e+00 -3.2252919e-05 0.0000000e+00 
0.0000000e+00 -5.0972129e-05 0.0000000e+00 
0.0000000e+00 -7.1661780e-05 0.0000000e+00 
0.0000000e+00 -9.4321877e-05 0.0000000e+00 
0.0000000e+00 -5.6020483e-05 0.0000000e+00 
0.0000000e+00 -2.4186127e-05 0.0000000e+00 
0.0000000e+00 1.1811901e-06 0.0000000e+00 
0.0000000e+00 2.0081468e-05 0.0000000e+00 
0.0000000e+00 3.2514708e-05 0.0000000e+00 
0.0000000e+00 3.8480910e-05 0.0000000e+00 
0.0000000e+00 3.7980077e-05 0.0000000e+00 
0.0000000e+00 3.1012201e-05 0.0000000e+00 
0.0000000e+00 1.7577286e-05 0.0000000e+00 
0.0000000e+00 -2.3246664e-06 0.0000000e+00 
0.0000000e+00 -2.8693657e-05 0.0000000e+00 
0.0000000e+00 -6.1529689e-05 0.0000000e+00 
0.0000000e+00 -3.2383083e-05 0.0000000e+00 
0.0000000e+00 -8.6300042e-06 0.0000000e+00 
0.0000000e+00 9.7295506e-06 0.0000000e+00 
0.0000000e+00 2.2695582e-05 0.0000000e+00 
0.0000000e+00 3.0268087e-05 0.0000000e+00 
0.0000000e+00 3.2447067e-05 0.0000000e+00 
0.0000000e+00 2.9232524e-05 0.0000000e+00 
0.0000000e+00 2.0624457e-05 0.0000000e+00 
0.0000000e+00 6.6228654e-06 0.0000000e+00 
0.0000000e+00 -1.2772251e-05 0.0000000e+00 
0.0000000e+00 -3.7560891e-05 0.0000000e+00 
0.0000000e+00 -6.7743058e-05 0.0000000e+00 
0.0000000e+00 -3.6131583e-05 0.0000000e+00 
0.0000000e+00 -1.0329572e-05 0.0000000e+00 
0.0000000e+00 9.6629756e-06 0.0000000e+00 
0.0000000e+00 2.3846060e-05 0.0000000e+00 
0.0000000e+00 3.2219679e-05 0.0000000e+00 
0.0000000e+00 3.4783840e-05 0.0000000e+00 
0.0000000e+00 3.1538533e-05 0.0000000e+00 
0.0000000e+00 2.2483764e-05 0.0000000e+00 
0.0000000e+00 7.6195324e-06 0.0000000e+00 
0.0000000e+00 -1.3054163e-05 0.0000000e+00 
0.0000000e+00 -3.9537321e-05 0.0000000e+00 
0.0000000e+00 -7.1829942e-05 0.0000000e+00 
0.0000000e+00 -4.2453219e-05 0.0000000e+00 
0.0000000e+00 -1.8037457e-05 0.0000000e+00 
0.0000000e+00 1.4173410e-06 0.0000000e+00 
0.0000000e+00 1.5911177e-05 0.0000000e+00 
0.0000000e+00 2.5444049e-05 0.0000000e+00 
0.0000000e+00 3.0015961e-05 0.0000000e+00 
0.0000000e+00 2.9626908e-05 0.0000000e+00 
0.0000000e+00 2.4276891e-05 0.0000000e+00 
0.0000000e+00 1.3965913e-05 0.0000000e+00 
0.0000000e+00 -1.3060284e-06 0.0000000e+00 
0.0000000e+00 -2.1538932e-05 0.0000000e+00 
0.0000000e+00 -4.6732799e-05 0.0000000e+00 
0.0000000e+00 -9.4858624e-06 0.0000000e+00 
0.0000000e+00 1.9311672e-05 0.0000000e+00 
0.0000000e+00 3.9659801e-05 0.0000000e+00 
0.0000000e+00 5.1558531e-05 0.0000000e+00 