# vtk DataFile Version 4.0
vtk output
ASCII
DATASET UNSTRUCTURED_GRID
POINTS 212 float
0.0000000e+00 0.0000000e+00 0.0000000e+00 
0.0000000e+00 0.0000000e+00 2.5000000e-01 
0.0000000e+00 0.0000000e+00 5.0000000e-01 
0.0000000e+00 0.0000000e+00 7.5000000e-01 
0.0000000e+00 0.0000000e+00 1.0000000e+00 
0.0000000e+00 0.0000000e+00 1.2500000e+00 
0.0000000e+00 0.0000000e+00 1.5000000e+00 
0.0000000e+00 0.0000000e+00 1.7500000e+00 
0.0000000e+00 0.0000000e+00 2.0000000e+00 
0.0000000e+00 0.0000000e+00 2.2500000e+00 
0.0000000e+00 0.0000000e+00 2.5000000e+00 
0.0000000e+00 0.0000000e+00 2.7500000e+00 
0.0000000e+00 0.0000000e+00 3.0000000e+00 
0.0000000e+00 0.0000000e+00 3.2500000e+00 
0.0000000e+00 0.0000000e+00 3.5000000e+00 
0.0000000e+00 0.0000000e+00 3.7500000e+00 
0.0000000e+00 0.0000000e+00 4.0000000e+00 
0.0000000e+00 0.0000000e+00 4.2500000e+00 
0.0000000e+00 0.0000000e+00 4.5000000e+00 
0.0000000e+00 0.0000000e+00 4.7500000e+00 
0.0000000e+00 0.0000000e+00 5.0000000e+00 
0.0000000e+00 0.0000000e+00 5.2500000e+00 
0.0000000e+00 0.0000000e+00 5.5000000e+00 
0.0000000e+00 0.0000000e+00 5.7500000e+00 
0.0000000e+00 0.0000000e+00 6.0000000e+00 
0.0000000e+00 0.0000000e+00 6.2500000e+00 
0.0000000e+00 0.0000000e+00 6.5000000e+00 
0.0000000e+00 0.0000000e+00 6.7500000e+00 
0.0000000e+00 0.0000000e+00 7.0000000e+00 
0.0000000e+00 0.0000000e+00 7.2500000e+00 
0.0000000e+00 0.0000000e+00 7.5000000e+00 
0.0000000e+00 0.0000000e+00 7.7500000e+00 
0.0000000e+00 0.0000000e+00 8.0000000e+00 
0.0000000e+00 0.0000000e+00 8.2500000e+00 
0.0000000e+00 0.0000000e+00 8.5000000e+00 
0.0000000e+00 0.0000000e+00 8.7500000e+00 
0.0000000e+00 0.0000000e+00 9.0000000e+00 
0.0000000e+00 0.0000000e+00 9.2500000e+00 
0.0000000e+00 0.0000000e+00 9.5000000e+00 
0.0000000e+00 0.0000000e+00 9.7500000e+00 
0.0000000e+00 0.0000000e+00 1.0000000e+01 
0.0000000e+00 0.0000000e+00 1.0250000e+01 
0.0000000e+00 0.0000000e+00 1.0500000e+01 
0.0000000e+00 0.0000000e+00 1.0750000e+01 
0.0000000e+00 0.0000000e+00 1.1000000e+01 
0.0000000e+00 0.0000000e+00 1.1250000e+01 
0.0000000e+00 0.0000000e+00 1.1500000e+01 
0.0000000e+00 0.0000000e+00 1.1750000e+01 
0.0000000e+00 0.0000000e+00 1.2000000e+01 
0.0000000e+00 0.0000000e+00 1.2250000e+01 
0.0000000e+00 0.0000000e+00 1.2500000e+01 
0.0000000e+00 0.0000000e+00 1.2750000e+01 
0.0000000e+00 0.0000000e+00 1.3000000e+01 
0.0000000e+00 0.0000000e+00 1.3250000e+01 
0.0000000e+00 0.0000000e+00 1.3500000e+01 
0.0000000e+00 0.0000000e+00 1.3750000e+01 
0.0000000e+00 0.0000000e+00 1.4000000e+01 
0.0000000e+00 0.0000000e+00 1.4250000e+01 
0.0000000e+00 0.0000000e+00 1.4500000e+01 
0.0000000e+00 0.0000000e+00 1.4750000e+01 
0.0000000e+00 0.0000000e+00 1.5000000e+01 
0.0000000e+00 0.0000000e+00 1.5250000e+01 
0.0000000e+00 0.0000000e+00 1.5500000e+01 
0.0000000e+00 0.0000000e+00 1.5750000e+01 
0.0000000e+00 0.0000000e+00 1.6000000e+01 
0.0000000e+00 0.0000000e+00 1.6250000e+01 
0.0000000e+00 0.0000000e+00 1.6500000e+01 
0.0000000e+00 0.0000000e+00 1.6750000e+01 
0.0000000e+00 0.0000000e+00 1.7000000e+01 
0.0000000e+00 0.0000000e+00 1.7250000e+01 
0.0000000e+00 0.0000000e+00 1.7500000e+01 
0.0000000e+00 0.0000000e+00 1.7750000e+01 
0.0000000e+00 0.0000000e+00 1.8000000e+01 
5.0000000e-01 0.0000000e+00 3.0000000e+00 
5.0000000e-01 0.0000000e+00 6.0000000e+00 
5.0000000e-01 0.0000000e+00 9.0000000e+00 
5.0000000e-01 0.0000000e+00 1.2000000e+01 
5.0000000e-01 0.0000000e+00 1.5000000e+01 
5.0000000e-01 0.0000000e+00 1.8000000e+01 
1.0000000e+00 0.0000000e+00 3.0000000e+00 
1.0000000e+00 0.0000000e+00 6.0000000e+00 
1.0000000e+00 0.0000000e+00 9.0000000e+00 
1.0000000e+00 0.0000000e+00 1.2000000e+01 
1.0000000e+00 0.0000000e+00 1.5000000e+01 
1.0000000e+00 0.0000000e+00 1.8000000e+01 
1.5000000e+00 0.0000000e+00 3.0000000e+00 
1.5000000e+00 0.0000000e+00 6.0000000e+00 
1.5000000e+00 0.0000000e+00 9.0000000e+00 
1.5000000e+00 0.0000000e+00 1.2000000e+01 
1.5000000e+00 0.0000000e+00 1.5000000e+01 
1.5000000e+00 0.0000000e+00 1.8000000e+01 
2.0000000e+00 0.0000000e+00 3.0000000e+00 
2.0000000e+00 0.0000000e+00 6.0000000e+00 
2.0000000e+00 0.0000000e+00 9.0000000e+00 
2.0000000e+00 0.0000000e+00 1.2000000e+01 
2.0000000e+00 0.0000000e+00 1.5000000e+01 
2.0000000e+00 0.0000000e+00 1.8000000e+01 
2.5000000e+00 0.0000000e+00 3.0000000e+00 
2.5000000e+00 0.0000000e+00 6.0000000e+00 
2.5000000e+00 0.0000000e+00 9.0000000e+00 
2.5000000e+00 0.0000000e+00 1.2000000e+01 
2.5000000e+00 0.0000000e+00 1.5000000e+01 
2.5000000e+00 0.0000000e+00 1.8000000e+01 
3.0000000e+00 0.0000000e+00 3.0000000e+00 
3.0000000e+00 0.0000000e+00 6.0000000e+00 
3.0000000e+00 0.0000000e+00 9.0000000e+00 
3.0000000e+00 0.0000000e+00 1.2000000e+01 
3.0000000e+00 0.0000000e+00 1.5000000e+01 
3.0000000e+00 0.0000000e+00 1.8000000e+01 
3.5000000e+00 0.0000000e+00 3.0000000e+00 
3.5000000e+00 0.0000000e+00 6.0000000e+00 
3.5000000e+00 0.0000000e+00 9.0000000e+00 
3.5000000e+00 0.0000000e+00 1.2000000e+01 
3.5000000e+00 0.0000000e+00 1.5000000e+01 
3.5000000e+00 0.0000000e+00 1.8000000e+01 
4.0000000e+00 0.0000000e+00 3.0000000e+00 
4.0000000e+00 0.0000000e+00 6.0000000e+00 
4.0000000e+00 0.0000000e+00 9.0000000e+00 
4.0000000e+00 0.0000000e+00 1.2000000e+01 
4.0000000e+00 0.0000000e+00 1.5000000e+01 
4.0000000e+00 0.0000000e+00 1.8000000e+01 
4.5000000e+00 0.0000000e+00 3.0000000e+00 
4.5000000e+00 0.0000000e+00 6.0000000e+00 
4.5000000e+00 0.0000000e+00 9.0000000e+00 
4.5000000e+00 0.0000000e+00 1.2000000e+01 
4.5000000e+00 0.0000000e+00 1.5000000e+01 
4.5000000e+00 0.0000000e+00 1.8000000e+01 
5.0000000e+00 0.0000000e+00 3.0000000e+00 
5.0000000e+00 0.0000000e+00 6.0000000e+00 
5.0000000e+00 0.0000000e+00 9.0000000e+00 
5.0000000e+00 0.0000000e+00 1.2000000e+01 
5.0000000e+00 0.0000000e+00 1.5000000e+01 
5.0000000e+00 0.0000000e+00 1.8000000e+01 
5.5000000e+00 0.0000000e+00 3.0000000e+00 
5.5000000e+00 0.0000000e+00 6.0000000e+00 
5.5000000e+00 0.0000000e+00 9.0000000e+00 
5.5000000e+00 0.0000000e+00 1.2000000e+01 
5.5000000e+00 0.0000000e+00 1.5000000e+01 
5.5000000e+00 0.0000000e+00 1.8000000e+01 
6.0000000e+00 0.0000000e+00 0.0000000e+00 
6.0000000e+00 0.0000000e+00 2.5000000e-01 
6.0000000e+00 0.0000000e+00 5.0000000e-01 
6.0000000e+00 0.0000000e+00 7.5000000e-01 
6.0000000e+00 0.0000000e+00 1.0000000e+00 
6.0000000e+00 0.0000000e+00 1.2500000e+00 
6.0000000e+00 0.0000000e+00 1.5000000e+00 
6.0000000e+00 0.0000000e+00 1.7500000e+00 
6.0000000e+00 0.0000000e+00 2.0000000e+00 
6.0000000e+00 0.0000000e+00 2.2500000e+00 
6.0000000e+00 0.0000000e+00 2.5000000e+00 
6.0000000e+00 0.0000000e+00 2.7500000e+00 
6.0000000e+00 0.0000000e+00 3.0000000e+00 
6.0000000e+00 0.0000000e+00 3.2500000e+00 
6.0000000e+00 0.0000000e+00 3.5000000e+00 
6.0000000e+00 0.0000000e+00 3.7500000e+00 
6.0000000e+00 0.0000000e+00 4.0000000e+00 
6.0000000e+00 0.0000000e+00 4.2500000e+00 
6.0000000e+00 0.0000000e+00 4.5000000e+00 
6.0000000e+00 0.0000000e+00 4.7500000e+00 
6.0000000e+00 0.0000000e+00 5.0000000e+00 
6.0000000e+00 0.0000000e+00 5.2500000e+00 
6.0000000e+00 0.0000000e+00 5.5000000e+00 
6.0000000e+00 0.0000000e+00 5.7500000e+00 
6.0000000e+00 0.0000000e+00 6.0000000e+00 
6.0000000e+00 0.0000000e+00 6.2500000e+00 
6.0000000e+00 0.0000000e+00 6.5000000e+00 
6.0000000e+00 0.0000000e+00 6.7500000e+00 
6.0000000e+00 0.0000000e+00 7.0000000e+00 
6.0000000e+00 0.0000000e+00 7.2500000e+00 
6.0000000e+00 0.0000000e+00 7.5000000e+00 
6.0000000e+00 0.0000000e+00 7.7500000e+00 
6.0000000e+00 0.0000000e+00 8.0000000e+00 
6.0000000e+00 0.0000000e+00 8.2500000e+00 
6.0000000e+00 0.0000000e+00 8.5000000e+00 
6.0000000e+00 0.0000000e+00 8.7500000e+00 
6.0000000e+00 0.0000000e+00 9.0000000e+00 
6.0000000e+00 0.0000000e+00 9.2500000e+00 
6.0000000e+00 0.0000000e+00 9.5000000e+00 
6.0000000e+00 0.0000000e+00 9.7500000e+00 
6.0000000e+00 0.0000000e+00 1.0000000e+01 
6.0000000e+00 0.0000000e+00 1.0250000e+01 
6.0000000e+00 0.0000000e+00 1.0500000e+01 
6.0000000e+00 0.0000000e+00 1.0750000e+01 
6.0000000e+00 0.0000000e+00 1.1000000e+01 
6.0000000e+00 0.0000000e+00 1.1250000e+01 
6.0000000e+00 0.0000000e+00 1.1500000e+01 
6.0000000e+00 0.0000000e+00 1.1750000e+01 
6.0000000e+00 0.0000000e+00 1.2000000e+01 
6.0000000e+00 0.0000000e+00 1.2250000e+01 
6.0000000e+00 0.0000000e+00 1.2500000e+01 
6.0000000e+00 0.0000000e+00 1.2750000e+01 
6.0000000e+00 0.0000000e+00 1.3000000e+01 
6.0000000e+00 0.0000000e+00 1.3250000e+01 
6.0000000e+00 0.0000000e+00 1.3500000e+01 
6.0000000e+00 0.0000000e+00 1.3750000e+01 
6.0000000e+00 0.0000000e+00 1.4000000e+01 
6.0000000e+00 0.0000000e+00 1.4250000e+01 
6.0000000e+00 0.0000000e+00 1.4500000e+01 
6.0000000e+00 0.0000000e+00 1.4750000e+01 
6.0000000e+00 0.0000000e+00 1.5000000e+01 
6.0000000e+00 0.0000000e+00 1.5250000e+01 
6.0000000e+00 0.0000000e+00 1.5500000e+01 
6.0000000e+00 0.0000000e+00 1.5750000e+01 
6.0000000e+00 0.0000000e+00 1.6000000e+01 
6.0000000e+00 0.0000000e+00 1.6250000e+01 
6.0000000e+00 0.0000000e+00 1.6500000e+01 
6.0000000e+00 0.0000000e+00 1.6750000e+01 
6.0000000e+00 0.0000000e+00 1.7000000e+01 
6.0000000e+00 0.0000000e+00 1.7250000e+01 
6.0000000e+00 0.0000000e+00 1.7500000e+01 
6.0000000e+00 0.0000000e+00 1.7750000e+01 
6.0000000e+00 0.0000000e+00 1.8000000e+01 

CELLS 216 648
2 0 1
2 1 2
2 2 3
2 3 4
2 4 5
2 5 6
2 6 7
2 7 8
2 8 9
2 9 10
2 10 11
2 11 12
2 12 13
2 13 14
2 14 15
2 15 16
2 16 17
2 17 18
2 18 19
2 19 20
2 20 21
2 21 22
2 22 23
2 23 24
2 24 25
2 25 26
2 26 27
2 27 28
2 28 29
2 29 30
2 30 31
2 31 32
2 32 33
2 33 34
2 34 35
2 35 36
2 36 37
2 37 38
2 38 39
2 39 40
2 40 41
2 41 42
2 42 43
2 43 44
2 44 45
2 45 46
2 46 47
2 47 48
2 48 49
2 49 50
2 50 51
2 51 52
2 52 53
2 53 54
2 54 55
2 55 56
2 56 57
2 57 58
2 58 59
2 59 60
2 60 61
2 61 62
2 62 63
2 63 64
2 64 65
2 65 66
2 66 67
2 67 68
2 68 69
2 69 70
2 70 71
2 71 72
2 139 140
2 140 141
2 141 142
2 142 143
2 143 144
2 144 145
2 145 146
2 146 147
2 147 148
2 148 149
2 149 150
2 150 151
2 151 152
2 152 153
2 153 154
2 154 155
2 155 156
2 156 157
2 157 158
2 158 159
2 159 160
2 160 161
2 161 162
2 162 163
2 163 164
2 164 165
2 165 166
2 166 167
2 167 168
2 168 169
2 169 170
2 170 171
2 171 172
2 172 173
2 173 174
2 174 175
2 175 176
2 176 177
2 177 178
2 178 179
2 179 180
2 180 181
2 181 182
2 182 183
2 183 184
2 184 185
2 185 186
2 186 187
2 187 188
2 188 189
2 189 190
2 190 191
2 191 192
2 192 193
2 193 194
2 194 195
2 195 196
2 196 197
2 197 198
2 198 199
2 199 200
2 200 201
2 201 202
2 202 203
2 203 204
2 204 205
2 205 206
2 206 207
2 207 208
2 208 209
2 209 210
2 210 211
2 12 73
2 73 79
2 79 85
2 85 91
2 91 97
2 97 103
2 103 109
2 109 115
2 115 121
2 121 127
2 127 133
2 133 151
2 24 74
2 74 80
2 80 86
2 86 92
2 92 98
2 98 104
2 104 110
2 110 116
2 116 122
2 122 128
2 128 134
2 134 163
2 36 75
2 75 81
2 81 87
2 87 93
2 93 99
2 99 105
2 105 111
2 111 117
2 117 123
2 123 129
2 129 135
2 135 175
2 48 76
2 76 82
2 82 88
2 88 94
2 94 100
2 100 106
2 106 112
2 112 118
2 118 124
2 124 130
2 130 136
2 136 187
2 60 77
2 77 83
2 83 89
2 89 95
2 95 101
2 101 107
2 107 113
2 113 119
2 119 125
2 125 131
2 131 137
2 137 199
2 72 78
2 78 84
2 84 90
2 90 96
2 96 102
2 102 108
2 108 114
2 114 120
2 120 126
2 126 132
2 132 138
2 138 211

CELL_TYPES 216
3
3
3
3
3
3
3
3
3
3
3
3
3
3
3
3
3
3
3
3
3
3
3
3
3
3
3
3
3
3
3
3
3
3
3
3
3
3
3
3
3
3
3
3
3
3
3
3
3
3
3
3
3
3
3
3
3
3
3
3
3
3
3
3
3
3
3
3
3
3
3
3
3
3
3
3
3
3
3
3
3
3
3
3
3
3
3
3
3
3
3
3
3
3
3
3
3
3
3
3
3
3
3
3
3
3
3
3
3
3
3
3
3
3
3
3
3
3
3
3
3
3
3
3
3
3
3
3
3
3
3
3
3
3
3
3
3
3
3
3
3
3
3
3
3
3
3
3
3
3
3
3
3
3
3
3
3
3
3
3
3
3
3
3
3
3
3
3
3
3
3
3
3
3
3
3
3
3
3
3
3
3
3
3
3
3
3
3
3
3
3
3
3
3
3
3
3
3
3
3
3
3
3
3
3
3
3
3
3
3
3
3
3
3
3
3
POINT_DATA 212
FIELD FieldData 8
DISPLACEMENT 3 212  float
0.0000000e+00 0.0000000e+00 0.0000000e+00 
-1.5487958e-04 0.0000000e+00 -1.3670427e-05 
-3.0327265e-04 0.0000000e+00 -2.7246178e-05 
-4.3869269e-04 0.0000000e+00 -4.0727256e-05 
-5.5465318e-04 0.0000000e+00 -5.4113658e-05 
-6.4466760e-04 0.0000000e+00 -6.7405381e-05 
-7.0224941e-04 0.0000000e+00 -8.0602433e-05 
-7.2091212e-04 0.0000000e+00 -9.3704810e-05 
-6.9416920e-04 0.0000000e+00 -1.0671251e-04 
-6.1553408e-04 0.0000000e+00 -1.1962554e-04 
-4.7852038e-04 0.0000000e+00 -1.3244389e-04 
-2.7664145e-04 0.0000000e+00 -1.4516758e-04 
-3.4108298e-06 0.0000000e+00 -1.5779657e-04 
2.4256611e-04 0.0000000e+00 -1.6918071e-04 
3.7261369e-04 0.0000000e+00 -1.8047016e-04 
4.0811309e-04 0.0000000e+00 -1.9166495e-04 
3.7044543e-04 0.0000000e+00 -2.0276506e-04 
2.8099184e-04 0.0000000e+00 -2.1377049e-04 
1.6113347e-04 0.0000000e+00 -2.2468125e-04 
3.2251424e-05 0.0000000e+00 -2.3549733e-04 
-8.4273146e-05 0.0000000e+00 -2.4621873e-04 
-1.6705910e-04 0.0000000e+00 -2.5684547e-04 
-1.9472532e-04 0.0000000e+00 -2.6737753e-04 
-1.4589065e-04 0.0000000e+00 -2.7781492e-04 
8.2604049e-07 0.0000000e+00 -2.8815761e-04 
1.5411850e-04 0.0000000e+00 -2.9725546e-04 
2.2027569e-04 0.0000000e+00 -3.0625862e-04 
2.1707156e-04 0.0000000e+00 -3.1516713e-04 
1.6228002e-04 0.0000000e+00 -3.2398093e-04 
7.3675001e-05 0.0000000e+00 -3.3270006e-04 
-3.0969550e-05 0.0000000e+00 -3.4132454e-04 
-1.3387970e-04 0.0000000e+00 -3.4985432e-04 
-2.1728154e-04 0.0000000e+00 -3.5828943e-04 
-2.6340110e-04 0.0000000e+00 -3.6662986e-04 
-2.5446451e-04 0.0000000e+00 -3.7487564e-04 
-1.7269778e-04 0.0000000e+00 -3.8302672e-04 
-3.2699040e-07 0.0000000e+00 -3.9108313e-04 
1.6944078e-04 0.0000000e+00 -3.9789468e-04 
2.4435043e-04 0.0000000e+00 -4.0461155e-04 
2.4360383e-04 0.0000000e+00 -4.1123375e-04 
1.8640282e-04 0.0000000e+00 -4.1776127e-04 
9.1949245e-05 0.0000000e+00 -4.2419412e-04 
-2.0555040e-05 0.0000000e+00 -4.3053229e-04 
-1.3190818e-04 0.0000000e+00 -4.3677579e-04 
-2.2290830e-04 0.0000000e+00 -4.4292459e-04 
-2.7435360e-04 0.0000000e+00 -4.4897874e-04 
-2.6704217e-04 0.0000000e+00 -4.5493821e-04 
-1.8177218e-04 0.0000000e+00 -4.6080301e-04 
6.5822184e-07 0.0000000e+00 -4.6657314e-04 
1.8832843e-04 0.0000000e+00 -4.7109838e-04 
2.8740158e-04 0.0000000e+00 -4.7552897e-04 
3.1420516e-04 0.0000000e+00 -4.7986486e-04 
2.8506669e-04 0.0000000e+00 -4.8410607e-04 
2.1631362e-04 0.0000000e+00 -4.8825264e-04 
1.2427349e-04 0.0000000e+00 -4.9230451e-04 
2.5273737e-05 0.0000000e+00 -4.9626169e-04 
-6.4358115e-05 0.0000000e+00 -5.0012424e-04 
-1.2829459e-04 0.0000000e+00 -5.0389208e-04 
-1.5020819e-04 0.0000000e+00 -5.0756527e-04 
-1.1377142e-04 0.0000000e+00 -5.1114376e-04 
-2.6567996e-06 0.0000000e+00 -5.1462761e-04 
8.7273605e-05 0.0000000e+00 -5.1686657e-04 
6.7892317e-05 0.0000000e+00 -5.1901082e-04 
-3.2871314e-05 0.0000000e+00 -5.2106043e-04 
-1.8708792e-04 0.0000000e+00 -5.2301539e-04 
-3.6682811e-04 0.0000000e+00 -5.2487565e-04 
-5.4416258e-04 0.0000000e+00 -5.2664120e-04 
-6.9116196e-04 0.0000000e+00 -5.2831211e-04 
-7.7989680e-04 0.0000000e+00 -5.2988838e-04 
-7.8243780e-04 0.0000000e+00 -5.3136994e-04 
-6.7085563e-04 0.0000000e+00 -5.3275679e-04 
-4.1722090e-04 0.0000000e+00 -5.3404900e-04 
6.3957541e-06 0.0000000e+00 -5.3524651e-04 
-2.8423581e-06 0.0000000e+00 -1.1332569e-03 
6.8836709e-07 0.0000000e+00 -1.0650974e-03 
-2.7249200e-07 0.0000000e+00 -1.2061796e-03 
5.4851824e-07 0.0000000e+00 -1.3069948e-03 
-2.2139998e-06 0.0000000e+00 -1.2019381e-03 
5.3297949e-06 0.0000000e+00 -1.8899296e-03 
-2.2738866e-06 0.0000000e+00 -2.5340898e-03 
5.5069364e-07 0.0000000e+00 -2.3035044e-03 
-2.1799360e-07 0.0000000e+00 -2.4758058e-03 
4.3881457e-07 0.0000000e+00 -2.5973415e-03 
-1.7711998e-06 0.0000000e+00 -2.3670122e-03 
4.2638362e-06 0.0000000e+00 -3.6010356e-03 
-1.7054149e-06 0.0000000e+00 -3.9986577e-03 
4.1302025e-07 0.0000000e+00 -3.6417414e-03 
-1.6349520e-07 0.0000000e+00 -3.8383240e-03 
3.2911095e-07 0.0000000e+00 -3.9759758e-03 
-1.3283998e-06 0.0000000e+00 -3.6482122e-03 
3.1978770e-06 0.0000000e+00 -5.3069275e-03 
-1.1369433e-06 0.0000000e+00 -5.2456874e-03 
2.7534682e-07 0.0000000e+00 -4.7985343e-03 
-1.0899679e-07 0.0000000e+00 -5.0124610e-03 
2.1940730e-07 0.0000000e+00 -5.1616244e-03 
-8.8559989e-07 0.0000000e+00 -4.7642649e-03 
2.1319181e-06 0.0000000e+00 -6.7263311e-03 
-5.6847165e-07 0.0000000e+00 -6.0742693e-03 
1.3767342e-07 0.0000000e+00 -5.5729742e-03 
-5.4498390e-08 0.0000000e+00 -5.7973070e-03 
1.0970366e-07 0.0000000e+00 -5.9533776e-03 
-4.4279992e-07 0.0000000e+00 -5.5142599e-03 
1.0659591e-06 0.0000000e+00 -7.6583372e-03 
5.3782209e-15 0.0000000e+00 -6.3638571e-03 
8.3626665e-15 0.0000000e+00 -5.8445148e-03 
1.0812913e-14 0.0000000e+00 -6.0723163e-03 
1.3473496e-14 0.0000000e+00 -6.2306891e-03 
1.6206891e-14 0.0000000e+00 -5.7776524e-03 
1.8020873e-14 0.0000000e+00 -7.9823993e-03 
5.6847165e-07 0.0000000e+00 -6.0742693e-03 
-1.3767341e-07 0.0000000e+00 -5.5729742e-03 
5.4498411e-08 0.0000000e+00 -5.7973070e-03 
-1.0970363e-07 0.0000000e+00 -5.9533776e-03 
4.4279994e-07 0.0000000e+00 -5.5142599e-03 
-1.0659589e-06 0.0000000e+00 -7.6583372e-03 
1.1369433e-06 0.0000000e+00 -5.2456874e-03 
-2.7534682e-07 0.0000000e+00 -4.7985343e-03 
1.0899682e-07 0.0000000e+00 -5.0124610e-03 
-2.1940727e-07 0.0000000e+00 -5.1616244e-03 
8.8559989e-07 0.0000000e+00 -4.7642649e-03 
-2.1319179e-06 0.0000000e+00 -6.7263311e-03 
1.7054149e-06 0.0000000e+00 -3.9986577e-03 
-4.1302022e-07 0.0000000e+00 -3.6417414e-03 
1.6349522e-07 0.0000000e+00 -3.8383240e-03 
-3.2911092e-07 0.0000000e+00 -3.9759758e-03 
1.3283999e-06 0.0000000e+00 -3.6482122e-03 
-3.1978770e-06 0.0000000e+00 -5.3069275e-03 
2.2738866e-06 0.0000000e+00 -2.5340898e-03 
-5.5069364e-07 0.0000000e+00 -2.3035044e-03 
2.1799362e-07 0.0000000e+00 -2.4758058e-03 
-4.3881454e-07 0.0000000e+00 -2.5973415e-03 
1.7711998e-06 0.0000000e+00 -2.3670122e-03 
-4.2638358e-06 0.0000000e+00 -3.6010356e-03 
2.8423583e-06 0.0000000e+00 -1.1332569e-03 
-6.8836704e-07 0.0000000e+00 -1.0650974e-03 
2.7249203e-07 0.0000000e+00 -1.2061796e-03 
-5.4851819e-07 0.0000000e+00 -1.3069948e-03 
2.2139998e-06 0.0000000e+00 -1.2019381e-03 
-5.3297949e-06 0.0000000e+00 -1.8899296e-03 
0.0000000e+00 0.0000000e+00 0.0000000e+00 
1.5487958e-04 0.0000000e+00 -1.3670427e-05 
3.0327265e-04 0.0000000e+00 -2.7246178e-05 
4.3869269e-04 0.0000000e+00 -4.0727256e-05 
5.5465318e-04 0.0000000e+00 -5.4113658e-05 
6.4466760e-04 0.0000000e+00 -6.7405381e-05 
7.0224941e-04 0.0000000e+00 -8.0602433e-05 
7.2091212e-04 0.0000000e+00 -9.3704810e-05 
6.9416920e-04 0.0000000e+00 -1.0671251e-04 
6.1553408e-04 0.0000000e+00 -1.1962554e-04 
4.7852038e-04 0.0000000e+00 -1.3244389e-04 
2.7664145e-04 0.0000000e+00 -1.4516758e-04 
3.4108298e-06 0.0000000e+00 -1.5779657e-04 
-2.4256611e-04 0.0000000e+00 -1.6918071e-04 
-3.7261369e-04 0.0000000e+00 -1.8047016e-04 
-4.0811309e-04 0.0000000e+00 -1.9166495e-04 
-3.7044543e-04 0.0000000e+00 -2.0276506e-04 
-2.8099184e-04 0.0000000e+00 -2.1377049e-04 
-1.6113347e-04 0.0000000e+00 -2.2468125e-04 
-3.2251424e-05 0.0000000e+00 -2.3549733e-04 
8.4273146e-05 0.0000000e+00 -2.4621873e-04 
1.6705910e-04 0.0000000e+00 -2.5684547e-04 
1.9472532e-04 0.0000000e+00 -2.6737753e-04 
1.4589065e-04 0.0000000e+00 -2.7781492e-04 
-8.2604049e-07 0.0000000e+00 -2.8815761e-04 
-1.5411850e-04 0.0000000e+00 -2.9725546e-04 
-2.2027569e-04 0.0000000e+00 -3.0625862e-04 
-2.1707156e-04 0.0000000e+00 -3.1516713e-04 
-1.6228002e-04 0.0000000e+00 -3.2398093e-04 
-7.3675001e-05 0.0000000e+00 -3.3270006e-04 
3.0969550e-05 0.0000000e+00 -3.4132454e-04 
1.3387970e-04 0.0000000e+00 -3.4985432e-04 
2.1728154e-04 0.0000000e+00 -3.5828943e-04 
2.6340110e-04 0.0000000e+00 -3.6662986e-04 
2.5446451e-04 0.0000000e+00 -3.7487564e-04 
1.7269778e-04 0.0000000e+00 -3.8302672e-04 
3.2699043e-07 0.0000000e+00 -3.9108313e-04 
-1.6944078e-04 0.0000000e+00 -3.9789468e-04 
-2.4435043e-04 0.0000000e+00 -4.0461155e-04 
-2.4360383e-04 0.0000000e+00 -4.1123375e-04 
-1.8640282e-04 0.0000000e+00 -4.1776127e-04 
-9.1949245e-05 0.0000000e+00 -4.2419412e-04 
2.0555040e-05 0.0000000e+00 -4.3053229e-04 
1.3190818e-04 0.0000000e+00 -4.3677579e-04 
2.2290830e-04 0.0000000e+00 -4.4292459e-04 
2.7435360e-04 0.0000000e+00 -4.4897874e-04 
2.6704217e-04 0.0000000e+00 -4.5493821e-04 
1.8177218e-04 0.0000000e+00 -4.6080301e-04 
-6.5822184e-07 0.0000000e+00 -4.6657314e-04 
-1.8832843e-04 0.0000000e+00 -4.7109838e-04 
-2.8740158e-04 0.0000000e+00 -4.7552897e-04 
-3.1420516e-04 0.0000000e+00 -4.7986486e-04 
-2.8506669e-04 0.0000000e+00 -4.8410607e-04 
-2.1631362e-04 0.0000000e+00 -4.8825264e-04 
-1.2427349e-04 0.0000000e+00 -4.9230451e-04 
-2.5273737e-05 0.0000000e+00 -4.9626169e-04 
6.4358115e-05 0.0000000e+00 -5.0012424e-04 
1.2829459e-04 0.0000000e+00 -5.0389208e-04 
1.5020819e-04 0.0000000e+00 -5.0756527e-04 
1.1377142e-04 0.0000000e+00 -5.1114376e-04 
2.6567996e-06 0.0000000e+00 -5.1462761e-04 
-8.7273605e-05 0.0000000e+00 -5.1686657e-04 
-6.7892317e-05 0.0000000e+00 -5.1901082e-04 
3.2871314e-05 0.0000000e+00 -5.2106043e-04 
1.8708792e-04 0.0000000e+00 -5.2301539e-04 
3.6682811e-04 0.0000000e+00 -5.2487565e-04 
5.4416258e-04 0.0000000e+00 -5.2664120e-04 
6.9116196e-04 0.0000000e+00 -5.2831211e-04 
7.7989680e-04 0.0000000e+00 -5.2988838e-04 
7.8243780e-04 0.0000000e+00 -5.3136994e-04 
6.7085563e-04 0.0000000e+00 -5.3275679e-04 
4.1722090e-04 0.0000000e+00 -5.3404900e-04 
-6.3957541e-06 0.0000000e+00 -5.3524651e-04 
ROTATION 3 212  float
0.0000000e+00 -6.2384270e-04 0.0000000e+00 
0.0000000e+00 -6.1086967e-04 0.0000000e+00 
0.0000000e+00 -5.7195057e-04 0.0000000e+00 
0.0000000e+00 -5.0708535e-04 0.0000000e+00 
0.0000000e+00 -4.1627412e-04 0.0000000e+00 
0.0000000e+00 -2.9951677e-04 0.0000000e+00 
0.0000000e+00 -1.5681339e-04 0.0000000e+00 
0.0000000e+00 1.1836093e-05 0.0000000e+00 
0.0000000e+00 2.0643164e-04 0.0000000e+00 
0.0000000e+00 4.2697327e-04 0.0000000e+00 
0.0000000e+00 6.7346095e-04 0.0000000e+00 
0.0000000e+00 9.4589475e-04 0.0000000e+00 
0.0000000e+00 1.2442746e-03 0.0000000e+00 
0.0000000e+00 7.3779497e-04 0.0000000e+00 
0.0000000e+00 3.1683990e-04 0.0000000e+00 
0.0000000e+00 -1.8590610e-05 0.0000000e+00 
0.0000000e+00 -2.6849660e-04 0.0000000e+00 
0.0000000e+00 -4.3287803e-04 0.0000000e+00 
0.0000000e+00 -5.1173492e-04 0.0000000e+00 
0.0000000e+00 -5.0506729e-04 0.0000000e+00 
0.0000000e+00 -4.1287515e-04 0.0000000e+00 
0.0000000e+00 -2.3515843e-04 0.0000000e+00 
0.0000000e+00 2.8082824e-05 0.0000000e+00 
0.0000000e+00 3.7684862e-04 0.0000000e+00 
0.0000000e+00 8.1113895e-04 0.0000000e+00 
0.0000000e+00 4.2705002e-04 0.0000000e+00 
0.0000000e+00 1.1405682e-04 0.0000000e+00 
0.0000000e+00 -1.2784066e-04 0.0000000e+00 
0.0000000e+00 -2.9864241e-04 0.0000000e+00 
0.0000000e+00 -3.9834841e-04 0.0000000e+00 
0.0000000e+00 -4.2695869e-04 0.0000000e+00 
0.0000000e+00 -3.8447327e-04 0.0000000e+00 
0.0000000e+00 -2.7089211e-04 0.0000000e+00 
0.0000000e+00 -8.6215216e-05 0.0000000e+00 
0.0000000e+00 1.6955740e-04 0.0000000e+00 
0.0000000e+00 4.9642572e-04 0.0000000e+00 
0.0000000e+00 8.9438981e-04 0.0000000e+00 
0.0000000e+00 4.7655363e-04 0.0000000e+00 
0.0000000e+00 1.3552487e-04 0.0000000e+00 
0.0000000e+00 -1.2869648e-04 0.0000000e+00 
0.0000000e+00 -3.1611041e-04 0.0000000e+00 
0.0000000e+00 -4.2671696e-04 0.0000000e+00 
0.0000000e+00 -4.6051608e-04 0.0000000e+00 
0.0000000e+00 -4.1750778e-04 0.0000000e+00 
0.0000000e+00 -2.9769205e-04 0.0000000e+00 
0.0000000e+00 -1.0106894e-04 0.0000000e+00 
0.0000000e+00 1.7236159e-04 0.0000000e+00 
0.0000000e+00 5.2259956e-04 0.0000000e+00 
0.0000000e+00 9.4964489e-04 0.0000000e+00 
0.0000000e+00 5.6260172e-04 0.0000000e+00 
0.0000000e+00 2.4086850e-04 0.0000000e+00 
0.0000000e+00 -1.5554770e-05 0.0000000e+00 
0.0000000e+00 -2.0666806e-04 0.0000000e+00 
0.0000000e+00 -3.3247139e-04 0.0000000e+00 
0.0000000e+00 -3.9296478e-04 0.0000000e+00 
0.0000000e+00 -3.8814818e-04 0.0000000e+00 
0.0000000e+00 -3.1802163e-04 0.0000000e+00 
0.0000000e+00 -1.8258514e-04 0.0000000e+00 
0.0000000e+00 1.8161343e-05 0.0000000e+00 
0.0000000e+00 2.8421776e-04 0.0000000e+00 
0.0000000e+00 6.1558414e-04 0.0000000e+00 
0.0000000e+00 1.2247865e-04 0.0000000e+00 
0.0000000e+00 -2.5890942e-04 0.0000000e+00 
0.0000000e+00 -5.2858004e-04 0.0000000e+00 
0.0000000e+00 -6.8653323e-04 0.0000000e+00 
0.0000000e+00 -7.3276891e-04 0.0000000e+00 
0.0000000e+00 -6.6728721e-04 0.0000000e+00 
0.0000000e+00 -4.9008802e-04 0.0000000e+00 
0.0000000e+00 -2.0117137e-04 0.0000000e+00 
0.0000000e+00 1.9946272e-04 0.0000000e+00 
0.0000000e+00 7.1181427e-04 0.0000000e+00 
0.0000000e+00 1.3358833e-03 0.0000000e+00 
0.0000000e+00 2.0716696e-03 0.0000000e+00 
0.0000000e+00 2.5102331e-03 0.0000000e+00 
0.0000000e+00 2.1492867e-03 0.0000000e+00 
0.0000000e+00 2.2186623e-03 0.0000000e+00 
0.0000000e+00 2.2647083e-03 0.0000000e+00 
0.0000000e+00 1.9863243e-03 0.0000000e+00 
0.0000000e+00 3.1997289e-03 0.0000000e+00 
0.0000000e+00 2.9725528e-03 0.0000000e+00 
0.0000000e+00 2.6837958e-03 0.0000000e+00 
0.0000000e+00 2.7392963e-03 0.0000000e+00 
0.0000000e+00 2.7761329e-03 0.0000000e+00 
0.0000000e+00 2.5534257e-03 0.0000000e+00 
0.0000000e+00 3.5241495e-03 0.0000000e+00 
0.0000000e+00 2.7919617e-03 0.0000000e+00 
0.0000000e+00 2.5753938e-03 0.0000000e+00 
0.0000000e+00 2.6170192e-03 0.0000000e+00 
0.0000000e+00 2.6446467e-03 0.0000000e+00 
0.0000000e+00 2.4776165e-03 0.0000000e+00 
0.0000000e+00 3.2056591e-03 0.0000000e+00 
0.0000000e+00 2.1291873e-03 0.0000000e+00 
0.0000000e+00 1.9848088e-03 0.0000000e+00 
0.0000000e+00 2.0125590e-03 0.0000000e+00 
0.0000000e+00 2.0309775e-03 0.0000000e+00 
0.0000000e+00 1.9196238e-03 0.0000000e+00 
0.0000000e+00 2.4049857e-03 0.0000000e+00 
0.0000000e+00 1.1449575e-03 0.0000000e+00 
0.0000000e+00 1.0727682e-03 0.0000000e+00 
0.0000000e+00 1.0866434e-03 0.0000000e+00 
0.0000000e+00 1.0958526e-03 0.0000000e+00 
0.0000000e+00 1.0401758e-03 0.0000000e+00 
0.0000000e+00 1.2828567e-03 0.0000000e+00 
0.0000000e+00 -5.2953763e-16 0.0000000e+00 
0.0000000e+00 -3.5987995e-16 0.0000000e+00 
0.0000000e+00 -3.3417424e-16 0.0000000e+00 
0.0000000e+00 -4.2671479e-16 0.0000000e+00 
0.0000000e+00 -3.3931539e-16 0.0000000e+00 
0.0000000e+00 -1.0972612e-16 0.0000000e+00 
0.0000000e+00 -1.1449575e-03 0.0000000e+00 
0.0000000e+00 -1.0727682e-03 0.0000000e+00 
0.0000000e+00 -1.0866434e-03 0.0000000e+00 
0.0000000e+00 -1.0958526e-03 0.0000000e+00 
0.0000000e+00 -1.0401758e-03 0.0000000e+00 
0.0000000e+00 -1.2828567e-03 0.0000000e+00 
0.0000000e+00 -2.1291873e-03 0.0000000e+00 
0.0000000e+00 -1.9848088e-03 0.0000000e+00 
0.0000000e+00 -2.0125590e-03 0.0000000e+00 
0.0000000e+00 -2.0309775e-03 0.0000000e+00 
0.0000000e+00 -1.9196238e-03 0.0000000e+00 
0.0000000e+00 -2.4049857e-03 0.0000000e+00 
0.0000000e+00 -2.7919617e-03 0.0000000e+00 
0.0000000e+00 -2.5753938e-03 0.0000000e+00 
0.0000000e+00 -2.6170192e-03 0.0000000e+00 
0.0000000e+00 -2.6446467e-03 0.0000000e+00 
0.0000000e+00 -2.4776165e-03 0.0000000e+00 
0.0000000e+00 -3.2056591e-03 0.0000000e+00 
0.0000000e+00 -2.9725528e-03 0.0000000e+00 
0.0000000e+00 -2.6837958e-03 0.0000000e+00 
0.0000000e+00 -2.7392963e-03 0.0000000e+00 
0.0000000e+00 -2.7761329e-03 0.0000000e+00 
0.0000000e+00 -2.5534257e-03 0.0000000e+00 
0.0000000e+00 -3.5241495e-03 0.0000000e+00 
0.0000000e+00 -2.5102331e-03 0.0000000e+00 
0.0000000e+00 -2.1492867e-03 0.0000000e+00 
0.0000000e+00 -2.2186623e-03 0.0000000e+00 
0.0000000e+00 -2.2647083e-03 0.0000000e+00 
0.0000000e+00 -1.9863243e-03 0.0000000e+00 
0.0000000e+00 -3.1997289e-03 0.0000000e+00 
0.0000000e+00 6.2384270e-04 0.0000000e+00 
0.0000000e+00 6.1086967e-04 0.0000000e+00 
0.0000000e+00 5.7195057e-04 0.0000000e+00 
0.0000000e+00 5.0708535e-04 0.0000000e+00 
0.0000000e+00 4.1627412e-04 0.0000000e+00 
0.0000000e+00 2.9951677e-04 0.0000000e+00 
0.0000000e+00 1.5681339e-04 0.0000000e+00 
0.0000000e+00 -1.1836093e-05 0.0000000e+00 
0.0000000e+00 -2.0643164e-04 0.0000000e+00 
0.0000000e+00 -4.2697327e-04 0.0000000e+00 
0.0000000e+00 -6.7346095e-04 0.0000000e+00 
0.0000000e+00 -9.4589475e-04 0.0000000e+00 
0.0000000e+00 -1.2442746e-03 0.0000000e+00 
0.0000000e+00 -7.3779497e-04 0.0000000e+00 
0.0000000e+00 -3.1683990e-04 0.0000000e+00 
0.0000000e+00 1.8590610e-05 0.0000000e+00 
0.0000000e+00 2.6849660e-04 0.0000000e+00 
0.0000000e+00 4.3287803e-04 0.0000000e+00 
0.0000000e+00 5.1173492e-04 0.0000000e+00 
0.0000000e+00 5.0506729e-04 0.0000000e+00 
0.0000000e+00 4.1287515e-04 0.0000000e+00 
0.0000000e+00 2.3515843e-04 0.0000000e+00 
0.0000000e+00 -2.8082824e-05 0.0000000e+00 
0.0000000e+00 -3.7684862e-04 0.0000000e+00 
0.0000000e+00 -8.1113895e-04 0.0000000e+00 
0.0000000e+00 -4.2705002e-04 0.0000000e+00 
0.0000000e+00 -1.1405682e-04 0.0000000e+00 
0.0000000e+00 1.2784066e-04 0.0000000e+00 
0.0000000e+00 2.9864241e-04 0.0000000e+00 
0.0000000e+00 3.9834841e-04 0.0000000e+00 
0.0000000e+00 4.2695869e-04 0.0000000e+00 
0.0000000e+00 3.8447327e-04 0.0000000e+00 
0.0000000e+00 2.7089211e-04 0.0000000e+00 
0.0000000e+00 8.6215216e-05 0.0000000e+00 
0.0000000e+00 -1.6955740e-04 0.0000000e+00 
0.0000000e+00 -4.9642572e-04 0.0000000e+00 
0.0000000e+00 -8.9438981e-04 0.0000000e+00 
0.0000000e+00 -4.7655363e-04 0.0000000e+00 
0.0000000e+00 -1.3552487e-04 0.0000000e+00 
0.0000000e+00 1.2869648e-04 0.0000000e+00 
0.0000000e+00 3.1611041e-04 0.0000000e+00 
0.0000000e+00 4.2671696e-04 0.0000000e+00 
0.0000000e+00 4.6051608e-04 0.0000000e+00 
0.0000000e+00 4.1750778e-04 0.0000000e+00 
0.0000000e+00 2.9769205e-04 0.0000000e+00 
0.0000000e+00 1.0106894e-04 0.0000000e+00 
0.0000000e+00 -1.7236159e-04 0.0000000e+00 
0.0000000e+00 -5.2259956e-04 0.0000000e+00 
0.0000000e+00 -9.4964489e-04 0.0000000e+00 
0.0000000e+00 -5.6260172e-04 0.0000000e+00 
0.0000000e+00 -2.4086850e-04 0.0000000e+00 
0.0000000e+00 1.5554770e-05 0.0000000e+00 
0.0000000e+00 2.0666806e-04 0.0000000e+00 
0.0000000e+00 3.3247139e-04 0.0000000e+00 
0.0000000e+00 3.9296478e-04 0.0000000e+00 
0.0000000e+00 3.8814818e-04 0.0000000e+00 
0.0000000e+00 3.1802163e-04 0.0000000e+00 
0.0000000e+00 1.8258514e-04 0.0000000e+00 
0.0000000e+00 -1.8161343e-05 0.0000000e+00 
0.0000000e+00 -2.8421776e-04 0.0000000e+00 
0.0000000e+00 -6.1558414e-04 0.0000000e+00 
0.0000000e+00 -1.2247865e-04 0.0000000e+00 
0.0000000e+00 2.5890942e-04 0.0000000e+00 
0.0000000e+00 5.2858004e-04 0.0000000e+00 
0.0000000e+00 6.8653323e-04 0.0000000e+00 