# vtk DataFile Version 4.0
vtk output
ASCII
DATASET UNSTRUCTURED_GRID
POINTS 212 float
0.0000000e+00 0.0000000e+00 0.0000000e+00 
0.0000000e+00 0.0000000e+00 2.5000000e-01 
0.0000000e+00 0.0000000e+00 5.0000000e-01 
0.0000000e+00 0.0000000e+00 7.5000000e-01 
0.0000000e+00 0.0000000e+00 1.0000000e+00 
0.0000000e+00 0.0000000e+00 1.2500000e+00 
0.0000000e+00 0.0000000e+00 1.5000000e+00 
0.0000000e+00 0.0000000e+00 1.7500000e+00 
0.0000000e+00 0.0000000e+00 2.0000000e+00 
0.0000000e+00 0.0000000e+00 2.2500000e+00 
0.0000000e+00 0.0000000e+00 2.5000000e+00 
0.0000000e+00 0.0000000e+00 2.7500000e+00 
0.0000000e+00 0.0000000e+00 3.0000000e+00 
0.0000000e+00 0.0000000e+00 3.2500000e+00 
0.0000000e+00 0.0000000e+00 3.5000000e+00 
0.0000000e+00 0.0000000e+00 3.7500000e+00 
0.0000000e+00 0.0000000e+00 4.0000000e+00 
0.0000000e+00 0.0000000e+00 4.2500000e+00 
0.0000000e+00 0.0000000e+00 4.5000000e+00 
0.0000000e+00 0.0000000e+00 4.7500000e+00 
0.0000000e+00 0.0000000e+00 5.0000000e+00 
0.0000000e+00 0.0000000e+00 5.2500000e+00 
0.0000000e+00 0.0000000e+00 5.5000000e+00 
0.0000000e+00 0.0000000e+00 5.7500000e+00 
0.0000000e+00 0.0000000e+00 6.0000000e+00 
0.0000000e+00 0.0000000e+00 6.2500000e+00 
0.0000000e+00 0.0000000e+00 6.5000000e+00 
0.0000000e+00 0.0000000e+00 6.7500000e+00 
0.0000000e+00 0.0000000e+00 7.0000000e+00 
0.0000000e+00 0.0000000e+00 7.2500000e+00 
0.0000000e+00 0.0000000e+00 7.5000000e+00 
0.0000000e+00 0.0000000e+00 7.7500000e+00 
0.0000000e+00 0.0000000e+00 8.0000000e+00 
0.0000000e+00 0.0000000e+00 8.2500000e+00 
0.0000000e+00 0.0000000e+00 8.5000000e+00 
0.0000000e+00 0.0000000e+00 8.7500000e+00 
0.0000000e+00 0.0000000e+00 9.0000000e+00 
0.0000000e+00 0.0000000e+00 9.2500000e+00 
0.0000000e+00 0.0000000e+00 9.5000000e+00 
0.0000000e+00 0.0000000e+00 9.7500000e+00 
0.0000000e+00 0.0000000e+00 1.0000000e+01 
0.0000000e+00 0.0000000e+00 1.0250000e+01 
0.0000000e+00 0.0000000e+00 1.0500000e+01 
0.0000000e+00 0.0000000e+00 1.0750000e+01 
0.0000000e+00 0.0000000e+00 1.1000000e+01 
0.0000000e+00 0.0000000e+00 1.1250000e+01 
0.0000000e+00 0.0000000e+00 1.1500000e+01 
0.0000000e+00 0.0000000e+00 1.1750000e+01 
0.0000000e+00 0.0000000e+00 1.2000000e+01 
0.0000000e+00 0.0000000e+00 1.2250000e+01 
0.0000000e+00 0.0000000e+00 1.2500000e+01 
0.0000000e+00 0.0000000e+00 1.2750000e+01 
0.0000000e+00 0.0000000e+00 1.3000000e+01 
0.0000000e+00 0.0000000e+00 1.3250000e+01 
0.0000000e+00 0.0000000e+00 1.3500000e+01 
0.0000000e+00 0.0000000e+00 1.3750000e+01 
0.0000000e+00 0.0000000e+00 1.4000000e+01 
0.0000000e+00 0.0000000e+00 1.4250000e+01 
0.0000000e+00 0.0000000e+00 1.4500000e+01 
0.0000000e+00 0.0000000e+00 1.4750000e+01 
0.0000000e+00 0.0000000e+00 1.5000000e+01 
0.0000000e+00 0.0000000e+00 1.5250000e+01 
0.0000000e+00 0.0000000e+00 1.5500000e+01 
0.0000000e+00 0.0000000e+00 1.5750000e+01 
0.0000000e+00 0.0000000e+00 1.6000000e+01 
0.0000000e+00 0.0000000e+00 1.6250000e+01 
0.0000000e+00 0.0000000e+00 1.6500000e+01 
0.0000000e+00 0.0000000e+00 1.6750000e+01 
0.0000000e+00 0.0000000e+00 1.7000000e+01 
0.0000000e+00 0.0000000e+00 1.7250000e+01 
0.0000000e+00 0.0000000e+00 1.7500000e+01 
0.0000000e+00 0.0000000e+00 1.7750000e+01 
0.0000000e+00 0.0000000e+00 1.8000000e+01 
6.0000000e+00 0.0000000e+00 0.0000000e+00 
6.0000000e+00 0.0000000e+00 2.5000000e-01 
6.0000000e+00 0.0000000e+00 5.0000000e-01 
6.0000000e+00 0.0000000e+00 7.5000000e-01 
6.0000000e+00 0.0000000e+00 1.0000000e+00 
6.0000000e+00 0.0000000e+00 1.2500000e+00 
6.0000000e+00 0.0000000e+00 1.5000000e+00 
6.0000000e+00 0.0000000e+00 1.7500000e+00 
6.0000000e+00 0.0000000e+00 2.0000000e+00 
6.0000000e+00 0.0000000e+00 2.2500000e+00 
6.0000000e+00 0.0000000e+00 2.5000000e+00 
6.0000000e+00 0.0000000e+00 2.7500000e+00 
6.0000000e+00 0.0000000e+00 3.0000000e+00 
6.0000000e+00 0.0000000e+00 3.2500000e+00 
6.0000000e+00 0.0000000e+00 3.5000000e+00 
6.0000000e+00 0.0000000e+00 3.7500000e+00 
6.0000000e+00 0.0000000e+00 4.0000000e+00 
6.0000000e+00 0.0000000e+00 4.2500000e+00 
6.0000000e+00 0.0000000e+00 4.5000000e+00 
6.0000000e+00 0.0000000e+00 4.7500000e+00 
6.0000000e+00 0.0000000e+00 5.0000000e+00 
6.0000000e+00 0.0000000e+00 5.2500000e+00 
6.0000000e+00 0.0000000e+00 5.5000000e+00 
6.0000000e+00 0.0000000e+00 5.7500000e+00 
6.0000000e+00 0.0000000e+00 6.0000000e+00 
6.0000000e+00 0.0000000e+00 6.2500000e+00 
6.0000000e+00 0.0000000e+00 6.5000000e+00 
6.0000000e+00 0.0000000e+00 6.7500000e+00 
6.0000000e+00 0.0000000e+00 7.0000000e+00 
6.0000000e+00 0.0000000e+00 7.2500000e+00 
6.0000000e+00 0.0000000e+00 7.5000000e+00 
6.0000000e+00 0.0000000e+00 7.7500000e+00 
6.0000000e+00 0.0000000e+00 8.0000000e+00 
6.0000000e+00 0.0000000e+00 8.2500000e+00 
6.0000000e+00 0.0000000e+00 8.5000000e+00 
6.0000000e+00 0.0000000e+00 8.7500000e+00 
6.0000000e+00 0.0000000e+00 9.0000000e+00 
6.0000000e+00 0.0000000e+00 9.2500000e+00 
6.0000000e+00 0.0000000e+00 9.5000000e+00 
6.0000000e+00 0.0000000e+00 9.7500000e+00 
6.0000000e+00 0.0000000e+00 1.0000000e+01 
6.0000000e+00 0.0000000e+00 1.0250000e+01 
6.0000000e+00 0.0000000e+00 1.0500000e+01 
6.0000000e+00 0.0000000e+00 1.0750000e+01 
6.0000000e+00 0.0000000e+00 1.1000000e+01 
6.0000000e+00 0.0000000e+00 1.1250000e+01 
6.0000000e+00 0.0000000e+00 1.1500000e+01 
6.0000000e+00 0.0000000e+00 1.1750000e+01 
6.0000000e+00 0.0000000e+00 1.2000000e+01 
6.0000000e+00 0.0000000e+00 1.2250000e+01 
6.0000000e+00 0.0000000e+00 1.2500000e+01 
6.0000000e+00 0.0000000e+00 1.2750000e+01 
6.0000000e+00 0.0000000e+00 1.3000000e+01 
6.0000000e+00 0.0000000e+00 1.3250000e+01 
6.0000000e+00 0.0000000e+00 1.3500000e+01 
6.0000000e+00 0.0000000e+00 1.3750000e+01 
6.0000000e+00 0.0000000e+00 1.4000000e+01 
6.0000000e+00 0.0000000e+00 1.4250000e+01 
6.0000000e+00 0.0000000e+00 1.4500000e+01 
6.0000000e+00 0.0000000e+00 1.4750000e+01 
6.0000000e+00 0.0000000e+00 1.5000000e+01 
6.0000000e+00 0.0000000e+00 1.5250000e+01 
6.0000000e+00 0.0000000e+00 1.5500000e+01 
6.0000000e+00 0.0000000e+00 1.5750000e+01 
6.0000000e+00 0.0000000e+00 1.6000000e+01 
6.0000000e+00 0.0000000e+00 1.6250000e+01 
6.0000000e+00 0.0000000e+00 1.6500000e+01 
6.0000000e+00 0.0000000e+00 1.6750000e+01 
6.0000000e+00 0.0000000e+00 1.7000000e+01 
6.0000000e+00 0.0000000e+00 1.7250000e+01 
6.0000000e+00 0.0000000e+00 1.7500000e+01 
6.0000000e+00 0.0000000e+00 1.7750000e+01 
6.0000000e+00 0.0000000e+00 1.8000000e+01 
5.0000000e-01 0.0000000e+00 3.0000000e+00 
1.0000000e+00 0.0000000e+00 3.0000000e+00 
1.5000000e+00 0.0000000e+00 3.0000000e+00 
2.0000000e+00 0.0000000e+00 3.0000000e+00 
2.5000000e+00 0.0000000e+00 3.0000000e+00 
3.0000000e+00 0.0000000e+00 3.0000000e+00 
3.5000000e+00 0.0000000e+00 3.0000000e+00 
4.0000000e+00 0.0000000e+00 3.0000000e+00 
4.5000000e+00 0.0000000e+00 3.0000000e+00 
5.0000000e+00 0.0000000e+00 3.0000000e+00 
5.5000000e+00 0.0000000e+00 3.0000000e+00 
5.0000000e-01 0.0000000e+00 6.0000000e+00 
1.0000000e+00 0.0000000e+00 6.0000000e+00 
1.5000000e+00 0.0000000e+00 6.0000000e+00 
2.0000000e+00 0.0000000e+00 6.0000000e+00 
2.5000000e+00 0.0000000e+00 6.0000000e+00 
3.0000000e+00 0.0000000e+00 6.0000000e+00 
3.5000000e+00 0.0000000e+00 6.0000000e+00 
4.0000000e+00 0.0000000e+00 6.0000000e+00 
4.5000000e+00 0.0000000e+00 6.0000000e+00 
5.0000000e+00 0.0000000e+00 6.0000000e+00 
5.5000000e+00 0.0000000e+00 6.0000000e+00 
5.0000000e-01 0.0000000e+00 9.0000000e+00 
1.0000000e+00 0.0000000e+00 9.0000000e+00 
1.5000000e+00 0.0000000e+00 9.0000000e+00 
2.0000000e+00 0.0000000e+00 9.0000000e+00 
2.5000000e+00 0.0000000e+00 9.0000000e+00 
3.0000000e+00 0.0000000e+00 9.0000000e+00 
3.5000000e+00 0.0000000e+00 9.0000000e+00 
4.0000000e+00 0.0000000e+00 9.0000000e+00 
4.5000000e+00 0.0000000e+00 9.0000000e+00 
5.0000000e+00 0.0000000e+00 9.0000000e+00 
5.5000000e+00 0.0000000e+00 9.0000000e+00 
5.0000000e-01 0.0000000e+00 1.2000000e+01 
1.0000000e+00 0.0000000e+00 1.2000000e+01 
1.5000000e+00 0.0000000e+00 1.2000000e+01 
2.0000000e+00 0.0000000e+00 1.2000000e+01 
2.5000000e+00 0.0000000e+00 1.2000000e+01 
3.0000000e+00 0.0000000e+00 1.2000000e+01 
3.5000000e+00 0.0000000e+00 1.2000000e+01 
4.0000000e+00 0.0000000e+00 1.2000000e+01 
4.5000000e+00 0.0000000e+00 1.2000000e+01 
5.0000000e+00 0.0000000e+00 1.2000000e+01 
5.5000000e+00 0.0000000e+00 1.2000000e+01 
5.0000000e-01 0.0000000e+00 1.5000000e+01 
1.0000000e+00 0.0000000e+00 1.5000000e+01 
1.5000000e+00 0.0000000e+00 1.5000000e+01 
2.0000000e+00 0.0000000e+00 1.5000000e+01 
2.5000000e+00 0.0000000e+00 1.5000000e+01 
3.0000000e+00 0.0000000e+00 1.5000000e+01 
3.5000000e+00 0.0000000e+00 1.5000000e+01 
4.0000000e+00 0.0000000e+00 1.5000000e+01 
4.5000000e+00 0.0000000e+00 1.5000000e+01 
5.0000000e+00 0.0000000e+00 1.5000000e+01 
5.5000000e+00 0.0000000e+00 1.5000000e+01 
5.0000000e-01 0.0000000e+00 1.8000000e+01 
1.0000000e+00 0.0000000e+00 1.8000000e+01 
1.5000000e+00 0.0000000e+00 1.8000000e+01 
2.0000000e+00 0.0000000e+00 1.8000000e+01 
2.5000000e+00 0.0000000e+00 1.8000000e+01 
3.0000000e+00 0.0000000e+00 1.8000000e+01 
3.5000000e+00 0.0000000e+00 1.8000000e+01 
4.0000000e+00 0.0000000e+00 1.8000000e+01 
4.5000000e+00 0.0000000e+00 1.8000000e+01 
5.0000000e+00 0.0000000e+00 1.8000000e+01 
5.5000000e+00 0.0000000e+00 1.8000000e+01 

CELLS 216 648
2 0 1
2 1 2
2 2 3
2 3 4
2 4 5
2 5 6
2 6 7
2 7 8
2 8 9
2 9 10
2 10 11
2 11 12
2 12 13
2 13 14
2 14 15
2 15 16
2 16 17
2 17 18
2 18 19
2 19 20
2 20 21
2 21 22
2 22 23
2 23 24
2 24 25
2 25 26
2 26 27
2 27 28
2 28 29
2 29 30
2 30 31
2 31 32
2 32 33
2 33 34
2 34 35
2 35 36
2 36 37
2 37 38
2 38 39
2 39 40
2 40 41
2 41 42
2 42 43
2 43 44
2 44 45
2 45 46
2 46 47
2 47 48
2 48 49
2 49 50
2 50 51
2 51 52
2 52 53
2 53 54
2 54 55
2 55 56
2 56 57
2 57 58
2 58 59
2 59 60
2 60 61
2 61 62
2 62 63
2 63 64
2 64 65
2 65 66
2 66 67
2 67 68
2 68 69
2 69 70
2 70 71
2 71 72
2 73 74
2 74 75
2 75 76
2 76 77
2 77 78
2 78 79
2 79 80
2 80 81
2 81 82
2 82 83
2 83 84
2 84 85
2 85 86
2 86 87
2 87 88
2 88 89
2 89 90
2 90 91
2 91 92
2 92 93
2 93 94
2 94 95
2 95 96
2 96 97
2 97 98
2 98 99
2 99 100
2 100 101
2 101 102
2 102 103
2 103 104
2 104 105
2 105 106
2 106 107
2 107 108
2 108 109
2 109 110
2 110 111
2 111 112
2 112 113
2 113 114
2 114 115
2 115 116
2 116 117
2 117 118
2 118 119
2 119 120
2 120 121
2 121 122
2 122 123
2 123 124
2 124 125
2 125 126
2 126 127
2 127 128
2 128 129
2 129 130
2 130 131
2 131 132
2 132 133
2 133 134
2 134 135
2 135 136
2 136 137
2 137 138
2 138 139
2 139 140
2 140 141
2 141 142
2 142 143
2 143 144
2 144 145
2 12 146
2 146 147
2 147 148
2 148 149
2 149 150
2 150 151
2 151 152
2 152 153
2 153 154
2 154 155
2 155 156
2 156 85
2 24 157
2 157 158
2 158 159
2 159 160
2 160 161
2 161 162
2 162 163
2 163 164
2 164 165
2 165 166
2 166 167
2 167 97
2 36 168
2 168 169
2 169 170
2 170 171
2 171 172
2 172 173
2 173 174
2 174 175
2 175 176
2 176 177
2 177 178
2 178 109
2 48 179
2 179 180
2 180 181
2 181 182
2 182 183
2 183 184
2 184 185
2 185 186
2 186 187
2 187 188
2 188 189
2 189 121
2 60 190
2 190 191
2 191 192
2 192 193
2 193 194
2 194 195
2 195 196
2 196 197
2 197 198
2 198 199
2 199 200
2 200 133
2 72 201
2 201 202
2 202 203
2 203 204
2 204 205
2 205 206
2 206 207
2 207 208
2 208 209
2 209 210
2 210 211
2 211 145

CELL_TYPES 216
3
3
3
3
3
3
3
3
3
3
3
3
3
3
3
3
3
3
3
3
3
3
3
3
3
3
3
3
3
3
3
3
3
3
3
3
3
3
3
3
3
3
3
3
3
3
3
3
3
3
3
3
3
3
3
3
3
3
3
3
3
3
3
3
3
3
3
3
3
3
3
3
3
3
3
3
3
3
3
3
3
3
3
3
3
3
3
3
3
3
3
3
3
3
3
3
3
3
3
3
3
3
3
3
3
3
3
3
3
3
3
3
3
3
3
3
3
3
3
3
3
3
3
3
3
3
3
3
3
3
3
3
3
3
3
3
3
3
3
3
3
3
3
3
3
3
3
3
3
3
3
3
3
3
3
3
3
3
3
3
3
3
3
3
3
3
3
3
3
3
3
3
3
3
3
3
3
3
3
3
3
3
3
3
3
3
3
3
3
3
3
3
3
3
3
3
3
3
3
3
3
3
3
3
3
3
3
3
3
3
3
3
3
3
3
3
POINT_DATA 212
FIELD FieldData 3
ADJOINT_DISPLACEMENT 3 212  float
0.0000000e+00 0.0000000e+00 0.0000000e+00 
1.1831852e-02 0.0000000e+00 9.3131453e-16 
2.3744751e-02 0.0000000e+00 1.8626291e-15 
3.5819743e-02 0.0000000e+00 2.7939437e-15 
4.8137873e-02 0.0000000e+00 3.7252581e-15 
6.0780190e-02 0.0000000e+00 4.6565725e-15 
7.3827744e-02 0.0000000e+00 5.5878874e-15 
8.7361567e-02 0.0000000e+00 6.5192018e-15 
1.0146272e-01 0.0000000e+00 7.4505162e-15 
1.1621225e-01 0.0000000e+00 8.3818306e-15 
1.3169119e-01 0.0000000e+00 9.3131450e-15 
1.4798060e-01 0.0000000e+00 1.0244459e-14 
1.6516152e-01 0.0000000e+00 1.1175775e-14 
1.8510288e-01 0.0000000e+00 -4.5875174e-07 
2.0929533e-01 0.0000000e+00 -9.1750348e-07 
2.3725249e-01 0.0000000e+00 -1.3762552e-06 
2.6848799e-01 0.0000000e+00 -1.8350070e-06 
3.0251545e-01 0.0000000e+00 -2.2937588e-06 
3.3884850e-01 0.0000000e+00 -2.7525105e-06 
3.7700078e-01 0.0000000e+00 -3.2112623e-06 
4.1648591e-01 0.0000000e+00 -3.6700139e-06 
4.5681748e-01 0.0000000e+00 -4.1287658e-06 
4.9750918e-01 0.0000000e+00 -4.5875177e-06 
5.3807461e-01 0.0000000e+00 -5.0462691e-06 
5.7802743e-01 0.0000000e+00 -5.5050209e-06 
6.1790389e-01 0.0000000e+00 -5.0210174e-06 
6.5823382e-01 0.0000000e+00 -4.5370134e-06 
6.9852072e-01 0.0000000e+00 -4.0530099e-06 
7.3826814e-01 0.0000000e+00 -3.5690061e-06 
7.7697968e-01 0.0000000e+00 -3.0850024e-06 
8.1415892e-01 0.0000000e+00 -2.6009986e-06 
8.4930944e-01 0.0000000e+00 -2.1169949e-06 
8.8193476e-01 0.0000000e+00 -1.6329911e-06 
9.1153854e-01 0.0000000e+00 -1.1489875e-06 
9.3762428e-01 0.0000000e+00 -6.6498376e-07 
9.5969552e-01 0.0000000e+00 -1.8098001e-07 
9.7725594e-01 0.0000000e+00 3.0302371e-07 
9.9149948e-01 0.0000000e+00 4.0403245e-07 
1.0040286e+00 0.0000000e+00 5.0504121e-07 
1.0149595e+00 0.0000000e+00 6.0604992e-07 
1.0244086e+00 0.0000000e+00 7.0705869e-07 
1.0324919e+00 0.0000000e+00 8.0806740e-07 
1.0393260e+00 0.0000000e+00 9.0907616e-07 
1.0450269e+00 0.0000000e+00 1.0100849e-06 
1.0497110e+00 0.0000000e+00 1.1110936e-06 
1.0534945e+00 0.0000000e+00 1.2121023e-06 
1.0564936e+00 0.0000000e+00 1.3131111e-06 
1.0588249e+00 0.0000000e+00 1.4141199e-06 
1.0606042e+00 0.0000000e+00 1.5151286e-06 
1.0621885e+00 0.0000000e+00 1.5361719e-06 
1.0638385e+00 0.0000000e+00 1.5572152e-06 
1.0655274e+00 0.0000000e+00 1.5782585e-06 
1.0672283e+00 0.0000000e+00 1.5993020e-06 
1.0689141e+00 0.0000000e+00 1.6203453e-06 
1.0705578e+00 0.0000000e+00 1.6413886e-06 
1.0721326e+00 0.0000000e+00 1.6624319e-06 
1.0736113e+00 0.0000000e+00 1.6834753e-06 
1.0749670e+00 0.0000000e+00 1.7045186e-06 
1.0761727e+00 0.0000000e+00 1.7255619e-06 
1.0772016e+00 0.0000000e+00 1.7466053e-06 
1.0780265e+00 0.0000000e+00 1.7676487e-06 
1.0786978e+00 0.0000000e+00 1.7718572e-06 
1.0792871e+00 0.0000000e+00 1.7760659e-06 
1.0797994e+00 0.0000000e+00 1.7802745e-06 
1.0802404e+00 0.0000000e+00 1.7844832e-06 
1.0806148e+00 0.0000000e+00 1.7886919e-06 
1.0809282e+00 0.0000000e+00 1.7929004e-06 
1.0811857e+00 0.0000000e+00 1.7971091e-06 
1.0813924e+00 0.0000000e+00 1.8013177e-06 
1.0815537e+00 0.0000000e+00 1.8055264e-06 
1.0816747e+00 0.0000000e+00 1.8097350e-06 
1.0817608e+00 0.0000000e+00 1.8139436e-06 
1.0818168e+00 0.0000000e+00 1.8181523e-06 
0.0000000e+00 0.0000000e+00 0.0000000e+00 
1.5693253e-02 0.0000000e+00 -8.7054711e-16 
3.1305458e-02 0.0000000e+00 -1.7410968e-15 
4.6755575e-02 0.0000000e+00 -2.6116630e-15 
6.1962549e-02 0.0000000e+00 -3.4822429e-15 
7.6845333e-02 0.0000000e+00 -4.3528557e-15 
9.1322891e-02 0.0000000e+00 -5.2234337e-15 
1.0531417e-01 0.0000000e+00 -6.0940010e-15 
1.1873811e-01 0.0000000e+00 -6.9645967e-15 
1.3151370e-01 0.0000000e+00 -7.8351920e-15 
1.4355986e-01 0.0000000e+00 -8.7058114e-15 
1.5479556e-01 0.0000000e+00 -9.5764130e-15 
1.6513973e-01 0.0000000e+00 -1.0447020e-14 
1.7616412e-01 0.0000000e+00 4.5875174e-07 
1.8981870e-01 0.0000000e+00 9.1750348e-07 
2.0658983e-01 0.0000000e+00 1.3762552e-06 
2.2696391e-01 0.0000000e+00 1.8350070e-06 
2.5142729e-01 0.0000000e+00 2.2937588e-06 
2.8046638e-01 0.0000000e+00 2.7525105e-06 
3.1456751e-01 0.0000000e+00 3.2112623e-06 
3.5421705e-01 0.0000000e+00 3.6700139e-06 
3.9990142e-01 0.0000000e+00 4.1287658e-06 
4.5210692e-01 0.0000000e+00 4.5875177e-06 
5.1131999e-01 0.0000000e+00 5.0462691e-06 
5.7802701e-01 0.0000000e+00 5.5050209e-06 
6.4462090e-01 0.0000000e+00 5.0210174e-06 
7.0350134e-01 0.0000000e+00 4.5370134e-06 
7.5516474e-01 0.0000000e+00 4.0530099e-06 
8.0010754e-01 0.0000000e+00 3.5690061e-06 
8.3882612e-01 0.0000000e+00 3.0850024e-06 
8.7181699e-01 0.0000000e+00 2.6009986e-06 
8.9957654e-01 0.0000000e+00 2.1169949e-06 
9.2260122e-01 0.0000000e+00 1.6329911e-06 
9.4138741e-01 0.0000000e+00 1.1489875e-06 
9.5643157e-01 0.0000000e+00 6.6498376e-07 
9.6823013e-01 0.0000000e+00 1.8098001e-07 
9.7727948e-01 0.0000000e+00 -3.0302371e-07 
9.8525816e-01 0.0000000e+00 -4.0403245e-07 
9.9343610e-01 0.0000000e+00 -5.0504121e-07 
1.0016971e+00 0.0000000e+00 -6.0604992e-07 
1.0099249e+00 0.0000000e+00 -7.0705869e-07 
1.0180031e+00 0.0000000e+00 -8.0806740e-07 
1.0258156e+00 0.0000000e+00 -9.0907616e-07 
1.0332462e+00 0.0000000e+00 -1.0100849e-06 
1.0401783e+00 0.0000000e+00 -1.1110936e-06 
1.0464959e+00 0.0000000e+00 -1.2121023e-06 
1.0520828e+00 0.0000000e+00 -1.3131111e-06 
1.0568224e+00 0.0000000e+00 -1.4141199e-06 
1.0605987e+00 0.0000000e+00 -1.5151286e-06 
1.0636549e+00 0.0000000e+00 -1.5361719e-06 
1.0663295e+00 0.0000000e+00 -1.5572152e-06 
1.0686496e+00 0.0000000e+00 -1.5782585e-06 
1.0706422e+00 0.0000000e+00 -1.5993020e-06 
1.0723342e+00 0.0000000e+00 -1.6203453e-06 
1.0737525e+00 0.0000000e+00 -1.6413886e-06 
1.0749242e+00 0.0000000e+00 -1.6624319e-06 
1.0758764e+00 0.0000000e+00 -1.6834753e-06 
1.0766357e+00 0.0000000e+00 -1.7045186e-06 
1.0772295e+00 0.0000000e+00 -1.7255619e-06 
1.0776845e+00 0.0000000e+00 -1.7466052e-06 
1.0780277e+00 0.0000000e+00 -1.7676487e-06 
1.0783353e+00 0.0000000e+00 -1.7718572e-06 
1.0786618e+00 0.0000000e+00 -1.7760659e-06 
1.0790019e+00 0.0000000e+00 -1.7802745e-06 
1.0793505e+00 0.0000000e+00 -1.7844832e-06 
1.0797023e+00 0.0000000e+00 -1.7886919e-06 
1.0800520e+00 0.0000000e+00 -1.7929004e-06 
1.0803946e+00 0.0000000e+00 -1.7971091e-06 
1.0807247e+00 0.0000000e+00 -1.8013177e-06 
1.0810372e+00 0.0000000e+00 -1.8055264e-06 
1.0813268e+00 0.0000000e+00 -1.8097350e-06 
1.0815884e+00 0.0000000e+00 -1.8139436e-06 
1.0818167e+00 0.0000000e+00 -1.8181523e-06 
1.6515970e-01 0.0000000e+00 -2.8159879e-02 
1.6515790e-01 0.0000000e+00 -4.3553919e-02 
1.6515608e-01 0.0000000e+00 -4.8475873e-02 
1.6515426e-01 0.0000000e+00 -4.5219507e-02 
1.6515245e-01 0.0000000e+00 -3.6078576e-02 
1.6515063e-01 0.0000000e+00 -2.3346839e-02 
1.6514881e-01 0.0000000e+00 -9.3180574e-03 
1.6514701e-01 0.0000000e+00 3.7140131e-03 
1.6514519e-01 0.0000000e+00 1.3455614e-02 
1.6514337e-01 0.0000000e+00 1.7612983e-02 
1.6514155e-01 0.0000000e+00 1.3892366e-02 
5.7802737e-01 0.0000000e+00 -7.4090861e-02 
5.7802731e-01 0.0000000e+00 -1.3526706e-01 
5.7802731e-01 0.0000000e+00 -1.7882033e-01 
5.7802725e-01 0.0000000e+00 -2.0003688e-01 
5.7802725e-01 0.0000000e+00 -1.9420296e-01 
5.7802719e-01 0.0000000e+00 -1.5660475e-01 
5.7802719e-01 0.0000000e+00 -8.2528524e-02 
5.7802713e-01 0.0000000e+00 3.2739535e-02 
5.7802713e-01 0.0000000e+00 1.9391319e-01 
5.7802707e-01 0.0000000e+00 4.0570623e-01 
5.7802707e-01 0.0000000e+00 1.7283240e-01 
9.7725791e-01 0.0000000e+00 -2.4244668e-02 
9.7725987e-01 0.0000000e+00 -3.7698220e-02 
9.7726184e-01 0.0000000e+00 -4.2275332e-02 
9.7726381e-01 0.0000000e+00 -3.9890975e-02 
9.7726578e-01 0.0000000e+00 -3.2460127e-02 
9.7726774e-01 0.0000000e+00 -2.1897763e-02 
9.7726965e-01 0.0000000e+00 -1.0118854e-02 
9.7727162e-01 0.0000000e+00 9.6162071e-04 
9.7727358e-01 0.0000000e+00 9.4286883e-03 
9.7727555e-01 0.0000000e+00 1.3367373e-02 
9.7727752e-01 0.0000000e+00 1.0862702e-02 
1.0606037e+00 0.0000000e+00 -2.0930024e-03 
1.0606034e+00 0.0000000e+00 -2.4739876e-03 
1.0606029e+00 0.0000000e+00 -1.5412678e-03 
1.0606024e+00 0.0000000e+00 3.0533006e-04 
1.0606019e+00 0.0000000e+00 2.6659791e-03 
1.0606015e+00 0.0000000e+00 5.1408522e-03 
1.0606010e+00 0.0000000e+00 7.3301229e-03 
1.0606006e+00 0.0000000e+00 8.8339634e-03 
1.0606002e+00 0.0000000e+00 9.2525464e-03 
1.0605997e+00 0.0000000e+00 8.1860460e-03 
1.0605992e+00 0.0000000e+00 5.2346345e-03 
1.0780267e+00 0.0000000e+00 -1.1529147e-03 
1.0780268e+00 0.0000000e+00 -1.8171301e-03 
1.0780269e+00 0.0000000e+00 -2.0750521e-03 
1.0780270e+00 0.0000000e+00 -2.0108540e-03 
1.0780270e+00 0.0000000e+00 -1.7087094e-03 
1.0780271e+00 0.0000000e+00 -1.2527917e-03 
1.0780272e+00 0.0000000e+00 -7.2727463e-04 
1.0780274e+00 0.0000000e+00 -2.1633142e-04 
1.0780275e+00 0.0000000e+00 1.9586436e-04 
1.0780276e+00 0.0000000e+00 4.2513924e-04 
1.0780277e+00 0.0000000e+00 3.8731974e-04 
1.0818168e+00 0.0000000e+00 -3.8393529e-05 
1.0818168e+00 0.0000000e+00 -1.2051095e-06 
1.0818168e+00 0.0000000e+00 9.2340219e-05 
1.0818168e+00 0.0000000e+00 2.2119927e-04 
1.0818168e+00 0.0000000e+00 3.6432882e-04 
1.0818168e+00 0.0000000e+00 5.0068571e-04 
1.0818168e+00 0.0000000e+00 6.0922670e-04 
1.0818167e+00 0.0000000e+00 6.6890864e-04 
1.0818167e+00 0.0000000e+00 6.5868837e-04 
1.0818167e+00 0.0000000e+00 5.5752258e-04 
1.0818167e+00 0.0000000e+00 3.4436813e-04 
ADJOINT_ROTATION 3 212  float
0.0000000e+00 4.7273379e-02 0.0000000e+00 
0.0000000e+00 4.7435470e-02 0.0000000e+00 
0.0000000e+00 4.7921751e-02 0.0000000e+00 
0.0000000e+00 4.8732214e-02 0.0000000e+00 
0.0000000e+00 4.9866866e-02 0.0000000e+00 
0.0000000e+00 5.1325701e-02 0.0000000e+00 
0.0000000e+00 5.3108726e-02 0.0000000e+00 
0.0000000e+00 5.5215936e-02 0.0000000e+00 
0.0000000e+00 5.7647329e-02 0.0000000e+00 
0.0000000e+00 6.0402911e-02 0.0000000e+00 
0.0000000e+00 6.3482679e-02 0.0000000e+00 
0.0000000e+00 6.6886634e-02 0.0000000e+00 
0.0000000e+00 7.0614770e-02 0.0000000e+00 
0.0000000e+00 8.8591859e-02 0.0000000e+00 
0.0000000e+00 1.0462345e-01 0.0000000e+00 
0.0000000e+00 1.1870955e-01 0.0000000e+00 
0.0000000e+00 1.3085017e-01 0.0000000e+00 
0.0000000e+00 1.4104529e-01 0.0000000e+00 
0.0000000e+00 1.4929491e-01 0.0000000e+00 
0.0000000e+00 1.5559904e-01 0.0000000e+00 
0.0000000e+00 1.5995769e-01 0.0000000e+00 
0.0000000e+00 1.6237085e-01 0.0000000e+00 
0.0000000e+00 1.6283850e-01 0.0000000e+00 
0.0000000e+00 1.6136067e-01 0.0000000e+00 
0.0000000e+00 1.5793735e-01 0.0000000e+00 
0.0000000e+00 1.6074380e-01 0.0000000e+00 
0.0000000e+00 1.6156454e-01 0.0000000e+00 
0.0000000e+00 1.6039959e-01 0.0000000e+00 
0.0000000e+00 1.5724891e-01 0.0000000e+00 
0.0000000e+00 1.5211253e-01 0.0000000e+00 
0.0000000e+00 1.4499044e-01 0.0000000e+00 
0.0000000e+00 1.3588265e-01 0.0000000e+00 
0.0000000e+00 1.2478913e-01 0.0000000e+00 
0.0000000e+00 1.1170992e-01 0.0000000e+00 
0.0000000e+00 9.6644990e-02 0.0000000e+00 
0.0000000e+00 7.9594351e-02 0.0000000e+00 
0.0000000e+00 6.0558006e-02 0.0000000e+00 
0.0000000e+00 5.3467736e-02 0.0000000e+00 
0.0000000e+00 4.6842527e-02 0.0000000e+00 
0.0000000e+00 4.0682387e-02 0.0000000e+00 
0.0000000e+00 3.4987312e-02 0.0000000e+00 
0.0000000e+00 2.9757306e-02 0.0000000e+00 
0.0000000e+00 2.4992365e-02 0.0000000e+00 
0.0000000e+00 2.0692492e-02 0.0000000e+00 
0.0000000e+00 1.6857684e-02 0.0000000e+00 
0.0000000e+00 1.3487943e-02 0.0000000e+00 
0.0000000e+00 1.0583268e-02 0.0000000e+00 
0.0000000e+00 8.1436597e-03 0.0000000e+00 
0.0000000e+00 6.1691185e-03 0.0000000e+00 
0.0000000e+00 6.4865155e-03 0.0000000e+00 
0.0000000e+00 6.6960044e-03 0.0000000e+00 
0.0000000e+00 6.7975852e-03 0.0000000e+00 
0.0000000e+00 6.7912582e-03 0.0000000e+00 
0.0000000e+00 6.6770227e-03 0.0000000e+00 
0.0000000e+00 6.4548790e-03 0.0000000e+00 
0.0000000e+00 6.1248275e-03 0.0000000e+00 
0.0000000e+00 5.6868675e-03 0.0000000e+00 
0.0000000e+00 5.1409998e-03 0.0000000e+00 
0.0000000e+00 4.4872235e-03 0.0000000e+00 
0.0000000e+00 3.7255397e-03 0.0000000e+00 
0.0000000e+00 2.8559472e-03 0.0000000e+00 
0.0000000e+00 2.5174774e-03 0.0000000e+00 
0.0000000e+00 2.1998794e-03 0.0000000e+00 
0.0000000e+00 1.9031531e-03 0.0000000e+00 
0.0000000e+00 1.6272989e-03 0.0000000e+00 
0.0000000e+00 1.3723165e-03 0.0000000e+00 
0.0000000e+00 1.1382059e-03 0.0000000e+00 
0.0000000e+00 9.2496729e-04 0.0000000e+00 
0.0000000e+00 7.3260051e-04 0.0000000e+00 
0.0000000e+00 5.6110561e-04 0.0000000e+00 
0.0000000e+00 4.1048264e-04 0.0000000e+00 
0.0000000e+00 2.8073150e-04 0.0000000e+00 
0.0000000e+00 1.7185227e-04 0.0000000e+00 
0.0000000e+00 6.2827043e-02 0.0000000e+00 
0.0000000e+00 6.2664948e-02 0.0000000e+00 
0.0000000e+00 6.2178671e-02 0.0000000e+00 
0.0000000e+00 6.1368205e-02 0.0000000e+00 
0.0000000e+00 6.0233556e-02 0.0000000e+00 
0.0000000e+00 5.8774717e-02 0.0000000e+00 
0.0000000e+00 5.6991696e-02 0.0000000e+00 
0.0000000e+00 5.4884486e-02 0.0000000e+00 
0.0000000e+00 5.2453090e-02 0.0000000e+00 
0.0000000e+00 4.9697511e-02 0.0000000e+00 
0.0000000e+00 4.6617743e-02 0.0000000e+00 
0.0000000e+00 4.3213788e-02 0.0000000e+00 
0.0000000e+00 3.9485648e-02 0.0000000e+00 
0.0000000e+00 4.9033668e-02 0.0000000e+00 
0.0000000e+00 6.0527179e-02 0.0000000e+00 
0.0000000e+00 7.3966183e-02 0.0000000e+00 
0.0000000e+00 8.9350678e-02 0.0000000e+00 
0.0000000e+00 1.0668066e-01 0.0000000e+00 
0.0000000e+00 1.2595615e-01 0.0000000e+00 
0.0000000e+00 1.4717712e-01 0.0000000e+00 
0.0000000e+00 1.7034358e-01 0.0000000e+00 
0.0000000e+00 1.9545552e-01 0.0000000e+00 
0.0000000e+00 2.2251298e-01 0.0000000e+00 
0.0000000e+00 2.5151590e-01 0.0000000e+00 
0.0000000e+00 2.8246433e-01 0.0000000e+00 
0.0000000e+00 2.5061765e-01 0.0000000e+00 
0.0000000e+00 2.2075669e-01 0.0000000e+00 
0.0000000e+00 1.9288144e-01 0.0000000e+00 
0.0000000e+00 1.6699187e-01 0.0000000e+00 
0.0000000e+00 1.4308803e-01 0.0000000e+00 
0.0000000e+00 1.2116990e-01 0.0000000e+00 
0.0000000e+00 1.0123748e-01 0.0000000e+00 
0.0000000e+00 8.3290763e-02 0.0000000e+00 
0.0000000e+00 6.7329757e-02 0.0000000e+00 
0.0000000e+00 5.3354461e-02 0.0000000e+00 
0.0000000e+00 4.1364871e-02 0.0000000e+00 
0.0000000e+00 3.1360991e-02 0.0000000e+00 
0.0000000e+00 3.2390740e-02 0.0000000e+00 
0.0000000e+00 3.2955423e-02 0.0000000e+00 
0.0000000e+00 3.3055037e-02 0.0000000e+00 
0.0000000e+00 3.2689590e-02 0.0000000e+00 
0.0000000e+00 3.1859070e-02 0.0000000e+00 
0.0000000e+00 3.0563489e-02 0.0000000e+00 
0.0000000e+00 2.8802838e-02 0.0000000e+00 
0.0000000e+00 2.6577121e-02 0.0000000e+00 
0.0000000e+00 2.3886338e-02 0.0000000e+00 
0.0000000e+00 2.0730488e-02 0.0000000e+00 
0.0000000e+00 1.7109571e-02 0.0000000e+00 
0.0000000e+00 1.3023589e-02 0.0000000e+00 
0.0000000e+00 1.1443592e-02 0.0000000e+00 
0.0000000e+00 9.9715022e-03 0.0000000e+00 
0.0000000e+00 8.6073214e-03 0.0000000e+00 
0.0000000e+00 7.3510483e-03 0.0000000e+00 
0.0000000e+00 6.2026838e-03 0.0000000e+00 
0.0000000e+00 5.1622274e-03 0.0000000e+00 
0.0000000e+00 4.2296788e-03 0.0000000e+00 
0.0000000e+00 3.4050385e-03 0.0000000e+00 
0.0000000e+00 2.6883062e-03 0.0000000e+00 
0.0000000e+00 2.0794822e-03 0.0000000e+00 
0.0000000e+00 1.5785662e-03 0.0000000e+00 
0.0000000e+00 1.1855583e-03 0.0000000e+00 
0.0000000e+00 1.2715099e-03 0.0000000e+00 
0.0000000e+00 1.3365896e-03 0.0000000e+00 
0.0000000e+00 1.3807974e-03 0.0000000e+00 
0.0000000e+00 1.4041334e-03 0.0000000e+00 
0.0000000e+00 1.4065974e-03 0.0000000e+00 
0.0000000e+00 1.3881896e-03 0.0000000e+00 
0.0000000e+00 1.3489099e-03 0.0000000e+00 
0.0000000e+00 1.2887584e-03 0.0000000e+00 
0.0000000e+00 1.2077349e-03 0.0000000e+00 
0.0000000e+00 1.1058395e-03 0.0000000e+00 
0.0000000e+00 9.8307233e-04 0.0000000e+00 
0.0000000e+00 8.3943323e-04 0.0000000e+00 
0.0000000e+00 4.2789329e-02 0.0000000e+00 
0.0000000e+00 1.9551408e-02 0.0000000e+00 
0.0000000e+00 9.0100378e-04 0.0000000e+00 
0.0000000e+00 -1.3161884e-02 0.0000000e+00 
0.0000000e+00 -2.2637254e-02 0.0000000e+00 
0.0000000e+00 -2.7525105e-02 0.0000000e+00 
0.0000000e+00 -2.7825439e-02 0.0000000e+00 
0.0000000e+00 -2.3538256e-02 0.0000000e+00 
0.0000000e+00 -1.4663557e-02 0.0000000e+00 
0.0000000e+00 -1.2013384e-03 0.0000000e+00 
0.0000000e+00 1.6848397e-02 0.0000000e+00 
0.0000000e+00 1.3683282e-01 0.0000000e+00 
0.0000000e+00 1.0630073e-01 0.0000000e+00 
0.0000000e+00 6.6341080e-02 0.0000000e+00 
0.0000000e+00 1.6953886e-02 0.0000000e+00 
0.0000000e+00 -4.1860867e-02 0.0000000e+00 
0.0000000e+00 -1.1010318e-01 0.0000000e+00 
0.0000000e+00 -1.8777303e-01 0.0000000e+00 
0.0000000e+00 -2.7487046e-01 0.0000000e+00 
0.0000000e+00 -3.7139541e-01 0.0000000e+00 
0.0000000e+00 -4.7734794e-01 0.0000000e+00 
0.0000000e+00 4.0727198e-01 0.0000000e+00 
0.0000000e+00 3.7060197e-02 0.0000000e+00 
0.0000000e+00 1.7392339e-02 0.0000000e+00 
0.0000000e+00 1.5544303e-03 0.0000000e+00 
0.0000000e+00 -1.0453529e-02 0.0000000e+00 
0.0000000e+00 -1.8631538e-02 0.0000000e+00 
0.0000000e+00 -2.2979598e-02 0.0000000e+00 
0.0000000e+00 -2.3497708e-02 0.0000000e+00 
0.0000000e+00 -2.0185867e-02 0.0000000e+00 
0.0000000e+00 -1.3044078e-02 0.0000000e+00 
0.0000000e+00 -2.0723380e-03 0.0000000e+00 
0.0000000e+00 1.2729351e-02 0.0000000e+00 
0.0000000e+00 2.3422271e-03 0.0000000e+00 
0.0000000e+00 -6.8501016e-04 0.0000000e+00 
0.0000000e+00 -2.9125935e-03 0.0000000e+00 
0.0000000e+00 -4.3405229e-03 0.0000000e+00 
0.0000000e+00 -4.9687978e-03 0.0000000e+00 
0.0000000e+00 -4.7974191e-03 0.0000000e+00 
0.0000000e+00 -3.8263863e-03 0.0000000e+00 
0.0000000e+00 -2.0556995e-03 0.0000000e+00 
0.0000000e+00 5.1464146e-04 0.0000000e+00 
0.0000000e+00 3.8846363e-03 0.0000000e+00 
0.0000000e+00 8.0542853e-03 0.0000000e+00 
0.0000000e+00 1.7908399e-03 0.0000000e+00 
0.0000000e+00 8.9407951e-04 0.0000000e+00 
0.0000000e+00 1.6566603e-04 0.0000000e+00 
0.0000000e+00 -3.9440047e-04 0.0000000e+00 
0.0000000e+00 -7.8612001e-04 0.0000000e+00 
0.0000000e+00 -1.0094926e-03 0.0000000e+00 
0.0000000e+00 -1.0645181e-03 0.0000000e+00 
0.0000000e+00 -9.5119682e-04 0.0000000e+00 
0.0000000e+00 -6.6952850e-04 0.0000000e+00 
0.0000000e+00 -2.1951320e-04 0.0000000e+00 
0.0000000e+00 3.9884905e-04 0.0000000e+00 
0.0000000e+00 -3.9911365e-06 0.0000000e+00 
0.0000000e+00 -1.3774815e-04 0.0000000e+00 
0.0000000e+00 -2.2941877e-04 0.0000000e+00 
0.0000000e+00 -2.7900300e-04 0.0000000e+00 
0.0000000e+00 -2.8650084e-04 0.0000000e+00 
0.0000000e+00 -2.5191231e-04 0.0000000e+00 
0.0000000e+00 -1.7523735e-04 0.0000000e+00 
0.0000000e+00 -5.6476023e-05 0.0000000e+00 
0.0000000e+00 1.0437170e-04 0.0000000e+00 