# vtk DataFile Version 4.0
vtk output
ASCII
DATASET UNSTRUCTURED_GRID
POINTS 86 float
0.0000000e+00 0.0000000e+00 0.0000000e+00 
0.0000000e+00 0.0000000e+00 6.0000002e-01 
0.0000000e+00 0.0000000e+00 1.2000000e+00 
0.0000000e+00 0.0000000e+00 1.8000000e+00 
0.0000000e+00 0.0000000e+00 2.4000001e+00 
0.0000000e+00 0.0000000e+00 3.0000000e+00 
0.0000000e+00 0.0000000e+00 3.5999999e+00 
0.0000000e+00 0.0000000e+00 4.1999998e+00 
0.0000000e+00 0.0000000e+00 4.8000002e+00 
0.0000000e+00 0.0000000e+00 5.4000001e+00 
0.0000000e+00 0.0000000e+00 6.0000000e+00 
0.0000000e+00 0.0000000e+00 6.5999999e+00 
0.0000000e+00 0.0000000e+00 7.1999998e+00 
0.0000000e+00 0.0000000e+00 7.8000002e+00 
0.0000000e+00 0.0000000e+00 8.3999996e+00 
0.0000000e+00 0.0000000e+00 9.0000000e+00 
0.0000000e+00 0.0000000e+00 9.6000004e+00 
0.0000000e+00 0.0000000e+00 1.0200000e+01 
0.0000000e+00 0.0000000e+00 1.0800000e+01 
0.0000000e+00 0.0000000e+00 1.1400000e+01 
0.0000000e+00 0.0000000e+00 1.2000000e+01 
0.0000000e+00 0.0000000e+00 1.2600000e+01 
0.0000000e+00 0.0000000e+00 1.3200000e+01 
0.0000000e+00 0.0000000e+00 1.3800000e+01 
0.0000000e+00 0.0000000e+00 1.4400000e+01 
0.0000000e+00 0.0000000e+00 1.5000000e+01 
0.0000000e+00 0.0000000e+00 1.5600000e+01 
0.0000000e+00 0.0000000e+00 1.6200001e+01 
0.0000000e+00 0.0000000e+00 1.6799999e+01 
0.0000000e+00 0.0000000e+00 1.7400000e+01 
0.0000000e+00 0.0000000e+00 1.8000000e+01 
6.0000000e+00 0.0000000e+00 0.0000000e+00 
6.0000000e+00 0.0000000e+00 6.0000002e-01 
6.0000000e+00 0.0000000e+00 1.2000000e+00 
6.0000000e+00 0.0000000e+00 1.8000000e+00 
6.0000000e+00 0.0000000e+00 2.4000001e+00 
6.0000000e+00 0.0000000e+00 3.0000000e+00 
6.0000000e+00 0.0000000e+00 3.5999999e+00 
6.0000000e+00 0.0000000e+00 4.1999998e+00 
6.0000000e+00 0.0000000e+00 4.8000002e+00 
6.0000000e+00 0.0000000e+00 5.4000001e+00 
6.0000000e+00 0.0000000e+00 6.0000000e+00 
6.0000000e+00 0.0000000e+00 6.5999999e+00 
6.0000000e+00 0.0000000e+00 7.1999998e+00 
6.0000000e+00 0.0000000e+00 7.8000002e+00 
6.0000000e+00 0.0000000e+00 8.3999996e+00 
6.0000000e+00 0.0000000e+00 9.0000000e+00 
6.0000000e+00 0.0000000e+00 9.6000004e+00 
6.0000000e+00 0.0000000e+00 1.0200000e+01 
6.0000000e+00 0.0000000e+00 1.0800000e+01 
6.0000000e+00 0.0000000e+00 1.1400000e+01 
6.0000000e+00 0.0000000e+00 1.2000000e+01 
6.0000000e+00 0.0000000e+00 1.2600000e+01 
6.0000000e+00 0.0000000e+00 1.3200000e+01 
6.0000000e+00 0.0000000e+00 1.3800000e+01 
6.0000000e+00 0.0000000e+00 1.4400000e+01 
6.0000000e+00 0.0000000e+00 1.5000000e+01 
6.0000000e+00 0.0000000e+00 1.5600000e+01 
6.0000000e+00 0.0000000e+00 1.6200001e+01 
6.0000000e+00 0.0000000e+00 1.6799999e+01 
6.0000000e+00 0.0000000e+00 1.7400000e+01 
6.0000000e+00 0.0000000e+00 1.8000000e+01 
1.2000000e+00 0.0000000e+00 3.0000000e+00 
2.4000001e+00 0.0000000e+00 3.0000000e+00 
3.5999999e+00 0.0000000e+00 3.0000000e+00 
4.8000002e+00 0.0000000e+00 3.0000000e+00 
1.2000000e+00 0.0000000e+00 6.0000000e+00 
2.4000001e+00 0.0000000e+00 6.0000000e+00 
3.5999999e+00 0.0000000e+00 6.0000000e+00 
4.8000002e+00 0.0000000e+00 6.0000000e+00 
1.2000000e+00 0.0000000e+00 9.0000000e+00 
2.4000001e+00 0.0000000e+00 9.0000000e+00 
3.5999999e+00 0.0000000e+00 9.0000000e+00 
4.8000002e+00 0.0000000e+00 9.0000000e+00 
1.2000000e+00 0.0000000e+00 1.2000000e+01 
2.4000001e+00 0.0000000e+00 1.2000000e+01 
3.5999999e+00 0.0000000e+00 1.2000000e+01 
4.8000002e+00 0.0000000e+00 1.2000000e+01 
1.2000000e+00 0.0000000e+00 1.5000000e+01 
2.4000001e+00 0.0000000e+00 1.5000000e+01 
3.5999999e+00 0.0000000e+00 1.5000000e+01 
4.8000002e+00 0.0000000e+00 1.5000000e+01 
1.2000000e+00 0.0000000e+00 1.8000000e+01 
2.4000001e+00 0.0000000e+00 1.8000000e+01 
3.5999999e+00 0.0000000e+00 1.8000000e+01 
4.8000002e+00 0.0000000e+00 1.8000000e+01 

CELLS 90 270
2 0 1
2 1 2
2 2 3
2 3 4
2 4 5
2 5 6
2 6 7
2 7 8
2 8 9
2 9 10
2 10 11
2 11 12
2 12 13
2 13 14
2 14 15
2 15 16
2 16 17
2 17 18
2 18 19
2 19 20
2 20 21
2 21 22
2 22 23
2 23 24
2 24 25
2 25 26
2 26 27
2 27 28
2 28 29
2 29 30
2 31 32
2 32 33
2 33 34
2 34 35
2 35 36
2 36 37
2 37 38
2 38 39
2 39 40
2 40 41
2 41 42
2 42 43
2 43 44
2 44 45
2 45 46
2 46 47
2 47 48
2 48 49
2 49 50
2 50 51
2 51 52
2 52 53
2 53 54
2 54 55
2 55 56
2 56 57
2 57 58
2 58 59
2 59 60
2 60 61
2 5 62
2 62 63
2 63 64
2 64 65
2 65 36
2 10 66
2 66 67
2 67 68
2 68 69
2 69 41
2 15 70
2 70 71
2 71 72
2 72 73
2 73 46
2 20 74
2 74 75
2 75 76
2 76 77
2 77 51
2 25 78
2 78 79
2 79 80
2 80 81
2 81 56
2 30 82
2 82 83
2 83 84
2 84 85
2 85 61

CELL_TYPES 90
3
3
3
3
3
3
3
3
3
3
3
3
3
3
3
3
3
3
3
3
3
3
3
3
3
3
3
3
3
3
3
3
3
3
3
3
3
3
3
3
3
3
3
3
3
3
3
3
3
3
3
3
3
3
3
3
3
3
3
3
3
3
3
3
3
3
3
3
3
3
3
3
3
3
3
3
3
3
3
3
3
3
3
3
3
3
3
3
3
3
POINT_DATA 86
FIELD FieldData 3
ADJOINT_DISPLACEMENT 3 86  float
0.0000000e+00 0.0000000e+00 0.0000000e+00 
-5.0731558e-02 0.0000000e+00 2.8377045e-14 
-1.0059299e-01 0.0000000e+00 5.6754091e-14 
-1.4871418e-01 0.0000000e+00 8.5131141e-14 
-1.9422501e-01 0.0000000e+00 1.1350818e-13 
-2.3625535e-01 0.0000000e+00 1.4188523e-13 
-2.8900957e-01 0.0000000e+00 1.6427147e-03 
-3.7156501e-01 0.0000000e+00 3.2854294e-03 
-4.9036086e-01 0.0000000e+00 4.9281442e-03 
-6.5183628e-01 0.0000000e+00 6.5708589e-03 
-8.6243057e-01 0.0000000e+00 8.2135731e-03 
-1.0722303e+00 0.0000000e+00 6.4819041e-03 
-1.2313193e+00 0.0000000e+00 4.7502345e-03 
-1.3461330e+00 0.0000000e+00 3.0185650e-03 
-1.4231068e+00 0.0000000e+00 1.2868957e-03 
-1.4686759e+00 0.0000000e+00 -4.4477376e-04 
-1.4994756e+00 0.0000000e+00 -8.0355792e-04 
-1.5272224e+00 0.0000000e+00 -1.1623421e-03 
-1.5509733e+00 0.0000000e+00 -1.5211263e-03 
-1.5697855e+00 0.0000000e+00 -1.8799105e-03 
-1.5827161e+00 0.0000000e+00 -2.2386946e-03 
-1.5916160e+00 0.0000000e+00 -2.3129054e-03 
-1.5989908e+00 0.0000000e+00 -2.3871164e-03 
-1.6048791e+00 0.0000000e+00 -2.4613272e-03 
-1.6093199e+00 0.0000000e+00 -2.5355380e-03 
-1.6123518e+00 0.0000000e+00 -2.6097489e-03 
-1.6145470e+00 0.0000000e+00 -2.6244929e-03 
-1.6164559e+00 0.0000000e+00 -2.6392366e-03 
-1.6180848e+00 0.0000000e+00 -2.6539806e-03 
-1.6194400e+00 0.0000000e+00 -2.6687244e-03 
-1.6205280e+00 0.0000000e+00 -2.6834684e-03 
0.0000000e+00 0.0000000e+00 0.0000000e+00 
-4.7831323e-02 0.0000000e+00 -2.8488141e-14 
-9.6532770e-02 0.0000000e+00 -5.6974567e-14 
-1.4697446e-01 0.0000000e+00 -8.5463720e-14 
-2.0002651e-01 0.0000000e+00 -1.1395432e-13 
-2.5655907e-01 0.0000000e+00 -1.4244302e-13 
-3.3193657e-01 0.0000000e+00 -1.6427147e-03 
-4.3665060e-01 0.0000000e+00 -3.2854294e-03 
-5.6426197e-01 0.0000000e+00 -4.9281442e-03 
-7.0833147e-01 0.0000000e+00 -6.5708589e-03 
-8.6241984e-01 0.0000000e+00 -8.2135731e-03 
-1.0157017e+00 0.0000000e+00 -6.4819041e-03 
-1.1573540e+00 0.0000000e+00 -4.7502345e-03 
-1.2809415e+00 0.0000000e+00 -3.0185650e-03 
-1.3800290e+00 0.0000000e+00 -1.2868957e-03 
-1.4481809e+00 0.0000000e+00 4.4477376e-04 
-1.4934741e+00 0.0000000e+00 8.0355792e-04 
-1.5289040e+00 0.0000000e+00 1.1623421e-03 
-1.5554136e+00 0.0000000e+00 1.5211263e-03 
-1.5739455e+00 0.0000000e+00 1.8799105e-03 
-1.5854430e+00 0.0000000e+00 2.2386946e-03 
-1.5931771e+00 0.0000000e+00 2.3129054e-03 
-1.5997648e+00 0.0000000e+00 2.3871164e-03 
-1.6051674e+00 0.0000000e+00 2.4613272e-03 
-1.6093459e+00 0.0000000e+00 2.5355380e-03 
-1.6122617e+00 0.0000000e+00 2.6097489e-03 
-1.6144130e+00 0.0000000e+00 2.6244929e-03 
-1.6163199e+00 0.0000000e+00 2.6392366e-03 
-1.6179761e+00 0.0000000e+00 2.6539806e-03 
-1.6193750e+00 0.0000000e+00 2.6687244e-03 
-1.6205103e+00 0.0000000e+00 2.6834684e-03 
-2.4031609e-01 0.0000000e+00 3.2459956e-02 
-2.4437682e-01 0.0000000e+00 1.3797494e-03 
-2.4843757e-01 0.0000000e+00 -4.5930434e-02 
-2.5249833e-01 0.0000000e+00 -6.2160410e-02 
-8.6242843e-01 0.0000000e+00 -5.0797516e-01 
-8.6242628e-01 0.0000000e+00 -6.7052996e-01 
-8.6242414e-01 0.0000000e+00 -5.7663310e-01 
-8.6242199e-01 0.0000000e+00 -3.2346690e-01 
-1.4645770e+00 0.0000000e+00 2.4450455e-02 
-1.4604779e+00 0.0000000e+00 -2.5520718e-03 
-1.4563789e+00 0.0000000e+00 -4.1913260e-02 
-1.4522799e+00 0.0000000e+00 -5.4094009e-02 
-1.5832615e+00 0.0000000e+00 7.9574306e-03 
-1.5838069e+00 0.0000000e+00 5.3075207e-03 
-1.5843523e+00 0.0000000e+00 -1.9927123e-03 
-1.5848976e+00 0.0000000e+00 -5.7475581e-03 
-1.6123338e+00 0.0000000e+00 2.0201014e-04 
-1.6123158e+00 0.0000000e+00 4.1719020e-04 
-1.6122978e+00 0.0000000e+00 -2.5155951e-04 
-1.6122798e+00 0.0000000e+00 -9.1589682e-05 
-1.6205245e+00 0.0000000e+00 -1.2214533e-03 
-1.6205209e+00 0.0000000e+00 -3.7837599e-04 
-1.6205174e+00 0.0000000e+00 2.7038757e-04 
-1.6205139e+00 0.0000000e+00 1.1494611e-03 
ADJOINT_ROTATION 3 86  float
0.0000000e+00 -8.4794298e-02 0.0000000e+00 
0.0000000e+00 -8.4069192e-02 0.0000000e+00 
0.0000000e+00 -8.1893891e-02 0.0000000e+00 
0.0000000e+00 -7.8268379e-02 0.0000000e+00 
0.0000000e+00 -7.3192663e-02 0.0000000e+00 
0.0000000e+00 -6.6666745e-02 0.0000000e+00 
0.0000000e+00 -1.1096938e-01 0.0000000e+00 
0.0000000e+00 -1.6600405e-01 0.0000000e+00 
0.0000000e+00 -2.3177074e-01 0.0000000e+00 
0.0000000e+00 -3.0826947e-01 0.0000000e+00 
0.0000000e+00 -3.9550021e-01 0.0000000e+00 
0.0000000e+00 -3.0561969e-01 0.0000000e+00 
0.0000000e+00 -2.2646470e-01 0.0000000e+00 
0.0000000e+00 -1.5803531e-01 0.0000000e+00 
0.0000000e+00 -1.0033146e-01 0.0000000e+00 
0.0000000e+00 -5.3353172e-02 0.0000000e+00 
0.0000000e+00 -4.9050625e-02 0.0000000e+00 
0.0000000e+00 -4.3176621e-02 0.0000000e+00 
0.0000000e+00 -3.5731163e-02 0.0000000e+00 
0.0000000e+00 -2.6714245e-02 0.0000000e+00 
0.0000000e+00 -1.6125871e-02 0.0000000e+00 
0.0000000e+00 -1.3551502e-02 0.0000000e+00 
0.0000000e+00 -1.1041807e-02 0.0000000e+00 
0.0000000e+00 -8.5967882e-03 0.0000000e+00 
0.0000000e+00 -6.2164441e-03 0.0000000e+00 
0.0000000e+00 -3.9007764e-03 0.0000000e+00 
0.0000000e+00 -3.4182582e-03 0.0000000e+00 
0.0000000e+00 -2.9463402e-03 0.0000000e+00 
0.0000000e+00 -2.4850224e-03 0.0000000e+00 
0.0000000e+00 -2.0343049e-03 0.0000000e+00 
0.0000000e+00 -1.5941876e-03 0.0000000e+00 
0.0000000e+00 -7.9477169e-02 0.0000000e+00 
0.0000000e+00 -8.0202274e-02 0.0000000e+00 
0.0000000e+00 -8.2377575e-02 0.0000000e+00 
0.0000000e+00 -8.6003087e-02 0.0000000e+00 
0.0000000e+00 -9.1078803e-02 0.0000000e+00 
0.0000000e+00 -9.7604722e-02 0.0000000e+00 
0.0000000e+00 -1.5186496e-01 0.0000000e+00 
0.0000000e+00 -1.9539319e-01 0.0000000e+00 
0.0000000e+00 -2.2818938e-01 0.0000000e+00 
0.0000000e+00 -2.5025353e-01 0.0000000e+00 
0.0000000e+00 -2.6158565e-01 0.0000000e+00 
0.0000000e+00 -2.4756603e-01 0.0000000e+00 
0.0000000e+00 -2.2282083e-01 0.0000000e+00 
0.0000000e+00 -1.8735006e-01 0.0000000e+00 
0.0000000e+00 -1.4115375e-01 0.0000000e+00 
0.0000000e+00 -8.4231868e-02 0.0000000e+00 
0.0000000e+00 -6.7007370e-02 0.0000000e+00 
0.0000000e+00 -5.1354323e-02 0.0000000e+00 
0.0000000e+00 -3.7272733e-02 0.0000000e+00 
0.0000000e+00 -2.4762597e-02 0.0000000e+00 
0.0000000e+00 -1.3823921e-02 0.0000000e+00 
0.0000000e+00 -1.1945639e-02 0.0000000e+00 
0.0000000e+00 -1.0002681e-02 0.0000000e+00 
0.0000000e+00 -7.9950485e-03 0.0000000e+00 
0.0000000e+00 -5.9227394e-03 0.0000000e+00 
0.0000000e+00 -3.7857550e-03 0.0000000e+00 
0.0000000e+00 -3.3836404e-03 0.0000000e+00 
0.0000000e+00 -2.9709255e-03 0.0000000e+00 
0.0000000e+00 -2.5476103e-03 0.0000000e+00 
0.0000000e+00 -2.1136950e-03 0.0000000e+00 
0.0000000e+00 -1.6691795e-03 0.0000000e+00 
0.0000000e+00 5.9959632e-03 0.0000000e+00 
0.0000000e+00 3.9233521e-02 0.0000000e+00 
0.0000000e+00 3.3045925e-02 0.0000000e+00 
0.0000000e+00 -1.2566822e-02 0.0000000e+00 
0.0000000e+00 2.6931226e-01 0.0000000e+00 
0.0000000e+00 1.5109953e-02 0.0000000e+00 
0.0000000e+00 -1.5810713e-01 0.0000000e+00 
0.0000000e+00 -2.5033900e-01 0.0000000e+00 
0.0000000e+00 6.3695819e-03 0.0000000e+00 
0.0000000e+00 3.3143088e-02 0.0000000e+00 
0.0000000e+00 2.6967349e-02 0.0000000e+00 
0.0000000e+00 -1.2157639e-02 0.0000000e+00 
0.0000000e+00 -2.0059631e-03 0.0000000e+00 
0.0000000e+00 5.2841860e-03 0.0000000e+00 
0.0000000e+00 5.7445760e-03 0.0000000e+00 
0.0000000e+00 -6.2479300e-04 0.0000000e+00 
0.0000000e+00 -1.0233567e-03 0.0000000e+00 
0.0000000e+00 4.2685532e-04 0.0000000e+00 
0.0000000e+00 4.4985957e-04 0.0000000e+00 
0.0000000e+00 -9.5434388e-04 0.0000000e+00 
0.0000000e+00 -9.0147962e-04 0.0000000e+00 
0.0000000e+00 -5.6262489e-04 0.0000000e+00 
0.0000000e+00 -5.7762326e-04 0.0000000e+00 
0.0000000e+00 -9.4647479e-04 0.0000000e+00 
SHAPE_SENSITIVITY 3 86  float
0.0000000e+00 0.0000000e+00 0.0000000e+00 
0.0000000e+00 0.0000000e+00 0.0000000e+00 
0.0000000e+00 0.0000000e+00 0.0000000e+00 
0.0000000e+00 0.0000000e+00 0.0000000e+00 
0.0000000e+00 0.0000000e+00 0.0000000e+00 
0.0000000e+00 0.0000000e+00 0.0000000e+00 
0.0000000e+00 0.0000000e+00 0.0000000e+00 
0.0000000e+00 0.0000000e+00 0.0000000e+00 
0.0000000e+00 0.0000000e+00 0.0000000e+00 
0.0000000e+00 0.0000000e+00 0.0000000e+00 
0.0000000e+00 0.0000000e+00 0.0000000e+00 
0.0000000e+00 0.0000000e+00 0.0000000e+00 
0.0000000e+00 0.0000000e+00 0.0000000e+00 
0.0000000e+00 0.0000000e+00 0.0000000e+00 
0.0000000e+00 0.0000000e+00 0.0000000e+00 
0.0000000e+00 0.0000000e+00 0.0000000e+00 
0.0000000e+00 0.0000000e+00 0.0000000e+00 
0.0000000e+00 0.0000000e+00 0.0000000e+00 
0.0000000e+00 0.0000000e+00 0.0000000e+00 
0.0000000e+00 0.0000000e+00 0.0000000e+00 
0.0000000e+00 0.0000000e+00 0.0000000e+00 
0.0000000e+00 0.0000000e+00 0.0000000e+00 
0.0000000e+00 0.0000000e+00 0.0000000e+00 
0.0000000e+00 0.0000000e+00 0.0000000e+00 
0.0000000e+00 0.0000000e+00 0.0000000e+00 
0.0000000e+00 0.0000000e+00 0.0000000e+00 
0.0000000e+00 0.0000000e+00 0.0000000e+00 
0.0000000e+00 0.0000000e+00 0.0000000e+00 
0.0000000e+00 0.0000000e+00 0.0000000e+00 
0.0000000e+00 0.0000000e+00 0.0000000e+00 
0.0000000e+00 0.0000000e+00 0.0000000e+00 
0.0000000e+00 0.0000000e+00 0.0000000e+00 
0.0000000e+00 0.0000000e+00 0.0000000e+00 
0.0000000e+00 0.0000000e+00 0.0000000e+00 
0.0000000e+00 0.0000000e+00 0.0000000e+00 
0.0000000e+00 0.0000000e+00 0.0000000e+00 
0.0000000e+00 0.0000000e+00 0.0000000e+00 
0.0000000e+00 0.0000000e+00 0.0000000e+00 
0.0000000e+00 0.0000000e+00 0.0000000e+00 
0.0000000e+00 0.0000000e+00 0.0000000e+00 
0.0000000e+00 0.0000000e+00 0.0000000e+00 
0.0000000e+00 0.0000000e+00 0.0000000e+00 
0.0000000e+00 0.0000000e+00 0.0000000e+00 
0.0000000e+00 0.0000000e+00 0.0000000e+00 
0.0000000e+00 0.0000000e+00 0.0000000e+00 
0.0000000e+00 0.0000000e+00 0.0000000e+00 
0.0000000e+00 0.0000000e+00 0.0000000e+00 
0.0000000e+00 0.0000000e+00 0.0000000e+00 
0.0000000e+00 0.0000000e+00 0.0000000e+00 
0.0000000e+00 0.0000000e+00 0.0000000e+00 
0.0000000e+00 0.0000000e+00 0.0000000e+00 
0.0000000e+00 0.0000000e+00 0.0000000e+00 
0.0000000e+00 0.0000000e+00 0.0000000e+00 
0.0000000e+00 0.0000000e+00 0.0000000e+00 
0.0000000e+00 0.0000000e+00 0.0000000e+00 
0.0000000e+00 0.0000000e+00 0.0000000e+00 
0.0000000e+00 0.0000000e+00 0.0000000e+00 
0.0000000e+00 0.0000000e+00 0.0000000e+00 
0.0000000e+00 0.0000000e+00 0.0000000e+00 
0.0000000e+00 0.0000000e+00 0.0000000e+00 
0.0000000e+00 0.0000000e+00 0.0000000e+00 
0.0000000e+00 0.0000000e+00 0.0000000e+00 
0.0000000e+00 0.0000000e+00 0.0000000e+00 
0.0000000e+00 0.0000000e+00 0.0000000e+00 
0.0000000e+00 0.0000000e+00 0.0000000e+00 
0.0000000e+00 0.0000000e+00 0.0000000e+00 
0.0000000e+00 0.0000000e+00 0.0000000e+00 
0.0000000e+00 0.0000000e+00 0.0000000e+00 
0.0000000e+00 0.0000000e+00 0.0000000e+00 
0.0000000e+00 0.0000000e+00 0.0000000e+00 
0.0000000e+00 0.0000000e+00 0.0000000e+00 
0.0000000e+00 0.0000000e+00 0.0000000e+00 
0.0000000e+00 0.0000000e+00 0.0000000e+00 
0.0000000e+00 0.0000000e+00 0.0000000e+00 
0.0000000e+00 0.0000000e+00 0.0000000e+00 
0.0000000e+00 0.0000000e+00 0.0000000e+00 
0.0000000e+00 0.0000000e+00 0.0000000e+00 
0.0000000e+00 0.0000000e+00 0.0000000e+00 
0.0000000e+00 0.0000000e+00 0.0000000e+00 
0.0000000e+00 0.0000000e+00 0.0000000e+00 
0.0000000e+00 0.0000000e+00 0.0000000e+00 
0.0000000e+00 0.0000000e+00 0.0000000e+00 
0.0000000e+00 0.0000000e+00 0.0000000e+00 
0.0000000e+00 0.0000000e+00 0.0000000e+00 
0.0000000e+00 0.0000000e+00 0.0000000e+00 
0.0000000e+00 0.0000000e+00 0.0000000e+00 
CELL_DATA 90
FIELD FieldData 1
I22_SENSITIVITY 1 90  float
8.9851432e-02
6.2895286e-01
1.7071521e+00
3.3084998e+00
5.4010944e+00
8.5098772e+00
1.7566754e+00
-8.2452574e+00
-2.1175205e+01
-3.7107056e+01
-1.8662685e+01
-5.8745270e+00
3.8384933e+00
1.0751192e+01
1.4728145e+01
-5.8427829e-01
-1.9610405e-01
4.7242421e-01
1.3930267e+00
2.5374053e+00
-1.7182603e-01
-8.7116268e-03
1.3155000e-01
2.5012383e-01
3.4817040e-01
-1.0974055e-02
6.9913995e-03
2.1393450e-02
3.2421667e-02
4.0268034e-02
-9.2874944e-02
-6.4287746e-01
-1.7196817e+00
-3.2971787e+00
-5.3492680e+00
1.0179686e+01
1.4766049e+00
-3.8129518e+00
-5.7962685e+00
-4.5306044e+00
-2.5941007e+00
-1.5118424e+00
2.1928182e+00
8.4340658e+00
1.7104589e+01
-2.0951328e+00
-4.2381805e-01
8.6572880e-01
1.8018082e+00
2.4126892e+00
-9.3021251e-02
8.1698438e-03
1.1025666e-01
2.0647287e-01
3.0209824e-01
-2.8828373e-03
6.3011739e-03
1.4696606e-02
2.2196829e-02
2.8718177e-02
7.0398979e+01
1.7107794e+01
1.5779330e+00
2.3178593e+01
8.1121269e+01
-2.0814363e+02
-7.7935318e+01
6.4220414e-02
2.6678352e+01
4.8225412e+00
2.7468372e+01
6.2962823e+00
6.8768150e-01
9.4563961e+00
3.1416254e+01
4.2763395e+00
1.0742238e+00
7.5049028e-02
1.0329438e+00
3.7020369e+00
4.9043128e-01
1.2072384e-01
9.8260585e-03
1.2919375e-01
4.3757594e-01
5.3727277e-02
1.0538847e-02
1.3161168e-03
1.7830472e-02
4.7343198e-02
