# vtk DataFile Version 4.0
vtk output
ASCII
DATASET UNSTRUCTURED_GRID
POINTS 212 float
0.0000000e+00 0.0000000e+00 0.0000000e+00 
0.0000000e+00 0.0000000e+00 2.5000000e-01 
0.0000000e+00 0.0000000e+00 5.0000000e-01 
0.0000000e+00 0.0000000e+00 7.5000000e-01 
0.0000000e+00 0.0000000e+00 1.0000000e+00 
0.0000000e+00 0.0000000e+00 1.2500000e+00 
0.0000000e+00 0.0000000e+00 1.5000000e+00 
0.0000000e+00 0.0000000e+00 1.7500000e+00 
0.0000000e+00 0.0000000e+00 2.0000000e+00 
0.0000000e+00 0.0000000e+00 2.2500000e+00 
0.0000000e+00 0.0000000e+00 2.5000000e+00 
0.0000000e+00 0.0000000e+00 2.7500000e+00 
0.0000000e+00 0.0000000e+00 3.0000000e+00 
0.0000000e+00 0.0000000e+00 3.2500000e+00 
0.0000000e+00 0.0000000e+00 3.5000000e+00 
0.0000000e+00 0.0000000e+00 3.7500000e+00 
0.0000000e+00 0.0000000e+00 4.0000000e+00 
0.0000000e+00 0.0000000e+00 4.2500000e+00 
0.0000000e+00 0.0000000e+00 4.5000000e+00 
0.0000000e+00 0.0000000e+00 4.7500000e+00 
0.0000000e+00 0.0000000e+00 5.0000000e+00 
0.0000000e+00 0.0000000e+00 5.2500000e+00 
0.0000000e+00 0.0000000e+00 5.5000000e+00 
0.0000000e+00 0.0000000e+00 5.7500000e+00 
0.0000000e+00 0.0000000e+00 6.0000000e+00 
0.0000000e+00 0.0000000e+00 6.2500000e+00 
0.0000000e+00 0.0000000e+00 6.5000000e+00 
0.0000000e+00 0.0000000e+00 6.7500000e+00 
0.0000000e+00 0.0000000e+00 7.0000000e+00 
0.0000000e+00 0.0000000e+00 7.2500000e+00 
0.0000000e+00 0.0000000e+00 7.5000000e+00 
0.0000000e+00 0.0000000e+00 7.7500000e+00 
0.0000000e+00 0.0000000e+00 8.0000000e+00 
0.0000000e+00 0.0000000e+00 8.2500000e+00 
0.0000000e+00 0.0000000e+00 8.5000000e+00 
0.0000000e+00 0.0000000e+00 8.7500000e+00 
0.0000000e+00 0.0000000e+00 9.0000000e+00 
0.0000000e+00 0.0000000e+00 9.2500000e+00 
0.0000000e+00 0.0000000e+00 9.5000000e+00 
0.0000000e+00 0.0000000e+00 9.7500000e+00 
0.0000000e+00 0.0000000e+00 1.0000000e+01 
0.0000000e+00 0.0000000e+00 1.0250000e+01 
0.0000000e+00 0.0000000e+00 1.0500000e+01 
0.0000000e+00 0.0000000e+00 1.0750000e+01 
0.0000000e+00 0.0000000e+00 1.1000000e+01 
0.0000000e+00 0.0000000e+00 1.1250000e+01 
0.0000000e+00 0.0000000e+00 1.1500000e+01 
0.0000000e+00 0.0000000e+00 1.1750000e+01 
0.0000000e+00 0.0000000e+00 1.2000000e+01 
0.0000000e+00 0.0000000e+00 1.2250000e+01 
0.0000000e+00 0.0000000e+00 1.2500000e+01 
0.0000000e+00 0.0000000e+00 1.2750000e+01 
0.0000000e+00 0.0000000e+00 1.3000000e+01 
0.0000000e+00 0.0000000e+00 1.3250000e+01 
0.0000000e+00 0.0000000e+00 1.3500000e+01 
0.0000000e+00 0.0000000e+00 1.3750000e+01 
0.0000000e+00 0.0000000e+00 1.4000000e+01 
0.0000000e+00 0.0000000e+00 1.4250000e+01 
0.0000000e+00 0.0000000e+00 1.4500000e+01 
0.0000000e+00 0.0000000e+00 1.4750000e+01 
0.0000000e+00 0.0000000e+00 1.5000000e+01 
0.0000000e+00 0.0000000e+00 1.5250000e+01 
0.0000000e+00 0.0000000e+00 1.5500000e+01 
0.0000000e+00 0.0000000e+00 1.5750000e+01 
0.0000000e+00 0.0000000e+00 1.6000000e+01 
0.0000000e+00 0.0000000e+00 1.6250000e+01 
0.0000000e+00 0.0000000e+00 1.6500000e+01 
0.0000000e+00 0.0000000e+00 1.6750000e+01 
0.0000000e+00 0.0000000e+00 1.7000000e+01 
0.0000000e+00 0.0000000e+00 1.7250000e+01 
0.0000000e+00 0.0000000e+00 1.7500000e+01 
0.0000000e+00 0.0000000e+00 1.7750000e+01 
0.0000000e+00 0.0000000e+00 1.8000000e+01 
5.0000000e-01 0.0000000e+00 3.0000000e+00 
5.0000000e-01 0.0000000e+00 6.0000000e+00 
5.0000000e-01 0.0000000e+00 9.0000000e+00 
5.0000000e-01 0.0000000e+00 1.2000000e+01 
5.0000000e-01 0.0000000e+00 1.5000000e+01 
5.0000000e-01 0.0000000e+00 1.8000000e+01 
1.0000000e+00 0.0000000e+00 3.0000000e+00 
1.0000000e+00 0.0000000e+00 6.0000000e+00 
1.0000000e+00 0.0000000e+00 9.0000000e+00 
1.0000000e+00 0.0000000e+00 1.2000000e+01 
1.0000000e+00 0.0000000e+00 1.5000000e+01 
1.0000000e+00 0.0000000e+00 1.8000000e+01 
1.5000000e+00 0.0000000e+00 3.0000000e+00 
1.5000000e+00 0.0000000e+00 6.0000000e+00 
1.5000000e+00 0.0000000e+00 9.0000000e+00 
1.5000000e+00 0.0000000e+00 1.2000000e+01 
1.5000000e+00 0.0000000e+00 1.5000000e+01 
1.5000000e+00 0.0000000e+00 1.8000000e+01 
2.0000000e+00 0.0000000e+00 3.0000000e+00 
2.0000000e+00 0.0000000e+00 6.0000000e+00 
2.0000000e+00 0.0000000e+00 9.0000000e+00 
2.0000000e+00 0.0000000e+00 1.2000000e+01 
2.0000000e+00 0.0000000e+00 1.5000000e+01 
2.0000000e+00 0.0000000e+00 1.8000000e+01 
2.5000000e+00 0.0000000e+00 3.0000000e+00 
2.5000000e+00 0.0000000e+00 6.0000000e+00 
2.5000000e+00 0.0000000e+00 9.0000000e+00 
2.5000000e+00 0.0000000e+00 1.2000000e+01 
2.5000000e+00 0.0000000e+00 1.5000000e+01 
2.5000000e+00 0.0000000e+00 1.8000000e+01 
3.0000000e+00 0.0000000e+00 3.0000000e+00 
3.0000000e+00 0.0000000e+00 6.0000000e+00 
3.0000000e+00 0.0000000e+00 9.0000000e+00 
3.0000000e+00 0.0000000e+00 1.2000000e+01 
3.0000000e+00 0.0000000e+00 1.5000000e+01 
3.0000000e+00 0.0000000e+00 1.8000000e+01 
3.5000000e+00 0.0000000e+00 3.0000000e+00 
3.5000000e+00 0.0000000e+00 6.0000000e+00 
3.5000000e+00 0.0000000e+00 9.0000000e+00 
3.5000000e+00 0.0000000e+00 1.2000000e+01 
3.5000000e+00 0.0000000e+00 1.5000000e+01 
3.5000000e+00 0.0000000e+00 1.8000000e+01 
4.0000000e+00 0.0000000e+00 3.0000000e+00 
4.0000000e+00 0.0000000e+00 6.0000000e+00 
4.0000000e+00 0.0000000e+00 9.0000000e+00 
4.0000000e+00 0.0000000e+00 1.2000000e+01 
4.0000000e+00 0.0000000e+00 1.5000000e+01 
4.0000000e+00 0.0000000e+00 1.8000000e+01 
4.5000000e+00 0.0000000e+00 3.0000000e+00 
4.5000000e+00 0.0000000e+00 6.0000000e+00 
4.5000000e+00 0.0000000e+00 9.0000000e+00 
4.5000000e+00 0.0000000e+00 1.2000000e+01 
4.5000000e+00 0.0000000e+00 1.5000000e+01 
4.5000000e+00 0.0000000e+00 1.8000000e+01 
5.0000000e+00 0.0000000e+00 3.0000000e+00 
5.0000000e+00 0.0000000e+00 6.0000000e+00 
5.0000000e+00 0.0000000e+00 9.0000000e+00 
5.0000000e+00 0.0000000e+00 1.2000000e+01 
5.0000000e+00 0.0000000e+00 1.5000000e+01 
5.0000000e+00 0.0000000e+00 1.8000000e+01 
5.5000000e+00 0.0000000e+00 3.0000000e+00 
5.5000000e+00 0.0000000e+00 6.0000000e+00 
5.5000000e+00 0.0000000e+00 9.0000000e+00 
5.5000000e+00 0.0000000e+00 1.2000000e+01 
5.5000000e+00 0.0000000e+00 1.5000000e+01 
5.5000000e+00 0.0000000e+00 1.8000000e+01 
6.0000000e+00 0.0000000e+00 0.0000000e+00 
6.0000000e+00 0.0000000e+00 2.5000000e-01 
6.0000000e+00 0.0000000e+00 5.0000000e-01 
6.0000000e+00 0.0000000e+00 7.5000000e-01 
6.0000000e+00 0.0000000e+00 1.0000000e+00 
6.0000000e+00 0.0000000e+00 1.2500000e+00 
6.0000000e+00 0.0000000e+00 1.5000000e+00 
6.0000000e+00 0.0000000e+00 1.7500000e+00 
6.0000000e+00 0.0000000e+00 2.0000000e+00 
6.0000000e+00 0.0000000e+00 2.2500000e+00 
6.0000000e+00 0.0000000e+00 2.5000000e+00 
6.0000000e+00 0.0000000e+00 2.7500000e+00 
6.0000000e+00 0.0000000e+00 3.0000000e+00 
6.0000000e+00 0.0000000e+00 3.2500000e+00 
6.0000000e+00 0.0000000e+00 3.5000000e+00 
6.0000000e+00 0.0000000e+00 3.7500000e+00 
6.0000000e+00 0.0000000e+00 4.0000000e+00 
6.0000000e+00 0.0000000e+00 4.2500000e+00 
6.0000000e+00 0.0000000e+00 4.5000000e+00 
6.0000000e+00 0.0000000e+00 4.7500000e+00 
6.0000000e+00 0.0000000e+00 5.0000000e+00 
6.0000000e+00 0.0000000e+00 5.2500000e+00 
6.0000000e+00 0.0000000e+00 5.5000000e+00 
6.0000000e+00 0.0000000e+00 5.7500000e+00 
6.0000000e+00 0.0000000e+00 6.0000000e+00 
6.0000000e+00 0.0000000e+00 6.2500000e+00 
6.0000000e+00 0.0000000e+00 6.5000000e+00 
6.0000000e+00 0.0000000e+00 6.7500000e+00 
6.0000000e+00 0.0000000e+00 7.0000000e+00 
6.0000000e+00 0.0000000e+00 7.2500000e+00 
6.0000000e+00 0.0000000e+00 7.5000000e+00 
6.0000000e+00 0.0000000e+00 7.7500000e+00 
6.0000000e+00 0.0000000e+00 8.0000000e+00 
6.0000000e+00 0.0000000e+00 8.2500000e+00 
6.0000000e+00 0.0000000e+00 8.5000000e+00 
6.0000000e+00 0.0000000e+00 8.7500000e+00 
6.0000000e+00 0.0000000e+00 9.0000000e+00 
6.0000000e+00 0.0000000e+00 9.2500000e+00 
6.0000000e+00 0.0000000e+00 9.5000000e+00 
6.0000000e+00 0.0000000e+00 9.7500000e+00 
6.0000000e+00 0.0000000e+00 1.0000000e+01 
6.0000000e+00 0.0000000e+00 1.0250000e+01 
6.0000000e+00 0.0000000e+00 1.0500000e+01 
6.0000000e+00 0.0000000e+00 1.0750000e+01 
6.0000000e+00 0.0000000e+00 1.1000000e+01 
6.0000000e+00 0.0000000e+00 1.1250000e+01 
6.0000000e+00 0.0000000e+00 1.1500000e+01 
6.0000000e+00 0.0000000e+00 1.1750000e+01 
6.0000000e+00 0.0000000e+00 1.2000000e+01 
6.0000000e+00 0.0000000e+00 1.2250000e+01 
6.0000000e+00 0.0000000e+00 1.2500000e+01 
6.0000000e+00 0.0000000e+00 1.2750000e+01 
6.0000000e+00 0.0000000e+00 1.3000000e+01 
6.0000000e+00 0.0000000e+00 1.3250000e+01 
6.0000000e+00 0.0000000e+00 1.3500000e+01 
6.0000000e+00 0.0000000e+00 1.3750000e+01 
6.0000000e+00 0.0000000e+00 1.4000000e+01 
6.0000000e+00 0.0000000e+00 1.4250000e+01 
6.0000000e+00 0.0000000e+00 1.4500000e+01 
6.0000000e+00 0.0000000e+00 1.4750000e+01 
6.0000000e+00 0.0000000e+00 1.5000000e+01 
6.0000000e+00 0.0000000e+00 1.5250000e+01 
6.0000000e+00 0.0000000e+00 1.5500000e+01 
6.0000000e+00 0.0000000e+00 1.5750000e+01 
6.0000000e+00 0.0000000e+00 1.6000000e+01 
6.0000000e+00 0.0000000e+00 1.6250000e+01 
6.0000000e+00 0.0000000e+00 1.6500000e+01 
6.0000000e+00 0.0000000e+00 1.6750000e+01 
6.0000000e+00 0.0000000e+00 1.7000000e+01 
6.0000000e+00 0.0000000e+00 1.7250000e+01 
6.0000000e+00 0.0000000e+00 1.7500000e+01 
6.0000000e+00 0.0000000e+00 1.7750000e+01 
6.0000000e+00 0.0000000e+00 1.8000000e+01 

CELLS 216 648
2 0 1
2 1 2
2 2 3
2 3 4
2 4 5
2 5 6
2 6 7
2 7 8
2 8 9
2 9 10
2 10 11
2 11 12
2 12 13
2 13 14
2 14 15
2 15 16
2 16 17
2 17 18
2 18 19
2 19 20
2 20 21
2 21 22
2 22 23
2 23 24
2 24 25
2 25 26
2 26 27
2 27 28
2 28 29
2 29 30
2 30 31
2 31 32
2 32 33
2 33 34
2 34 35
2 35 36
2 36 37
2 37 38
2 38 39
2 39 40
2 40 41
2 41 42
2 42 43
2 43 44
2 44 45
2 45 46
2 46 47
2 47 48
2 48 49
2 49 50
2 50 51
2 51 52
2 52 53
2 53 54
2 54 55
2 55 56
2 56 57
2 57 58
2 58 59
2 59 60
2 60 61
2 61 62
2 62 63
2 63 64
2 64 65
2 65 66
2 66 67
2 67 68
2 68 69
2 69 70
2 70 71
2 71 72
2 139 140
2 140 141
2 141 142
2 142 143
2 143 144
2 144 145
2 145 146
2 146 147
2 147 148
2 148 149
2 149 150
2 150 151
2 151 152
2 152 153
2 153 154
2 154 155
2 155 156
2 156 157
2 157 158
2 158 159
2 159 160
2 160 161
2 161 162
2 162 163
2 163 164
2 164 165
2 165 166
2 166 167
2 167 168
2 168 169
2 169 170
2 170 171
2 171 172
2 172 173
2 173 174
2 174 175
2 175 176
2 176 177
2 177 178
2 178 179
2 179 180
2 180 181
2 181 182
2 182 183
2 183 184
2 184 185
2 185 186
2 186 187
2 187 188
2 188 189
2 189 190
2 190 191
2 191 192
2 192 193
2 193 194
2 194 195
2 195 196
2 196 197
2 197 198
2 198 199
2 199 200
2 200 201
2 201 202
2 202 203
2 203 204
2 204 205
2 205 206
2 206 207
2 207 208
2 208 209
2 209 210
2 210 211
2 12 73
2 73 79
2 79 85
2 85 91
2 91 97
2 97 103
2 103 109
2 109 115
2 115 121
2 121 127
2 127 133
2 133 151
2 24 74
2 74 80
2 80 86
2 86 92
2 92 98
2 98 104
2 104 110
2 110 116
2 116 122
2 122 128
2 128 134
2 134 163
2 36 75
2 75 81
2 81 87
2 87 93
2 93 99
2 99 105
2 105 111
2 111 117
2 117 123
2 123 129
2 129 135
2 135 175
2 48 76
2 76 82
2 82 88
2 88 94
2 94 100
2 100 106
2 106 112
2 112 118
2 118 124
2 124 130
2 130 136
2 136 187
2 60 77
2 77 83
2 83 89
2 89 95
2 95 101
2 101 107
2 107 113
2 113 119
2 119 125
2 125 131
2 131 137
2 137 199
2 72 78
2 78 84
2 84 90
2 90 96
2 96 102
2 102 108
2 108 114
2 114 120
2 120 126
2 126 132
2 132 138
2 138 211

CELL_TYPES 216
3
3
3
3
3
3
3
3
3
3
3
3
3
3
3
3
3
3
3
3
3
3
3
3
3
3
3
3
3
3
3
3
3
3
3
3
3
3
3
3
3
3
3
3
3
3
3
3
3
3
3
3
3
3
3
3
3
3
3
3
3
3
3
3
3
3
3
3
3
3
3
3
3
3
3
3
3
3
3
3
3
3
3
3
3
3
3
3
3
3
3
3
3
3
3
3
3
3
3
3
3
3
3
3
3
3
3
3
3
3
3
3
3
3
3
3
3
3
3
3
3
3
3
3
3
3
3
3
3
3
3
3
3
3
3
3
3
3
3
3
3
3
3
3
3
3
3
3
3
3
3
3
3
3
3
3
3
3
3
3
3
3
3
3
3
3
3
3
3
3
3
3
3
3
3
3
3
3
3
3
3
3
3
3
3
3
3
3
3
3
3
3
3
3
3
3
3
3
3
3
3
3
3
3
3
3
3
3
3
3
3
3
3
3
3
3
POINT_DATA 212
FIELD FieldData 3
ADJOINT_DISPLACEMENT 3 212  float
0.0000000e+00 0.0000000e+00 0.0000000e+00 
-9.9368270e-05 0.0000000e+00 -5.6099506e-16 
-1.9650997e-04 0.0000000e+00 -1.1219901e-15 
-2.8919854e-04 0.0000000e+00 -1.6829852e-15 
-3.7520740e-04 0.0000000e+00 -2.2439802e-15 
-4.5230996e-04 0.0000000e+00 -2.8049752e-15 
-5.1827973e-04 0.0000000e+00 -3.3659704e-15 
-5.7089003e-04 0.0000000e+00 -3.9269654e-15 
-6.0791441e-04 0.0000000e+00 -4.4879604e-15 
-6.2712620e-04 0.0000000e+00 -5.0489555e-15 
-6.2629889e-04 0.0000000e+00 -5.6099505e-15 
-6.0320593e-04 0.0000000e+00 -6.1709459e-15 
-5.5562070e-04 0.0000000e+00 -6.7319409e-15 
-4.8537974e-04 0.0000000e+00 6.0882968e-08 
-4.0490663e-04 0.0000000e+00 1.2176594e-07 
-3.2785523e-04 0.0000000e+00 1.8264892e-07 
-2.6787946e-04 0.0000000e+00 2.4353190e-07 
-2.3863316e-04 0.0000000e+00 3.0441487e-07 
-2.5377027e-04 0.0000000e+00 3.6529784e-07 
-3.2694469e-04 0.0000000e+00 4.2618080e-07 
-4.7181032e-04 0.0000000e+00 4.8706380e-07 
-7.0202100e-04 0.0000000e+00 5.4794674e-07 
-1.0312307e-03 0.0000000e+00 6.0882974e-07 
-1.4730933e-03 0.0000000e+00 6.6971268e-07 
-2.0412626e-03 0.0000000e+00 7.3059567e-07 
-2.7792142e-03 0.0000000e+00 1.0350890e-06 
-3.6806555e-03 0.0000000e+00 1.3395822e-06 
-4.6845889e-03 0.0000000e+00 1.6440755e-06 
-5.7300166e-03 0.0000000e+00 1.9485688e-06 
-6.7559411e-03 0.0000000e+00 2.2530619e-06 
-7.7013648e-03 0.0000000e+00 2.5575553e-06 
-8.5052894e-03 0.0000000e+00 2.8620486e-06 
-9.1067171e-03 0.0000000e+00 3.1665418e-06 
-9.4446512e-03 0.0000000e+00 3.4710351e-06 
-9.4580930e-03 0.0000000e+00 3.7755283e-06 
-9.0860445e-03 0.0000000e+00 4.0800214e-06 
-8.2675098e-03 0.0000000e+00 4.3845148e-06 
-7.0271189e-03 0.0000000e+00 5.8464902e-06 
-5.6093414e-03 0.0000000e+00 7.3084657e-06 
-4.2829304e-03 0.0000000e+00 8.7704411e-06 
-3.3166423e-03 0.0000000e+00 1.0232417e-05 
-2.9792311e-03 0.0000000e+00 1.1694392e-05 
-3.5394521e-03 0.0000000e+00 1.3156367e-05 
-5.2660601e-03 0.0000000e+00 1.4618343e-05 
-8.4278099e-03 0.0000000e+00 1.6080317e-05 
-1.3293456e-02 0.0000000e+00 1.7542294e-05 
-2.0131756e-02 0.0000000e+00 1.9004268e-05 
-2.9211460e-02 0.0000000e+00 2.0466245e-05 
-4.0801328e-02 0.0000000e+00 2.1928219e-05 
-5.5827748e-02 0.0000000e+00 2.8935487e-05 
-7.4256077e-02 0.0000000e+00 3.5942754e-05 
-9.4913505e-02 0.0000000e+00 4.2950018e-05 
-1.1662723e-01 0.0000000e+00 4.9957285e-05 
-1.3822444e-01 0.0000000e+00 5.6964553e-05 
-1.5853232e-01 0.0000000e+00 6.3971820e-05 
-1.7637809e-01 0.0000000e+00 7.0979084e-05 
-1.9058891e-01 0.0000000e+00 7.7986348e-05 
-1.9999200e-01 0.0000000e+00 8.4993619e-05 
-2.0341453e-01 0.0000000e+00 9.2000882e-05 
-1.9968370e-01 0.0000000e+00 9.9008146e-05 
-1.8762670e-01 0.0000000e+00 1.0601542e-04 
-1.6748528e-01 0.0000000e+00 1.3959879e-04 
-1.4104648e-01 0.0000000e+00 1.7318217e-04 
-1.0945544e-01 0.0000000e+00 2.0676556e-04 
-7.3857307e-02 0.0000000e+00 2.4034893e-04 
-3.5397246e-02 0.0000000e+00 2.7393232e-04 
4.7795903e-03 0.0000000e+00 3.0751570e-04 
4.5528054e-02 0.0000000e+00 3.4109908e-04 
8.5702993e-02 0.0000000e+00 3.7468245e-04 
1.2415925e-01 0.0000000e+00 4.0826583e-04 
1.5975167e-01 0.0000000e+00 4.4184920e-04 
1.9133511e-01 0.0000000e+00 4.7543258e-04 
2.1776442e-01 0.0000000e+00 5.0901598e-04 
-5.5758370e-04 0.0000000e+00 -1.2549917e-04 
-2.0320348e-03 0.0000000e+00 1.1086803e-03 
-8.3082709e-03 0.0000000e+00 -2.2175540e-03 
-4.0623132e-02 0.0000000e+00 2.2419024e-02 
-1.8791324e-01 0.0000000e+00 -3.6655538e-02 
2.1790597e-01 0.0000000e+00 -3.4557935e-02 
-5.5954669e-04 0.0000000e+00 -2.5444877e-04 
-2.0228070e-03 0.0000000e+00 1.9100548e-03 
-8.3490321e-03 0.0000000e+00 -4.5350417e-03 
-4.0444937e-02 0.0000000e+00 3.8350694e-02 
-1.8819976e-01 0.0000000e+00 -7.8202866e-02 
2.1804753e-01 0.0000000e+00 -4.8774671e-02 
-5.6150975e-04 0.0000000e+00 -3.7896825e-04 
-2.0135792e-03 0.0000000e+00 2.4363864e-03 
-8.3897933e-03 0.0000000e+00 -6.7982571e-03 
-4.0266745e-02 0.0000000e+00 4.8534710e-02 
-1.8848629e-01 0.0000000e+00 -1.2109603e-01 
2.1818909e-01 0.0000000e+00 -4.6488151e-02 
-5.6347274e-04 0.0000000e+00 -4.9117708e-04 
-2.0043512e-03 0.0000000e+00 2.7192074e-03 
-8.4305545e-03 0.0000000e+00 -8.8573787e-03 
-4.0088549e-02 0.0000000e+00 5.3688835e-02 
-1.8877281e-01 0.0000000e+00 -1.6189508e-01 
2.1833064e-01 0.0000000e+00 -3.2045312e-02 
-5.6543574e-04 0.0000000e+00 -5.8319472e-04 
-1.9951235e-03 0.0000000e+00 2.7900501e-03 
-8.4713157e-03 0.0000000e+00 -1.0562585e-02 
-3.9910357e-02 0.0000000e+00 5.4530840e-02 
-1.8905935e-01 0.0000000e+00 -1.9716007e-01 
2.1847220e-01 0.0000000e+00 -9.7931065e-03 
-5.6739879e-04 0.0000000e+00 -6.4714067e-04 
-1.9858957e-03 0.0000000e+00 2.6804467e-03 
-8.5120779e-03 0.0000000e+00 -1.1764054e-02 
-3.9732162e-02 0.0000000e+00 5.1778495e-02 
-1.8934587e-01 0.0000000e+00 -2.2345106e-01 
2.1861374e-01 0.0000000e+00 1.5921518e-02 
-5.6936179e-04 0.0000000e+00 -6.7513436e-04 
-1.9766679e-03 0.0000000e+00 2.4219297e-03 
-8.5528390e-03 0.0000000e+00 -1.2311965e-02 
-3.9553966e-02 0.0000000e+00 4.6149563e-02 
-1.8963240e-01 0.0000000e+00 -2.3732810e-01 
2.1875530e-01 0.0000000e+00 4.0751614e-02 
-5.7132478e-04 0.0000000e+00 -6.5929524e-04 
-1.9674401e-03 0.0000000e+00 2.0460312e-03 
-8.5936002e-03 0.0000000e+00 -1.2056495e-02 
-3.9375775e-02 0.0000000e+00 3.8361821e-02 
-1.8991892e-01 0.0000000e+00 -2.3535125e-01 
2.1889685e-01 0.0000000e+00 6.0350232e-02 
-5.7328783e-04 0.0000000e+00 -5.9174281e-04 
-1.9582123e-03 0.0000000e+00 1.5842837e-03 
-8.6343614e-03 0.0000000e+00 -1.0847824e-02 
-3.9197579e-02 0.0000000e+00 2.9133031e-02 
-1.9020545e-01 0.0000000e+00 -2.1408056e-01 
2.1903841e-01 0.0000000e+00 7.0370428e-02 
-5.7525083e-04 0.0000000e+00 -4.6459644e-04 
-1.9489845e-03 0.0000000e+00 1.0682193e-03 
-8.6751226e-03 0.0000000e+00 -8.5361293e-03 
-3.9019387e-02 0.0000000e+00 1.9180965e-02 
-1.9049197e-01 0.0000000e+00 -1.7007609e-01 
2.1917996e-01 0.0000000e+00 6.6465251e-02 
-5.7721382e-04 0.0000000e+00 -2.6997569e-04 
-1.9397566e-03 0.0000000e+00 5.2937045e-04 
-8.7158838e-03 0.0000000e+00 -4.9715904e-03 
-3.8841192e-02 0.0000000e+00 9.2233885e-03 
-1.9077851e-01 0.0000000e+00 -9.9897884e-02 
2.1932152e-01 0.0000000e+00 4.4287749e-02 
0.0000000e+00 0.0000000e+00 0.0000000e+00 
4.8018051e-06 0.0000000e+00 5.6192107e-16 
7.3770416e-06 0.0000000e+00 1.1238421e-15 
5.4991419e-06 0.0000000e+00 1.6857633e-15 
-3.0584627e-06 0.0000000e+00 2.2476843e-15 
-2.0522340e-05 0.0000000e+00 2.8096053e-15 
-4.9119059e-05 0.0000000e+00 3.3715263e-15 
-9.1075184e-05 0.0000000e+00 3.9334474e-15 
-1.4861728e-04 0.0000000e+00 4.4953690e-15 
-2.2397195e-04 0.0000000e+00 5.0572907e-15 
-3.1936570e-04 0.0000000e+00 5.6192123e-15 
-4.3702516e-04 0.0000000e+00 6.1811340e-15 
-5.7917688e-04 0.0000000e+00 6.7430552e-15 
-7.5580506e-04 0.0000000e+00 -6.0882968e-08 
-9.6630707e-04 0.0000000e+00 -1.2176594e-07 
-1.1970290e-03 0.0000000e+00 -1.8264892e-07 
-1.4343169e-03 0.0000000e+00 -2.4353190e-07 
-1.6645169e-03 0.0000000e+00 -3.0441487e-07 
-1.8739752e-03 0.0000000e+00 -3.6529784e-07 
-2.0490377e-03 0.0000000e+00 -4.2618080e-07 
-2.1760506e-03 0.0000000e+00 -4.8706380e-07 
-2.2413600e-03 0.0000000e+00 -5.4794674e-07 
-2.2313122e-03 0.0000000e+00 -6.0882974e-07 
-2.1322530e-03 0.0000000e+00 -6.6971268e-07 
-1.9305288e-03 0.0000000e+00 -7.3059567e-07 
-1.6299624e-03 0.0000000e+00 -1.0350890e-06 
-1.2841446e-03 0.0000000e+00 -1.3395822e-06 
-9.5407333e-04 0.0000000e+00 -1.6440755e-06 
-7.0074614e-04 0.0000000e+00 -1.9485688e-06 
-5.8516086e-04 0.0000000e+00 -2.2530619e-06 
-6.6831522e-04 0.0000000e+00 -2.5575553e-06 
-1.0112069e-03 0.0000000e+00 -2.8620486e-06 
-1.6748335e-03 0.0000000e+00 -3.1665418e-06 
-2.7201930e-03 0.0000000e+00 -3.4710351e-06 
-4.2082830e-03 0.0000000e+00 -3.7755283e-06 
-6.2001012e-03 0.0000000e+00 -4.0800214e-06 
-8.7566450e-03 0.0000000e+00 -4.3845148e-06 
-1.2078015e-02 0.0000000e+00 -5.8464902e-06 
-1.6144477e-02 0.0000000e+00 -7.3084657e-06 
-2.0687273e-02 0.0000000e+00 -8.7704411e-06 
-2.5437651e-02 0.0000000e+00 -1.0232417e-05 
-3.0126855e-02 0.0000000e+00 -1.1694392e-05 
-3.4486130e-02 0.0000000e+00 -1.3156367e-05 
-3.8246721e-02 0.0000000e+00 -1.4618343e-05 
-4.1139875e-02 0.0000000e+00 -1.6080317e-05 
-4.2896833e-02 0.0000000e+00 -1.7542294e-05 
-4.3248843e-02 0.0000000e+00 -1.9004268e-05 
-4.1927148e-02 0.0000000e+00 -2.0466245e-05 
-3.8662996e-02 0.0000000e+00 -2.1928219e-05 
-3.3606648e-02 0.0000000e+00 -2.8935487e-05 
-2.7869396e-02 0.0000000e+00 -3.5942754e-05 
-2.2624055e-02 0.0000000e+00 -4.2950018e-05 
-1.9043429e-02 0.0000000e+00 -4.9957285e-05 
-1.8300325e-02 0.0000000e+00 -5.6964553e-05 
-2.1567551e-02 0.0000000e+00 -6.3971820e-05 
-3.0017914e-02 0.0000000e+00 -7.0979084e-05 
-4.4824220e-02 0.0000000e+00 -7.7986348e-05 
-6.7159280e-02 0.0000000e+00 -8.4993619e-05 
-9.8195896e-02 0.0000000e+00 -9.2000882e-05 
-1.3910688e-01 0.0000000e+00 -9.9008146e-05 
-1.9106503e-01 0.0000000e+00 -1.0601542e-04 
-2.5898856e-01 0.0000000e+00 -1.3959879e-04 
-3.4625030e-01 0.0000000e+00 -1.7318217e-04 
-4.5170513e-01 0.0000000e+00 -2.0676556e-04 
-3.2420787e-01 0.0000000e+00 -2.4034893e-04 
-2.1261339e-01 0.0000000e+00 -2.7393232e-04 
-1.1577653e-01 0.0000000e+00 -3.0751570e-04 
-3.2552149e-02 0.0000000e+00 -3.4109908e-04 
3.8204916e-02 0.0000000e+00 -3.7468245e-04 
9.7639821e-02 0.0000000e+00 -4.0826583e-04 
1.4689772e-01 0.0000000e+00 -4.4184920e-04 
1.8712375e-01 0.0000000e+00 -4.7543258e-04 
2.1946308e-01 0.0000000e+00 -5.0901598e-04 
ADJOINT_ROTATION 3 212  float
0.0000000e+00 -3.9895746e-04 0.0000000e+00 
0.0000000e+00 -3.9450431e-04 0.0000000e+00 
0.0000000e+00 -3.8114490e-04 0.0000000e+00 
0.0000000e+00 -3.5887922e-04 0.0000000e+00 
0.0000000e+00 -3.2770727e-04 0.0000000e+00 
0.0000000e+00 -2.8762902e-04 0.0000000e+00 
0.0000000e+00 -2.3864454e-04 0.0000000e+00 
0.0000000e+00 -1.8075376e-04 0.0000000e+00 
0.0000000e+00 -1.1395672e-04 0.0000000e+00 
0.0000000e+00 -3.8253398e-05 0.0000000e+00 
0.0000000e+00 4.6356196e-05 0.0000000e+00 
0.0000000e+00 1.3987206e-04 0.0000000e+00 
0.0000000e+00 2.4229421e-04 0.0000000e+00 
0.0000000e+00 3.1053071e-04 0.0000000e+00 
0.0000000e+00 3.2415165e-04 0.0000000e+00 
0.0000000e+00 2.8315699e-04 0.0000000e+00 
0.0000000e+00 1.8754674e-04 0.0000000e+00 
0.0000000e+00 3.7320926e-05 0.0000000e+00 
0.0000000e+00 -1.6752048e-04 0.0000000e+00 
0.0000000e+00 -4.2697747e-04 0.0000000e+00 
0.0000000e+00 -7.4105005e-04 0.0000000e+00 
0.0000000e+00 -1.1097381e-03 0.0000000e+00 
0.0000000e+00 -1.5330419e-03 0.0000000e+00 
0.0000000e+00 -2.0109613e-03 0.0000000e+00 
0.0000000e+00 -2.5434962e-03 0.0000000e+00 
0.0000000e+00 -3.3194509e-03 0.0000000e+00 
0.0000000e+00 -3.8514147e-03 0.0000000e+00 
0.0000000e+00 -4.1393875e-03 0.0000000e+00 
0.0000000e+00 -4.1833697e-03 0.0000000e+00 
0.0000000e+00 -3.9833607e-03 0.0000000e+00 
0.0000000e+00 -3.5393611e-03 0.0000000e+00 
0.0000000e+00 -2.8513705e-03 0.0000000e+00 
0.0000000e+00 -1.9193888e-03 0.0000000e+00 
0.0000000e+00 -7.4341631e-04 0.0000000e+00 
0.0000000e+00 6.7654712e-04 0.0000000e+00 
0.0000000e+00 2.3405014e-03 0.0000000e+00 
0.0000000e+00 4.2484468e-03 0.0000000e+00 
0.0000000e+00 5.4955068e-03 0.0000000e+00 
0.0000000e+00 5.6675472e-03 0.0000000e+00 
0.0000000e+00 4.7645676e-03 0.0000000e+00 
0.0000000e+00 2.7865688e-03 0.0000000e+00 
0.0000000e+00 -2.6644970e-04 0.0000000e+00 
0.0000000e+00 -4.3944879e-03 0.0000000e+00 
0.0000000e+00 -9.5975455e-03 0.0000000e+00 
0.0000000e+00 -1.5875623e-02 0.0000000e+00 
0.0000000e+00 -2.3228720e-02 0.0000000e+00 
0.0000000e+00 -3.1656835e-02 0.0000000e+00 
0.0000000e+00 -4.1159973e-02 0.0000000e+00 
0.0000000e+00 -5.1738128e-02 0.0000000e+00 
0.0000000e+00 -6.7691371e-02 0.0000000e+00 
0.0000000e+00 -7.8953393e-02 0.0000000e+00 
0.0000000e+00 -8.5524179e-02 0.0000000e+00 
0.0000000e+00 -8.7403737e-02 0.0000000e+00 
0.0000000e+00 -8.4592067e-02 0.0000000e+00 
0.0000000e+00 -7.7089168e-02 0.0000000e+00 
0.0000000e+00 -6.4895041e-02 0.0000000e+00 
0.0000000e+00 -4.8009682e-02 0.0000000e+00 
0.0000000e+00 -2.6433097e-02 0.0000000e+00 
0.0000000e+00 -1.6528224e-04 0.0000000e+00 
0.0000000e+00 3.0793762e-02 0.0000000e+00 
0.0000000e+00 6.6444032e-02 0.0000000e+00 
0.0000000e+00 9.3923897e-02 0.0000000e+00 
0.0000000e+00 1.1682314e-01 0.0000000e+00 
0.0000000e+00 1.3514178e-01 0.0000000e+00 
0.0000000e+00 1.4887981e-01 0.0000000e+00 
0.0000000e+00 1.5803723e-01 0.0000000e+00 
0.0000000e+00 1.6261403e-01 0.0000000e+00 
0.0000000e+00 1.6261023e-01 0.0000000e+00 
0.0000000e+00 1.5802583e-01 0.0000000e+00 
0.0000000e+00 1.4886080e-01 0.0000000e+00 
0.0000000e+00 1.3511518e-01 0.0000000e+00 
0.0000000e+00 1.1678892e-01 0.0000000e+00 
0.0000000e+00 9.3882076e-02 0.0000000e+00 
0.0000000e+00 2.5707559e-04 0.0000000e+00 
0.0000000e+00 -1.8988134e-03 0.0000000e+00 
0.0000000e+00 4.5893667e-03 0.0000000e+00 
0.0000000e+00 -3.8089510e-02 0.0000000e+00 
0.0000000e+00 7.9455532e-02 0.0000000e+00 
0.0000000e+00 4.7834706e-02 0.0000000e+00 
0.0000000e+00 2.5609593e-04 0.0000000e+00 
0.0000000e+00 -1.3171954e-03 0.0000000e+00 
0.0000000e+00 4.6306439e-03 0.0000000e+00 
0.0000000e+00 -2.5876429e-02 0.0000000e+00 
0.0000000e+00 8.5587144e-02 0.0000000e+00 
0.0000000e+00 1.0481233e-02 0.0000000e+00 
0.0000000e+00 2.3935518e-04 0.0000000e+00 
0.0000000e+00 -7.9864182e-04 0.0000000e+00 
0.0000000e+00 4.3722778e-03 0.0000000e+00 
0.0000000e+00 -1.5098883e-02 0.0000000e+00 
0.0000000e+00 8.4838860e-02 0.0000000e+00 
0.0000000e+00 -1.8178344e-02 0.0000000e+00 
0.0000000e+00 2.0685335e-04 0.0000000e+00 
0.0000000e+00 -3.4315287e-04 0.0000000e+00 
0.0000000e+00 3.8142684e-03 0.0000000e+00 
0.0000000e+00 -5.7568750e-03 0.0000000e+00 
0.0000000e+00 7.7210687e-02 0.0000000e+00 
0.0000000e+00 -3.8144026e-02 0.0000000e+00 
0.0000000e+00 1.5859044e-04 0.0000000e+00 
0.0000000e+00 4.9271435e-05 0.0000000e+00 
0.0000000e+00 2.9566160e-03 0.0000000e+00 
0.0000000e+00 2.1495966e-03 0.0000000e+00 
0.0000000e+00 6.2702626e-02 0.0000000e+00 
0.0000000e+00 -4.9415812e-02 0.0000000e+00 
0.0000000e+00 9.4566465e-05 0.0000000e+00 
0.0000000e+00 3.7863114e-04 0.0000000e+00 
0.0000000e+00 1.7993203e-03 0.0000000e+00 
0.0000000e+00 8.6205313e-03 0.0000000e+00 
0.0000000e+00 4.1314676e-02 0.0000000e+00 
0.0000000e+00 -5.1993702e-02 0.0000000e+00 
0.0000000e+00 1.4781403e-05 0.0000000e+00 
0.0000000e+00 6.4492627e-04 0.0000000e+00 
0.0000000e+00 3.4238162e-04 0.0000000e+00 
0.0000000e+00 1.3655928e-02 0.0000000e+00 
0.0000000e+00 1.3046837e-02 0.0000000e+00 
0.0000000e+00 -4.5877695e-02 0.0000000e+00 
0.0000000e+00 -8.0764730e-05 0.0000000e+00 
0.0000000e+00 8.4815675e-04 0.0000000e+00 
0.0000000e+00 -1.4142002e-03 0.0000000e+00 
0.0000000e+00 1.7255789e-02 0.0000000e+00 
0.0000000e+00 -2.2100894e-02 0.0000000e+00 
0.0000000e+00 -3.1067796e-02 0.0000000e+00 
0.0000000e+00 -1.9207195e-04 0.0000000e+00 
0.0000000e+00 9.8832266e-04 0.0000000e+00 
0.0000000e+00 -3.4704253e-03 0.0000000e+00 
0.0000000e+00 1.9420113e-02 0.0000000e+00 
0.0000000e+00 -6.4128511e-02 0.0000000e+00 
0.0000000e+00 -7.5639989e-03 0.0000000e+00 
0.0000000e+00 -3.1914024e-04 0.0000000e+00 
0.0000000e+00 1.0654239e-03 0.0000000e+00 
0.0000000e+00 -5.8262935e-03 0.0000000e+00 
0.0000000e+00 2.0148899e-02 0.0000000e+00 
0.0000000e+00 -1.1303602e-01 0.0000000e+00 
0.0000000e+00 2.4633693e-02 0.0000000e+00 
0.0000000e+00 -4.6196961e-04 0.0000000e+00 
0.0000000e+00 1.0794607e-03 0.0000000e+00 
0.0000000e+00 -8.4818043e-03 0.0000000e+00 
0.0000000e+00 1.9442149e-02 0.0000000e+00 
0.0000000e+00 -1.6882342e-01 0.0000000e+00 
0.0000000e+00 6.5525278e-02 0.0000000e+00 
0.0000000e+00 2.0691597e-05 0.0000000e+00 
0.0000000e+00 1.6238462e-05 0.0000000e+00 
0.0000000e+00 2.8790525e-06 0.0000000e+00 
0.0000000e+00 -1.9386629e-05 0.0000000e+00 
0.0000000e+00 -5.0558585e-05 0.0000000e+00 
0.0000000e+00 -9.0636815e-05 0.0000000e+00 
0.0000000e+00 -1.3962132e-04 0.0000000e+00 
0.0000000e+00 -1.9751208e-04 0.0000000e+00 
0.0000000e+00 -2.6430914e-04 0.0000000e+00 
0.0000000e+00 -3.4001246e-04 0.0000000e+00 
0.0000000e+00 -4.2462203e-04 0.0000000e+00 
0.0000000e+00 -5.1813788e-04 0.0000000e+00 
0.0000000e+00 -6.2056002e-04 0.0000000e+00 
0.0000000e+00 -7.8336301e-04 0.0000000e+00 
0.0000000e+00 -8.9155039e-04 0.0000000e+00 
0.0000000e+00 -9.4512221e-04 0.0000000e+00 
0.0000000e+00 -9.4407843e-04 0.0000000e+00 
0.0000000e+00 -8.8841910e-04 0.0000000e+00 
0.0000000e+00 -7.7814417e-04 0.0000000e+00 
0.0000000e+00 -6.1325362e-04 0.0000000e+00 
0.0000000e+00 -3.9374750e-04 0.0000000e+00 
0.0000000e+00 -1.1962581e-04 0.0000000e+00 
0.0000000e+00 2.0911146e-04 0.0000000e+00 
0.0000000e+00 5.9246435e-04 0.0000000e+00 
0.0000000e+00 1.0304328e-03 0.0000000e+00 
0.0000000e+00 1.3334334e-03 0.0000000e+00 
0.0000000e+00 1.3924432e-03 0.0000000e+00 
0.0000000e+00 1.2074620e-03 0.0000000e+00 
0.0000000e+00 7.7849004e-04 0.0000000e+00 
0.0000000e+00 1.0552709e-04 0.0000000e+00 
0.0000000e+00 -8.1142678e-04 0.0000000e+00 
0.0000000e+00 -1.9723715e-03 0.0000000e+00 
0.0000000e+00 -3.3773072e-03 0.0000000e+00 
0.0000000e+00 -5.0262338e-03 0.0000000e+00 
0.0000000e+00 -6.9191512e-03 0.0000000e+00 
0.0000000e+00 -9.0560596e-03 0.0000000e+00 
0.0000000e+00 -1.1436959e-02 0.0000000e+00 
0.0000000e+00 -1.4954831e-02 0.0000000e+00 
0.0000000e+00 -1.7397685e-02 0.0000000e+00 
0.0000000e+00 -1.8765518e-02 0.0000000e+00 
0.0000000e+00 -1.9058332e-02 0.0000000e+00 
0.0000000e+00 -1.8276127e-02 0.0000000e+00 
0.0000000e+00 -1.6418902e-02 0.0000000e+00 
0.0000000e+00 -1.3486657e-02 0.0000000e+00 
0.0000000e+00 -9.4793923e-03 0.0000000e+00 
0.0000000e+00 -4.3971082e-03 0.0000000e+00 
0.0000000e+00 1.7601956e-03 0.0000000e+00 
0.0000000e+00 8.9925192e-03 0.0000000e+00 
0.0000000e+00 1.7299863e-02 0.0000000e+00 
0.0000000e+00 2.2369074e-02 0.0000000e+00 
0.0000000e+00 2.2747055e-02 0.0000000e+00 
0.0000000e+00 1.8433807e-02 0.0000000e+00 
0.0000000e+00 9.4293319e-03 0.0000000e+00 
0.0000000e+00 -4.2663729e-03 0.0000000e+00 
0.0000000e+00 -2.2653306e-02 0.0000000e+00 
0.0000000e+00 -4.5731470e-02 0.0000000e+00 
0.0000000e+00 -7.3500857e-02 0.0000000e+00 
0.0000000e+00 -1.0596148e-01 0.0000000e+00 
0.0000000e+00 -1.4311333e-01 0.0000000e+00 
0.0000000e+00 -1.8495640e-01 0.0000000e+00 
0.0000000e+00 -2.3149072e-01 0.0000000e+00 
0.0000000e+00 -3.1113395e-01 0.0000000e+00 
0.0000000e+00 -3.8619658e-01 0.0000000e+00 
0.0000000e+00 -4.5667857e-01 0.0000000e+00 
0.0000000e+00 4.7742000e-01 0.0000000e+00 