# vtk DataFile Version 4.0
vtk output
ASCII
DATASET UNSTRUCTURED_GRID
POINTS 30 float
0.0000000e+00 0.0000000e+00 0.0000000e+00 
0.0000000e+00 0.0000000e+00 8.0000001e-01 
0.0000000e+00 0.0000000e+00 1.6000000e+00 
0.0000000e+00 0.0000000e+00 2.4000001e+00 
0.0000000e+00 0.0000000e+00 3.2000000e+00 
0.0000000e+00 0.0000000e+00 4.0000000e+00 
0.0000000e+00 0.0000000e+00 4.8000002e+00 
0.0000000e+00 0.0000000e+00 5.5999999e+00 
0.0000000e+00 0.0000000e+00 6.4000001e+00 
0.0000000e+00 0.0000000e+00 7.1999998e+00 
0.0000000e+00 0.0000000e+00 8.0000000e+00 
1.0000000e+01 0.0000000e+00 0.0000000e+00 
1.0000000e+01 0.0000000e+00 8.0000001e-01 
1.0000000e+01 0.0000000e+00 1.6000000e+00 
1.0000000e+01 0.0000000e+00 2.4000001e+00 
1.0000000e+01 0.0000000e+00 3.2000000e+00 
1.0000000e+01 0.0000000e+00 4.0000000e+00 
1.0000000e+01 0.0000000e+00 4.8000002e+00 
1.0000000e+01 0.0000000e+00 5.5999999e+00 
1.0000000e+01 0.0000000e+00 6.4000001e+00 
1.0000000e+01 0.0000000e+00 7.1999998e+00 
1.0000000e+01 0.0000000e+00 8.0000000e+00 
2.0000000e+00 0.0000000e+00 4.0000000e+00 
4.0000000e+00 0.0000000e+00 4.0000000e+00 
6.0000000e+00 0.0000000e+00 4.0000000e+00 
8.0000000e+00 0.0000000e+00 4.0000000e+00 
2.0000000e+00 0.0000000e+00 8.0000000e+00 
4.0000000e+00 0.0000000e+00 8.0000000e+00 
6.0000000e+00 0.0000000e+00 8.0000000e+00 
8.0000000e+00 0.0000000e+00 8.0000000e+00 

CELLS 30 90
2 0 1
2 1 2
2 2 3
2 3 4
2 4 5
2 5 6
2 6 7
2 7 8
2 8 9
2 9 10
2 11 12
2 12 13
2 13 14
2 14 15
2 15 16
2 16 17
2 17 18
2 18 19
2 19 20
2 20 21
2 5 22
2 22 23
2 23 24
2 24 25
2 25 16
2 10 26
2 26 27
2 27 28
2 28 29
2 29 21

CELL_TYPES 30
3
3
3
3
3
3
3
3
3
3
3
3
3
3
3
3
3
3
3
3
3
3
3
3
3
3
3
3
3
3
POINT_DATA 30
FIELD FieldData 3
ADJOINT_DISPLACEMENT 3 30  float
0.0000000e+00 0.0000000e+00 0.0000000e+00 
-6.2019788e-02 0.0000000e+00 -6.2906239e-17 
-1.3133836e-01 0.0000000e+00 -1.2581248e-16 
-2.1525450e-01 0.0000000e+00 -1.8871872e-16 
-3.2106698e-01 0.0000000e+00 -2.5162495e-16 
-4.5607460e-01 0.0000000e+00 -3.1453118e-16 
-6.5237087e-01 0.0000000e+00 1.6358282e-04 
-9.3441308e-01 0.0000000e+00 3.2716565e-04 
-1.2980458e+00 0.0000000e+00 4.9074850e-04 
-9.3911350e-01 0.0000000e+00 6.5433129e-04 
-6.5346086e-01 0.0000000e+00 8.1791414e-04 
0.0000000e+00 0.0000000e+00 0.0000000e+00 
-1.1973891e-01 0.0000000e+00 8.9163049e-17 
-2.3217903e-01 0.0000000e+00 1.7854676e-16 
-3.3002159e-01 0.0000000e+00 2.7004236e-16 
-4.0596780e-01 0.0000000e+00 3.5796756e-16 
-4.5271888e-01 0.0000000e+00 4.4300834e-16 
-4.8180342e-01 0.0000000e+00 -1.6358282e-04 
-5.1238614e-01 0.0000000e+00 -3.2716565e-04 
-5.4862261e-01 0.0000000e+00 -4.9074850e-04 
-5.9466815e-01 0.0000000e+00 -6.5433129e-04 
-6.5467829e-01 0.0000000e+00 -8.1791414e-04 
-4.5540348e-01 0.0000000e+00 2.3137276e-01 
-4.5473233e-01 0.0000000e+00 2.3800392e-01 
-4.5406118e-01 0.0000000e+00 1.2894870e-01 
-4.5339003e-01 0.0000000e+00 1.3262327e-02 
-6.5370435e-01 0.0000000e+00 -4.2734006e-01 
-6.5394783e-01 0.0000000e+00 -5.3252745e-01 
-6.5419132e-01 0.0000000e+00 -4.2379937e-01 
-6.5443480e-01 0.0000000e+00 -2.1021113e-01 
ADJOINT_ROTATION 3 30  float
0.0000000e+00 -7.6004155e-02 0.0000000e+00 
0.0000000e+00 -8.0565892e-02 0.0000000e+00 
0.0000000e+00 -9.4251111e-02 0.0000000e+00 
0.0000000e+00 -1.1705981e-01 0.0000000e+00 
0.0000000e+00 -1.4899199e-01 0.0000000e+00 
0.0000000e+00 -1.9004765e-01 0.0000000e+00 
0.0000000e+00 -2.9982725e-01 0.0000000e+00 
0.0000000e+00 -4.0441254e-01 0.0000000e+00 
0.0000000e+00 -5.0380349e-01 0.0000000e+00 
0.0000000e+00 4.0199986e-01 0.0000000e+00 
0.0000000e+00 3.1299752e-01 0.0000000e+00 
0.0000000e+00 -1.5119421e-01 0.0000000e+00 
0.0000000e+00 -1.4663248e-01 0.0000000e+00 
0.0000000e+00 -1.3294727e-01 0.0000000e+00 
0.0000000e+00 -1.1013856e-01 0.0000000e+00 
0.0000000e+00 -7.8206383e-02 0.0000000e+00 
0.0000000e+00 -3.7150718e-02 0.0000000e+00 
0.0000000e+00 -3.6426336e-02 0.0000000e+00 
0.0000000e+00 -4.0896267e-02 0.0000000e+00 
0.0000000e+00 -5.0560519e-02 0.0000000e+00 
0.0000000e+00 -6.5419093e-02 0.0000000e+00 
0.0000000e+00 -8.5471980e-02 0.0000000e+00 
0.0000000e+00 -5.0413046e-02 0.0000000e+00 
0.0000000e+00 3.4693949e-02 0.0000000e+00 
0.0000000e+00 6.5273337e-02 0.0000000e+00 
0.0000000e+00 4.1325111e-02 0.0000000e+00 
0.0000000e+00 1.2424840e-01 0.0000000e+00 
0.0000000e+00 -9.9731088e-03 0.0000000e+00 
0.0000000e+00 -8.9667007e-02 0.0000000e+00 
0.0000000e+00 -1.1483330e-01 0.0000000e+00 
SHAPE_SENSITIVITY 3 30  float
0.0000000e+00 0.0000000e+00 0.0000000e+00 
0.0000000e+00 0.0000000e+00 0.0000000e+00 
0.0000000e+00 0.0000000e+00 0.0000000e+00 
0.0000000e+00 0.0000000e+00 0.0000000e+00 
0.0000000e+00 0.0000000e+00 0.0000000e+00 
0.0000000e+00 0.0000000e+00 0.0000000e+00 
0.0000000e+00 0.0000000e+00 0.0000000e+00 
0.0000000e+00 0.0000000e+00 0.0000000e+00 
0.0000000e+00 0.0000000e+00 0.0000000e+00 
0.0000000e+00 0.0000000e+00 0.0000000e+00 
0.0000000e+00 0.0000000e+00 0.0000000e+00 
0.0000000e+00 0.0000000e+00 0.0000000e+00 
0.0000000e+00 0.0000000e+00 0.0000000e+00 
0.0000000e+00 0.0000000e+00 0.0000000e+00 
0.0000000e+00 0.0000000e+00 0.0000000e+00 
0.0000000e+00 0.0000000e+00 0.0000000e+00 
0.0000000e+00 0.0000000e+00 0.0000000e+00 
0.0000000e+00 0.0000000e+00 0.0000000e+00 
0.0000000e+00 0.0000000e+00 0.0000000e+00 
0.0000000e+00 0.0000000e+00 0.0000000e+00 
0.0000000e+00 0.0000000e+00 0.0000000e+00 
0.0000000e+00 0.0000000e+00 0.0000000e+00 
0.0000000e+00 0.0000000e+00 0.0000000e+00 
0.0000000e+00 0.0000000e+00 0.0000000e+00 
0.0000000e+00 0.0000000e+00 0.0000000e+00 
0.0000000e+00 0.0000000e+00 0.0000000e+00 
0.0000000e+00 0.0000000e+00 0.0000000e+00 
0.0000000e+00 0.0000000e+00 0.0000000e+00 
0.0000000e+00 0.0000000e+00 0.0000000e+00 
0.0000000e+00 0.0000000e+00 0.0000000e+00 
CELL_DATA 30
FIELD FieldData 1
I22_SENSITIVITY 1 30  float
-7.1130789e+04
-4.9791494e+05
-1.9295869e+06
-4.4245715e+06
-7.1353455e+06
-6.5662020e+06
1.0599024e+05
2.9891908e+06
1.8660742e+06
-8.0457231e+05
5.1068488e+04
3.5747741e+05
1.1620586e+06
2.6565728e+06
4.6577735e+06
2.0424297e+04
-3.1398878e+05
-8.4882056e+05
-1.2574672e+06
-1.6323206e+06
1.1260200e+07
5.6864410e+06
7.9794681e+05
2.4889075e+06
8.7122490e+06
-5.5562540e+06
-5.2902710e+06
-3.7355658e+06
-7.6023562e+05
-1.6805298e+06
