# vtk DataFile Version 4.0
vtk output
ASCII
DATASET UNSTRUCTURED_GRID
POINTS 11 float
0.0000000e+00 0.0000000e+00 0.0000000e+00 
1.0000000e+00 0.0000000e+00 0.0000000e+00 
2.0000000e+00 0.0000000e+00 0.0000000e+00 
2.0000000e-01 0.0000000e+00 0.0000000e+00 
4.0000001e-01 0.0000000e+00 0.0000000e+00 
6.0000002e-01 0.0000000e+00 0.0000000e+00 
8.0000001e-01 0.0000000e+00 0.0000000e+00 
1.2000000e+00 0.0000000e+00 0.0000000e+00 
1.4000000e+00 0.0000000e+00 0.0000000e+00 
1.6000000e+00 0.0000000e+00 0.0000000e+00 
1.8000000e+00 0.0000000e+00 0.0000000e+00 

CELLS 10 30
2 0 3
2 3 4
2 4 5
2 5 6
2 6 1
2 1 7
2 7 8
2 8 9
2 9 10
2 10 2

CELL_TYPES 10
3
3
3
3
3
3
3
3
3
3
POINT_DATA 11
FIELD FieldData 6
DISPLACEMENT 3 11  float
0.0000000e+00 0.0000000e+00 0.0000000e+00 
0.0000000e+00 -1.9682539e-03 0.0000000e+00 
0.0000000e+00 0.0000000e+00 0.0000000e+00 
0.0000000e+00 -6.1714288e-04 0.0000000e+00 
0.0000000e+00 -1.1682539e-03 0.0000000e+00 
0.0000000e+00 -1.6000000e-03 0.0000000e+00 
0.0000000e+00 -1.8742858e-03 0.0000000e+00 
0.0000000e+00 -1.8742858e-03 0.0000000e+00 
0.0000000e+00 -1.6000000e-03 0.0000000e+00 
0.0000000e+00 -1.1682539e-03 0.0000000e+00 
0.0000000e+00 -6.1714288e-04 0.0000000e+00 
REACTION 3 11  float
-2.8415483e+03 1.0005661e+04 0.0000000e+00 
6.5895733e-11 -3.9743733e-02 0.0000000e+00 
2.8415483e+03 1.0005661e+04 0.0000000e+00 
5.7267603e+02 -1.6095150e+00 0.0000000e+00 
8.7534576e+02 -2.0878179e+00 0.0000000e+00 
8.3085767e+02 -1.4423666e+00 0.0000000e+00 
4.9661536e+02 -4.7807479e-01 0.0000000e+00 
-4.9661536e+02 -4.7801092e-01 0.0000000e+00 
-8.3085767e+02 -1.4424304e+00 0.0000000e+00 
-8.7534576e+02 -2.0877862e+00 0.0000000e+00 
-5.7267603e+02 -1.6095465e+00 0.0000000e+00 
ROTATION 3 11  float
0.0000000e+00 0.0000000e+00 -3.1428572e-03 
0.0000000e+00 0.0000000e+00 -8.5740811e-17 
0.0000000e+00 0.0000000e+00 3.1428572e-03 
0.0000000e+00 0.0000000e+00 -2.9714287e-03 
0.0000000e+00 0.0000000e+00 -2.4952381e-03 
0.0000000e+00 0.0000000e+00 -1.7904761e-03 
0.0000000e+00 0.0000000e+00 -9.3333336e-04 
0.0000000e+00 0.0000000e+00 9.3333336e-04 
0.0000000e+00 0.0000000e+00 1.7904761e-03 
0.0000000e+00 0.0000000e+00 2.4952381e-03 
0.0000000e+00 0.0000000e+00 2.9714287e-03 
REACTION_MOMENT 3 11  float
0.0000000e+00 0.0000000e+00 -3.1505784e-01 
0.0000000e+00 0.0000000e+00 -1.4038960e-08 
0.0000000e+00 0.0000000e+00 3.1505787e-01 
0.0000000e+00 0.0000000e+00 -5.3723127e-01 
0.0000000e+00 0.0000000e+00 -3.2688695e-01 
0.0000000e+00 0.0000000e+00 -1.2959653e-01 
0.0000000e+00 0.0000000e+00 -2.4989361e-02 
0.0000000e+00 0.0000000e+00 2.4995718e-02 
0.0000000e+00 0.0000000e+00 1.2960289e-01 
0.0000000e+00 0.0000000e+00 3.2689014e-01 
0.0000000e+00 0.0000000e+00 5.3723443e-01 
FORCE 3 11  float
2.8693235e+03 -8.9968457e+03 0.0000000e+00 
6.6523247e+01 6.9944178e-08 0.0000000e+00 
2.8693235e+03 8.9968457e+03 0.0000000e+00 
2.5787437e+03 -7.9973032e+03 0.0000000e+00 
1.8462426e+03 -5.9983433e+03 0.0000000e+00 
9.8555243e+02 -3.9993254e+03 0.0000000e+00 
3.1665332e+02 -1.9998572e+03 0.0000000e+00 
3.1665332e+02 1.9998571e+03 0.0000000e+00 
9.8555243e+02 3.9993254e+03 0.0000000e+00 
1.8462426e+03 5.9983433e+03 0.0000000e+00 
2.5787437e+03 7.9973032e+03 0.0000000e+00 
MOMENT 3 11  float
0.0000000e+00 0.0000000e+00 -7.0642169e+02 
0.0000000e+00 0.0000000e+00 -4.9215166e+03 
0.0000000e+00 0.0000000e+00 -7.0642169e+02 
0.0000000e+00 0.0000000e+00 -1.7215129e+03 
0.0000000e+00 0.0000000e+00 -3.1215122e+03 
0.0000000e+00 0.0000000e+00 -4.1215137e+03 
0.0000000e+00 0.0000000e+00 -4.7215161e+03 
0.0000000e+00 0.0000000e+00 -4.7215161e+03 
0.0000000e+00 0.0000000e+00 -4.1215137e+03 
0.0000000e+00 0.0000000e+00 -3.1215122e+03 
0.0000000e+00 0.0000000e+00 -1.7215129e+03 
CELL_DATA 10
FIELD FieldData 2
FORCE 3 10  float
2.8693235e+03 -8.9968457e+03 0.0000000e+00 
2.2881636e+03 -6.9977603e+03 0.0000000e+00 
1.4043210e+03 -4.9989248e+03 0.0000000e+00 
5.6678320e+02 -2.9997246e+03 0.0000000e+00 
6.6523247e+01 -9.9998883e+02 0.0000000e+00 
6.6523247e+01 9.9998883e+02 0.0000000e+00 
5.6678320e+02 2.9997246e+03 0.0000000e+00 
1.4043210e+03 4.9989248e+03 0.0000000e+00 
2.2881636e+03 6.9977603e+03 0.0000000e+00 
2.8693235e+03 8.9968457e+03 0.0000000e+00 
MOMENT 3 10  float
0.0000000e+00 0.0000000e+00 -9.0000391e+02 
0.0000000e+00 0.0000000e+00 -2.5000088e+03 
0.0000000e+00 0.0000000e+00 -3.7000078e+03 
0.0000000e+00 0.0000000e+00 -4.5000039e+03 
0.0000000e+00 0.0000000e+00 -4.9000005e+03 
0.0000000e+00 0.0000000e+00 -4.9000005e+03 
0.0000000e+00 0.0000000e+00 -4.5000039e+03 
0.0000000e+00 0.0000000e+00 -3.7000078e+03 
0.0000000e+00 0.0000000e+00 -2.5000088e+03 
0.0000000e+00 0.0000000e+00 -9.0000391e+02 
