# vtk DataFile Version 4.0
vtk output
ASCII
DATASET UNSTRUCTURED_GRID
POINTS 30 float
0.0000000e+00 0.0000000e+00 0.0000000e+00 
0.0000000e+00 0.0000000e+00 8.0000001e-01 
0.0000000e+00 0.0000000e+00 1.6000000e+00 
0.0000000e+00 0.0000000e+00 2.4000001e+00 
0.0000000e+00 0.0000000e+00 3.2000000e+00 
0.0000000e+00 0.0000000e+00 4.0000000e+00 
0.0000000e+00 0.0000000e+00 4.8000002e+00 
0.0000000e+00 0.0000000e+00 5.5999999e+00 
0.0000000e+00 0.0000000e+00 6.4000001e+00 
0.0000000e+00 0.0000000e+00 7.1999998e+00 
0.0000000e+00 0.0000000e+00 8.0000000e+00 
1.0000000e+01 0.0000000e+00 0.0000000e+00 
1.0000000e+01 0.0000000e+00 8.0000001e-01 
1.0000000e+01 0.0000000e+00 1.6000000e+00 
1.0000000e+01 0.0000000e+00 2.4000001e+00 
1.0000000e+01 0.0000000e+00 3.2000000e+00 
1.0000000e+01 0.0000000e+00 4.0000000e+00 
1.0000000e+01 0.0000000e+00 4.8000002e+00 
1.0000000e+01 0.0000000e+00 5.5999999e+00 
1.0000000e+01 0.0000000e+00 6.4000001e+00 
1.0000000e+01 0.0000000e+00 7.1999998e+00 
1.0000000e+01 0.0000000e+00 8.0000000e+00 
2.0000000e+00 0.0000000e+00 4.0000000e+00 
4.0000000e+00 0.0000000e+00 4.0000000e+00 
6.0000000e+00 0.0000000e+00 4.0000000e+00 
8.0000000e+00 0.0000000e+00 4.0000000e+00 
2.0000000e+00 0.0000000e+00 8.0000000e+00 
4.0000000e+00 0.0000000e+00 8.0000000e+00 
6.0000000e+00 0.0000000e+00 8.0000000e+00 
8.0000000e+00 0.0000000e+00 8.0000000e+00 

CELLS 30 90
2 0 1
2 1 2
2 2 3
2 3 4
2 4 5
2 5 6
2 6 7
2 7 8
2 8 9
2 9 10
2 11 12
2 12 13
2 13 14
2 14 15
2 15 16
2 16 17
2 17 18
2 18 19
2 19 20
2 20 21
2 5 22
2 22 23
2 23 24
2 24 25
2 25 16
2 10 26
2 26 27
2 27 28
2 28 29
2 29 21

CELL_TYPES 30
3
3
3
3
3
3
3
3
3
3
3
3
3
3
3
3
3
3
3
3
3
3
3
3
3
3
3
3
3
3
POINT_DATA 30
FIELD FieldData 7
DISPLACEMENT 3 30  float
0.0000000e+00 0.0000000e+00 0.0000000e+00 
-4.4697197e-03 0.0000000e+00 -8.2756460e-06 
-8.7797306e-03 0.0000000e+00 -1.6551292e-05 
-1.2771648e-02 0.0000000e+00 -2.1789023e-05 
-1.6269071e-02 0.0000000e+00 -2.4521452e-05 
-1.9003619e-02 0.0000000e+00 -2.7253880e-05 
-2.1349549e-02 0.0000000e+00 -2.6371783e-05 
-2.3699064e-02 0.0000000e+00 -2.5489686e-05 
-2.5787367e-02 0.0000000e+00 -2.4607589e-05 
-2.7370321e-02 0.0000000e+00 -2.5864048e-05 
-2.8304365e-02 0.0000000e+00 -3.0348720e-05 
0.0000000e+00 0.0000000e+00 0.0000000e+00 
-4.4256290e-03 0.0000000e+00 -5.9944327e-08 
-8.7186210e-03 0.0000000e+00 5.3795509e-07 
-1.2684394e-02 0.0000000e+00 2.7351571e-06 
-1.6155114e-02 0.0000000e+00 4.9323589e-06 
-1.8958122e-02 0.0000000e+00 9.9230874e-06 
-2.1270636e-02 0.0000000e+00 1.5058765e-05 
-2.3396270e-02 0.0000000e+00 2.0194442e-05 
-2.5302799e-02 0.0000000e+00 2.2352644e-05 
-2.6964618e-02 0.0000000e+00 2.4356696e-05 
-2.8287018e-02 0.0000000e+00 2.5889212e-05 
-1.8998682e-02 0.0000000e+00 2.1997767e-03 
-1.8992238e-02 0.0000000e+00 2.2778583e-04 
-1.8982707e-02 0.0000000e+00 -2.7824198e-03 
-1.8970644e-02 0.0000000e+00 -3.5896120e-03 
-2.8299622e-02 0.0000000e+00 -1.3610593e-04 
-2.8299278e-02 0.0000000e+00 -1.2986546e-03 
-2.8293712e-02 0.0000000e+00 -1.8689266e-03 
-2.8290365e-02 0.0000000e+00 -1.6871442e-03 
ROTATION 3 30  float
0.0000000e+00 -5.6204228e-03 0.0000000e+00 
0.0000000e+00 -5.5206046e-03 0.0000000e+00 
0.0000000e+00 -5.2211490e-03 0.0000000e+00 
0.0000000e+00 -4.7270316e-03 0.0000000e+00 
0.0000000e+00 -3.9557540e-03 0.0000000e+00 
0.0000000e+00 -2.8198422e-03 0.0000000e+00 
0.0000000e+00 -2.9898186e-03 0.0000000e+00 
0.0000000e+00 -2.8288008e-03 0.0000000e+00 
0.0000000e+00 -2.3367889e-03 0.0000000e+00 
0.0000000e+00 -1.5912546e-03 0.0000000e+00 
0.0000000e+00 -7.3693733e-04 0.0000000e+00 
0.0000000e+00 -5.5558560e-03 0.0000000e+00 
0.0000000e+00 -5.4843966e-03 0.0000000e+00 
0.0000000e+00 -5.2013858e-03 0.0000000e+00 
0.0000000e+00 -4.6804273e-03 0.0000000e+00 
0.0000000e+00 -3.9637550e-03 0.0000000e+00 
0.0000000e+00 -2.9910291e-03 0.0000000e+00 
0.0000000e+00 -2.7820510e-03 0.0000000e+00 
0.0000000e+00 -2.5238290e-03 0.0000000e+00 
0.0000000e+00 -2.2432448e-03 0.0000000e+00 
0.0000000e+00 -1.8844925e-03 0.0000000e+00 
0.0000000e+00 -1.4096090e-03 0.0000000e+00 
0.0000000e+00 2.3201088e-04 0.0000000e+00 
0.0000000e+00 1.5092391e-03 0.0000000e+00 
0.0000000e+00 1.2043277e-03 0.0000000e+00 
0.0000000e+00 -6.0045323e-04 0.0000000e+00 
0.0000000e+00 5.3866633e-04 0.0000000e+00 
0.0000000e+00 4.8473064e-04 0.0000000e+00 
0.0000000e+00 1.2164198e-04 0.0000000e+00 
0.0000000e+00 -3.8856413e-04 0.0000000e+00 
REACTION 3 30  float
9.8258730e+03 -0.0000000e+00 2.1723570e+04 
-0.0000000e+00 -0.0000000e+00 -0.0000000e+00 
-5.6570570e-10 -0.0000000e+00 -3.6379788e-12 
1.7716957e-09 -0.0000000e+00 3.6379788e-12 
-8.0326572e-09 -0.0000000e+00 7.2759576e-12 
5.1222742e-09 -0.0000000e+00 -2.1827873e-10 
-1.0360964e-08 -0.0000000e+00 1.0477379e-09 
8.1490725e-09 -0.0000000e+00 6.5483619e-11 
-3.8526196e-09 -0.0000000e+00 4.8203219e-11 
-6.1118044e-10 -0.0000000e+00 -1.8189894e-11 
2.9012881e-09 -0.0000000e+00 -1.0913936e-11 
7.0343237e+03 -0.0000000e+00 1.5735385e+02 
-6.7302608e-10 -0.0000000e+00 1.5234036e-11 
-1.7280399e-09 -0.0000000e+00 -7.5488060e-11 
9.3132257e-10 -0.0000000e+00 2.4647306e-10 
-1.9645086e-10 -0.0000000e+00 1.0732037e-10 
9.3132257e-10 -0.0000000e+00 3.5943231e-09 
1.5133992e-09 -0.0000000e+00 7.2759576e-12 
2.7075657e-09 -0.0000000e+00 -7.2759576e-12 
-6.8184818e-09 -0.0000000e+00 2.7521310e-09 
-1.5243131e-09 -0.0000000e+00 1.8189894e-12 
3.7252903e-09 -0.0000000e+00 4.5838533e-10 
-1.3387762e-09 -0.0000000e+00 -1.1750672e-09 
2.7393980e-09 -0.0000000e+00 -5.4933480e-10 
2.5102054e-10 -0.0000000e+00 -1.3169483e-09 
4.1109161e-09 -0.0000000e+00 1.0913936e-11 
-3.7616701e-09 -0.0000000e+00 -2.0008883e-11 
2.6930138e-09 -0.0000000e+00 2.1827873e-11 
3.2650860e-09 -0.0000000e+00 -2.6811904e-09 
-3.7252903e-09 -0.0000000e+00 -2.5465852e-11 
REACTION_MOMENT 3 30  float
-0.0000000e+00 -5.8207661e-11 -0.0000000e+00 
-0.0000000e+00 -5.8207661e-11 -0.0000000e+00 
-0.0000000e+00 1.2223609e-09 -0.0000000e+00 
-0.0000000e+00 8.1490725e-10 -0.0000000e+00 
-0.0000000e+00 -1.7462298e-09 -0.0000000e+00 
-0.0000000e+00 -6.8102963e-09 -0.0000000e+00 
-0.0000000e+00 -3.7252903e-09 -0.0000000e+00 
-0.0000000e+00 -3.4924597e-09 -0.0000000e+00 
-0.0000000e+00 3.3614924e-09 -0.0000000e+00 
-0.0000000e+00 2.0590960e-09 -0.0000000e+00 
-0.0000000e+00 4.6566129e-10 -0.0000000e+00 
-0.0000000e+00 2.3283064e-10 -0.0000000e+00 
-0.0000000e+00 2.3283064e-10 -0.0000000e+00 
-0.0000000e+00 3.4924597e-10 -0.0000000e+00 
-0.0000000e+00 1.4551915e-09 -0.0000000e+00 
-0.0000000e+00 -9.3132257e-10 -0.0000000e+00 
-0.0000000e+00 -4.3655746e-10 -0.0000000e+00 
-0.0000000e+00 -3.2014214e-10 -0.0000000e+00 
-0.0000000e+00 1.1059456e-09 -0.0000000e+00 
-0.0000000e+00 -2.9103830e-10 -0.0000000e+00 
-0.0000000e+00 1.3242243e-09 -0.0000000e+00 
-0.0000000e+00 1.6007107e-10 -0.0000000e+00 
-0.0000000e+00 -4.8021320e-10 -0.0000000e+00 
-0.0000000e+00 -7.2759576e-12 -0.0000000e+00 
-0.0000000e+00 2.8376235e-10 -0.0000000e+00 
-0.0000000e+00 -2.9103830e-11 -0.0000000e+00 
-0.0000000e+00 -1.0913936e-11 -0.0000000e+00 
-0.0000000e+00 2.9103830e-11 -0.0000000e+00 
-0.0000000e+00 -1.6370905e-11 -0.0000000e+00 
-0.0000000e+00 -3.6379788e-12 -0.0000000e+00 
VOLUME_ACCELERATION 3 30  float
0.0000000e+00 0.0000000e+00 0.0000000e+00 
0.0000000e+00 0.0000000e+00 0.0000000e+00 
0.0000000e+00 0.0000000e+00 0.0000000e+00 
0.0000000e+00 0.0000000e+00 0.0000000e+00 
0.0000000e+00 0.0000000e+00 0.0000000e+00 
0.0000000e+00 0.0000000e+00 0.0000000e+00 
0.0000000e+00 0.0000000e+00 0.0000000e+00 
0.0000000e+00 0.0000000e+00 0.0000000e+00 
0.0000000e+00 0.0000000e+00 0.0000000e+00 
0.0000000e+00 0.0000000e+00 0.0000000e+00 
0.0000000e+00 0.0000000e+00 0.0000000e+00 
0.0000000e+00 0.0000000e+00 0.0000000e+00 
0.0000000e+00 0.0000000e+00 0.0000000e+00 
0.0000000e+00 0.0000000e+00 0.0000000e+00 
0.0000000e+00 0.0000000e+00 0.0000000e+00 
0.0000000e+00 0.0000000e+00 0.0000000e+00 
0.0000000e+00 0.0000000e+00 0.0000000e+00 
0.0000000e+00 0.0000000e+00 0.0000000e+00 
0.0000000e+00 0.0000000e+00 0.0000000e+00 
0.0000000e+00 0.0000000e+00 0.0000000e+00 
0.0000000e+00 0.0000000e+00 0.0000000e+00 
0.0000000e+00 0.0000000e+00 0.0000000e+00 
0.0000000e+00 0.0000000e+00 0.0000000e+00 
0.0000000e+00 0.0000000e+00 0.0000000e+00 
0.0000000e+00 0.0000000e+00 0.0000000e+00 
0.0000000e+00 0.0000000e+00 0.0000000e+00 
0.0000000e+00 0.0000000e+00 0.0000000e+00 
0.0000000e+00 0.0000000e+00 0.0000000e+00 
0.0000000e+00 0.0000000e+00 0.0000000e+00 
0.0000000e+00 0.0000000e+00 0.0000000e+00 
POINT_LOAD 3 30  float
0.0000000e+00 0.0000000e+00 0.0000000e+00 
0.0000000e+00 0.0000000e+00 0.0000000e+00 
-4.8968695e+02 0.0000000e+00 -7.9745273e+03 
8.6106270e+03 0.0000000e+00 -6.5764189e+03 
0.0000000e+00 0.0000000e+00 0.0000000e+00 
-6.8383848e+03 0.0000000e+00 7.5596982e+03 
0.0000000e+00 0.0000000e+00 0.0000000e+00 
0.0000000e+00 0.0000000e+00 0.0000000e+00 
-7.6261406e+03 0.0000000e+00 5.6137085e+03 
-6.6216172e+03 0.0000000e+00 8.4740576e+03 
-7.0221865e+03 0.0000000e+00 2.5930701e+03 
0.0000000e+00 0.0000000e+00 0.0000000e+00 
6.7558833e+03 0.0000000e+00 -1.7268398e+03 
-4.1574199e+03 0.0000000e+00 -4.1981689e+03 
0.0000000e+00 0.0000000e+00 0.0000000e+00 
5.9397314e+03 0.0000000e+00 -7.3330083e+03 
0.0000000e+00 0.0000000e+00 0.0000000e+00 
0.0000000e+00 0.0000000e+00 0.0000000e+00 
-2.6462146e+03 0.0000000e+00 7.8158706e+03 
8.1396719e+03 0.0000000e+00 4.0464435e+02 
-4.4027412e+03 0.0000000e+00 1.2377812e+03 
0.0000000e+00 0.0000000e+00 0.0000000e+00 
-1.5853655e+03 0.0000000e+00 -6.1453154e+03 
-3.2386604e+03 0.0000000e+00 3.1136743e+03 
-2.6601387e+03 0.0000000e+00 -4.4094292e+03 
-4.8193207e+02 0.0000000e+00 -9.9872461e+03 
4.6173628e+03 0.0000000e+00 -7.7904170e+03 
-5.4823638e+03 0.0000000e+00 -8.2806689e+03 
2.3293784e+03 0.0000000e+00 5.7286104e+03 
0.0000000e+00 0.0000000e+00 0.0000000e+00 
POINT_MOMENT 3 30  float
0.0000000e+00 0.0000000e+00 0.0000000e+00 
0.0000000e+00 0.0000000e+00 0.0000000e+00 
0.0000000e+00 0.0000000e+00 0.0000000e+00 
0.0000000e+00 0.0000000e+00 0.0000000e+00 
0.0000000e+00 0.0000000e+00 0.0000000e+00 
0.0000000e+00 0.0000000e+00 0.0000000e+00 
0.0000000e+00 0.0000000e+00 0.0000000e+00 
0.0000000e+00 0.0000000e+00 0.0000000e+00 
0.0000000e+00 0.0000000e+00 0.0000000e+00 
0.0000000e+00 0.0000000e+00 0.0000000e+00 
0.0000000e+00 0.0000000e+00 0.0000000e+00 
0.0000000e+00 0.0000000e+00 0.0000000e+00 
0.0000000e+00 0.0000000e+00 0.0000000e+00 
0.0000000e+00 0.0000000e+00 0.0000000e+00 
0.0000000e+00 0.0000000e+00 0.0000000e+00 
0.0000000e+00 0.0000000e+00 0.0000000e+00 
0.0000000e+00 0.0000000e+00 0.0000000e+00 
0.0000000e+00 0.0000000e+00 0.0000000e+00 
0.0000000e+00 0.0000000e+00 0.0000000e+00 
0.0000000e+00 0.0000000e+00 0.0000000e+00 
0.0000000e+00 0.0000000e+00 0.0000000e+00 
0.0000000e+00 0.0000000e+00 0.0000000e+00 
0.0000000e+00 0.0000000e+00 0.0000000e+00 
0.0000000e+00 0.0000000e+00 0.0000000e+00 
0.0000000e+00 0.0000000e+00 0.0000000e+00 
0.0000000e+00 0.0000000e+00 0.0000000e+00 
0.0000000e+00 0.0000000e+00 0.0000000e+00 
0.0000000e+00 0.0000000e+00 0.0000000e+00 
0.0000000e+00 0.0000000e+00 0.0000000e+00 
0.0000000e+00 0.0000000e+00 0.0000000e+00 
CELL_DATA 30
FIELD FieldData 9
YOUNG_MODULUS 1 30  float
2.1000000e+11
2.1000000e+11
2.1000000e+11
2.1000000e+11
2.1000000e+11
2.1000000e+11
2.1000000e+11
2.1000000e+11
2.1000000e+11
2.1000000e+11
2.1000000e+11
2.1000000e+11
2.1000000e+11
2.1000000e+11
2.1000000e+11
2.1000000e+11
2.1000000e+11
2.1000000e+11
2.1000000e+11
2.1000000e+11
2.1000000e+11
2.1000000e+11
2.1000000e+11
2.1000000e+11
2.1000000e+11
2.1000000e+11
2.1000000e+11
2.1000000e+11
2.1000000e+11
2.1000000e+11
DENSITY 1 30  float
7.8500000e+03
7.8500000e+03
7.8500000e+03
7.8500000e+03
7.8500000e+03
7.8500000e+03
7.8500000e+03
7.8500000e+03
7.8500000e+03
7.8500000e+03
7.8500000e+03
7.8500000e+03
7.8500000e+03
7.8500000e+03
7.8500000e+03
7.8500000e+03
7.8500000e+03
7.8500000e+03
7.8500000e+03
7.8500000e+03
7.8500000e+03
7.8500000e+03
7.8500000e+03
7.8500000e+03
7.8500000e+03
7.8500000e+03
7.8500000e+03
7.8500000e+03
7.8500000e+03
7.8500000e+03
CROSS_AREA 1 30  float
9.9999998e-03
9.9999998e-03
9.9999998e-03
9.9999998e-03
9.9999998e-03
9.9999998e-03
9.9999998e-03
9.9999998e-03
9.9999998e-03
9.9999998e-03
9.9999998e-03
9.9999998e-03
9.9999998e-03
9.9999998e-03
9.9999998e-03
9.9999998e-03
9.9999998e-03
9.9999998e-03
9.9999998e-03
9.9999998e-03
9.9999998e-03
9.9999998e-03
9.9999998e-03
9.9999998e-03
9.9999998e-03
9.9999998e-03
9.9999998e-03
9.9999998e-03
9.9999998e-03
9.9999998e-03
I22 1 30  float
1.5000001e-04
1.5000001e-04
1.5000001e-04
1.5000001e-04
1.5000001e-04
1.5000001e-04
1.5000001e-04
1.5000001e-04
1.5000001e-04
1.5000001e-04
1.5000001e-04
1.5000001e-04
1.5000001e-04
1.5000001e-04
1.5000001e-04
1.5000001e-04
1.5000001e-04
1.5000001e-04
1.5000001e-04
1.5000001e-04
1.5000001e-04
1.5000001e-04
1.5000001e-04
1.5000001e-04
1.5000001e-04
1.5000001e-04
1.5000001e-04
1.5000001e-04
1.5000001e-04
1.5000001e-04
I33 1 30  float
1.5000001e-04
1.5000001e-04
1.5000001e-04
1.5000001e-04
1.5000001e-04
1.5000001e-04
1.5000001e-04
1.5000001e-04
1.5000001e-04
1.5000001e-04
1.5000001e-04
1.5000001e-04
1.5000001e-04
1.5000001e-04
1.5000001e-04
1.5000001e-04
1.5000001e-04
1.5000001e-04
1.5000001e-04
1.5000001e-04
1.5000001e-04
1.5000001e-04
1.5000001e-04
1.5000001e-04
1.5000001e-04
1.5000001e-04
1.5000001e-04
1.5000001e-04
1.5000001e-04
1.5000001e-04
TORSIONAL_INERTIA 1 30  float
3.0000001e-04
3.0000001e-04
3.0000001e-04
3.0000001e-04
3.0000001e-04
3.0000001e-04
3.0000001e-04
3.0000001e-04
3.0000001e-04
3.0000001e-04
3.0000001e-04
3.0000001e-04
3.0000001e-04
3.0000001e-04
3.0000001e-04
3.0000001e-04
3.0000001e-04
3.0000001e-04
3.0000001e-04
3.0000001e-04
3.0000001e-04
3.0000001e-04
3.0000001e-04
3.0000001e-04
3.0000001e-04
3.0000001e-04
3.0000001e-04
3.0000001e-04
3.0000001e-04
3.0000001e-04
POISSON_RATIO 1 30  float
3.0000001e-01
3.0000001e-01
3.0000001e-01
3.0000001e-01
3.0000001e-01
3.0000001e-01
3.0000001e-01
3.0000001e-01
3.0000001e-01
3.0000001e-01
3.0000001e-01
3.0000001e-01
3.0000001e-01
3.0000001e-01
3.0000001e-01
3.0000001e-01
3.0000001e-01
3.0000001e-01
3.0000001e-01
3.0000001e-01
3.0000001e-01
3.0000001e-01
3.0000001e-01
3.0000001e-01
3.0000001e-01
3.0000001e-01
3.0000001e-01
3.0000001e-01
3.0000001e-01
3.0000001e-01
MOMENT 3 30  float
0.0000000e+00 3.9303491e+03 0.0000000e+00 
0.0000000e+00 1.1791048e+04 0.0000000e+00 
0.0000000e+00 1.9455871e+04 0.0000000e+00 
0.0000000e+00 3.0369070e+04 0.0000000e+00 
0.0000000e+00 4.4726520e+04 0.0000000e+00 
0.0000000e+00 -6.6928198e+03 0.0000000e+00 
0.0000000e+00 6.3400752e+03 0.0000000e+00 
0.0000000e+00 1.9372971e+04 0.0000000e+00 
0.0000000e+00 2.9355408e+04 0.0000000e+00 
0.0000000e+00 3.3638746e+04 0.0000000e+00 
0.0000000e+00 2.8137295e+03 0.0000000e+00 
0.0000000e+00 1.1143542e+04 0.0000000e+00 
0.0000000e+00 2.0512738e+04 0.0000000e+00 
0.0000000e+00 2.8218969e+04 0.0000000e+00 
0.0000000e+00 3.8301090e+04 0.0000000e+00 
0.0000000e+00 8.2285107e+03 0.0000000e+00 
0.0000000e+00 1.0167496e+04 0.0000000e+00 
0.0000000e+00 1.1047996e+04 0.0000000e+00 
0.0000000e+00 1.4125878e+04 0.0000000e+00 
0.0000000e+00 1.8698533e+04 0.0000000e+00 
0.0000000e+00 4.8066684e+04 0.0000000e+00 
0.0000000e+00 2.0116344e+04 0.0000000e+00 
0.0000000e+00 -4.8023550e+03 0.0000000e+00 
0.0000000e+00 -2.8425299e+04 0.0000000e+00 
0.0000000e+00 -3.7651570e+04 0.0000000e+00 
0.0000000e+00 2.0090758e+04 0.0000000e+00 
0.0000000e+00 -8.4948737e+02 0.0000000e+00 
0.0000000e+00 -5.7186465e+03 0.0000000e+00 
0.0000000e+00 -8.0357466e+03 0.0000000e+00 
0.0000000e+00 -1.6081457e+04 0.0000000e+00 
FORCE 3 30  float
-2.1723570e+04 0.0000000e+00 9.8258730e+03 
-2.1723570e+04 0.0000000e+00 9.8258730e+03 
-1.3749044e+04 0.0000000e+00 9.3361855e+03 
-7.1726255e+03 0.0000000e+00 1.7946812e+04 
-7.1726255e+03 0.0000000e+00 1.7946812e+04 
2.3155049e+03 0.0000000e+00 1.6291118e+04 
2.3155049e+03 0.0000000e+00 1.6291118e+04 
2.3155049e+03 0.0000000e+00 1.6291118e+04 
-3.2982036e+03 0.0000000e+00 8.6649785e+03 
-1.1772261e+04 0.0000000e+00 2.0433607e+03 
-1.5735385e+02 0.0000000e+00 7.0343237e+03 
1.5694861e+03 0.0000000e+00 1.3790207e+04 
5.7676553e+03 0.0000000e+00 9.6327871e+03 
5.7676553e+03 0.0000000e+00 9.6327871e+03 
1.3100663e+04 0.0000000e+00 1.5572519e+04 
1.3481151e+04 0.0000000e+00 2.4237319e+03 
1.3481151e+04 0.0000000e+00 2.4237319e+03 
5.6652808e+03 0.0000000e+00 -2.2248265e+02 
5.2606367e+03 0.0000000e+00 7.9171895e+03 
4.0228552e+03 0.0000000e+00 3.5144482e+03 
5.1826899e+03 0.0000000e+00 -1.7047828e+04 
6.7680557e+03 0.0000000e+00 -1.0902513e+04 
1.0006716e+04 0.0000000e+00 -1.4016187e+04 
1.2666854e+04 0.0000000e+00 -9.6067578e+03 
1.3148786e+04 0.0000000e+00 3.8048819e+02 
4.9788257e+03 0.0000000e+00 -1.4365331e+04 
3.6146301e+02 0.0000000e+00 -6.5749141e+03 
5.8438267e+03 0.0000000e+00 1.7057551e+03 
3.5144482e+03 0.0000000e+00 -4.0228552e+03 
3.5144482e+03 0.0000000e+00 -4.0228552e+03 
