# vtk DataFile Version 4.0
vtk output
ASCII
DATASET UNSTRUCTURED_GRID
POINTS 86 float
0.0000000e+00 0.0000000e+00 0.0000000e+00 
0.0000000e+00 0.0000000e+00 6.0000002e-01 
0.0000000e+00 0.0000000e+00 1.2000000e+00 
0.0000000e+00 0.0000000e+00 1.8000000e+00 
0.0000000e+00 0.0000000e+00 2.4000001e+00 
0.0000000e+00 0.0000000e+00 3.0000000e+00 
0.0000000e+00 0.0000000e+00 3.5999999e+00 
0.0000000e+00 0.0000000e+00 4.1999998e+00 
0.0000000e+00 0.0000000e+00 4.8000002e+00 
0.0000000e+00 0.0000000e+00 5.4000001e+00 
0.0000000e+00 0.0000000e+00 6.0000000e+00 
0.0000000e+00 0.0000000e+00 6.5999999e+00 
0.0000000e+00 0.0000000e+00 7.1999998e+00 
0.0000000e+00 0.0000000e+00 7.8000002e+00 
0.0000000e+00 0.0000000e+00 8.3999996e+00 
0.0000000e+00 0.0000000e+00 9.0000000e+00 
0.0000000e+00 0.0000000e+00 9.6000004e+00 
0.0000000e+00 0.0000000e+00 1.0200000e+01 
0.0000000e+00 0.0000000e+00 1.0800000e+01 
0.0000000e+00 0.0000000e+00 1.1400000e+01 
0.0000000e+00 0.0000000e+00 1.2000000e+01 
0.0000000e+00 0.0000000e+00 1.2600000e+01 
0.0000000e+00 0.0000000e+00 1.3200000e+01 
0.0000000e+00 0.0000000e+00 1.3800000e+01 
0.0000000e+00 0.0000000e+00 1.4400000e+01 
0.0000000e+00 0.0000000e+00 1.5000000e+01 
0.0000000e+00 0.0000000e+00 1.5600000e+01 
0.0000000e+00 0.0000000e+00 1.6200001e+01 
0.0000000e+00 0.0000000e+00 1.6799999e+01 
0.0000000e+00 0.0000000e+00 1.7400000e+01 
0.0000000e+00 0.0000000e+00 1.8000000e+01 
6.0000000e+00 0.0000000e+00 0.0000000e+00 
6.0000000e+00 0.0000000e+00 6.0000002e-01 
6.0000000e+00 0.0000000e+00 1.2000000e+00 
6.0000000e+00 0.0000000e+00 1.8000000e+00 
6.0000000e+00 0.0000000e+00 2.4000001e+00 
6.0000000e+00 0.0000000e+00 3.0000000e+00 
6.0000000e+00 0.0000000e+00 3.5999999e+00 
6.0000000e+00 0.0000000e+00 4.1999998e+00 
6.0000000e+00 0.0000000e+00 4.8000002e+00 
6.0000000e+00 0.0000000e+00 5.4000001e+00 
6.0000000e+00 0.0000000e+00 6.0000000e+00 
6.0000000e+00 0.0000000e+00 6.5999999e+00 
6.0000000e+00 0.0000000e+00 7.1999998e+00 
6.0000000e+00 0.0000000e+00 7.8000002e+00 
6.0000000e+00 0.0000000e+00 8.3999996e+00 
6.0000000e+00 0.0000000e+00 9.0000000e+00 
6.0000000e+00 0.0000000e+00 9.6000004e+00 
6.0000000e+00 0.0000000e+00 1.0200000e+01 
6.0000000e+00 0.0000000e+00 1.0800000e+01 
6.0000000e+00 0.0000000e+00 1.1400000e+01 
6.0000000e+00 0.0000000e+00 1.2000000e+01 
6.0000000e+00 0.0000000e+00 1.2600000e+01 
6.0000000e+00 0.0000000e+00 1.3200000e+01 
6.0000000e+00 0.0000000e+00 1.3800000e+01 
6.0000000e+00 0.0000000e+00 1.4400000e+01 
6.0000000e+00 0.0000000e+00 1.5000000e+01 
6.0000000e+00 0.0000000e+00 1.5600000e+01 
6.0000000e+00 0.0000000e+00 1.6200001e+01 
6.0000000e+00 0.0000000e+00 1.6799999e+01 
6.0000000e+00 0.0000000e+00 1.7400000e+01 
6.0000000e+00 0.0000000e+00 1.8000000e+01 
1.2000000e+00 0.0000000e+00 3.0000000e+00 
2.4000001e+00 0.0000000e+00 3.0000000e+00 
3.5999999e+00 0.0000000e+00 3.0000000e+00 
4.8000002e+00 0.0000000e+00 3.0000000e+00 
1.2000000e+00 0.0000000e+00 6.0000000e+00 
2.4000001e+00 0.0000000e+00 6.0000000e+00 
3.5999999e+00 0.0000000e+00 6.0000000e+00 
4.8000002e+00 0.0000000e+00 6.0000000e+00 
1.2000000e+00 0.0000000e+00 9.0000000e+00 
2.4000001e+00 0.0000000e+00 9.0000000e+00 
3.5999999e+00 0.0000000e+00 9.0000000e+00 
4.8000002e+00 0.0000000e+00 9.0000000e+00 
1.2000000e+00 0.0000000e+00 1.2000000e+01 
2.4000001e+00 0.0000000e+00 1.2000000e+01 
3.5999999e+00 0.0000000e+00 1.2000000e+01 
4.8000002e+00 0.0000000e+00 1.2000000e+01 
1.2000000e+00 0.0000000e+00 1.5000000e+01 
2.4000001e+00 0.0000000e+00 1.5000000e+01 
3.5999999e+00 0.0000000e+00 1.5000000e+01 
4.8000002e+00 0.0000000e+00 1.5000000e+01 
1.2000000e+00 0.0000000e+00 1.8000000e+01 
2.4000001e+00 0.0000000e+00 1.8000000e+01 
3.5999999e+00 0.0000000e+00 1.8000000e+01 
4.8000002e+00 0.0000000e+00 1.8000000e+01 

CELLS 90 270
2 0 1
2 1 2
2 2 3
2 3 4
2 4 5
2 5 6
2 6 7
2 7 8
2 8 9
2 9 10
2 10 11
2 11 12
2 12 13
2 13 14
2 14 15
2 15 16
2 16 17
2 17 18
2 18 19
2 19 20
2 20 21
2 21 22
2 22 23
2 23 24
2 24 25
2 25 26
2 26 27
2 27 28
2 28 29
2 29 30
2 31 32
2 32 33
2 33 34
2 34 35
2 35 36
2 36 37
2 37 38
2 38 39
2 39 40
2 40 41
2 41 42
2 42 43
2 43 44
2 44 45
2 45 46
2 46 47
2 47 48
2 48 49
2 49 50
2 50 51
2 51 52
2 52 53
2 53 54
2 54 55
2 55 56
2 56 57
2 57 58
2 58 59
2 59 60
2 60 61
2 5 62
2 62 63
2 63 64
2 64 65
2 65 36
2 10 66
2 66 67
2 67 68
2 68 69
2 69 41
2 15 70
2 70 71
2 71 72
2 72 73
2 73 46
2 20 74
2 74 75
2 75 76
2 76 77
2 77 51
2 25 78
2 78 79
2 79 80
2 80 81
2 81 56
2 30 82
2 82 83
2 83 84
2 84 85
2 85 61

CELL_TYPES 90
3
3
3
3
3
3
3
3
3
3
3
3
3
3
3
3
3
3
3
3
3
3
3
3
3
3
3
3
3
3
3
3
3
3
3
3
3
3
3
3
3
3
3
3
3
3
3
3
3
3
3
3
3
3
3
3
3
3
3
3
3
3
3
3
3
3
3
3
3
3
3
3
3
3
3
3
3
3
3
3
3
3
3
3
3
3
3
3
3
3
POINT_DATA 86
FIELD FieldData 7
DISPLACEMENT 3 86  float
0.0000000e+00 0.0000000e+00 0.0000000e+00 
-5.3640301e-03 0.0000000e+00 -3.2247590e-07 
-1.0487860e-02 0.0000000e+00 -6.4495180e-07 
-1.5131290e-02 0.0000000e+00 -9.6742770e-07 
-1.9054120e-02 0.0000000e+00 -1.2899036e-06 
-2.2016149e-02 0.0000000e+00 -1.6123795e-06 
-2.4402950e-02 0.0000000e+00 -1.8866350e-06 
-2.6714256e-02 0.0000000e+00 -2.1608905e-06 
-2.8881105e-02 0.0000000e+00 -2.4351461e-06 
-3.0834537e-02 0.0000000e+00 -2.7094018e-06 
-3.2505598e-02 0.0000000e+00 -2.9836572e-06 
-3.4327421e-02 0.0000000e+00 -3.1875670e-06 
-3.6571767e-02 0.0000000e+00 -3.3914769e-06 
-3.8927581e-02 0.0000000e+00 -3.5953867e-06 
-4.1083820e-02 0.0000000e+00 -3.7992966e-06 
-4.2729434e-02 0.0000000e+00 -4.0032064e-06 
-4.4180170e-02 0.0000000e+00 -4.0972800e-06 
-4.5864407e-02 0.0000000e+00 -4.1913536e-06 
-4.7640029e-02 0.0000000e+00 -4.2854272e-06 
-4.9364932e-02 0.0000000e+00 -4.3795008e-06 
-5.0897002e-02 0.0000000e+00 -4.4735743e-06 
-5.2468389e-02 0.0000000e+00 -4.5370048e-06 
-5.4310147e-02 0.0000000e+00 -4.6004352e-06 
-5.6278516e-02 0.0000000e+00 -4.6638656e-06 
-5.8229733e-02 0.0000000e+00 -4.7272965e-06 
-6.0020048e-02 0.0000000e+00 -4.7907270e-06 
-6.1830588e-02 0.0000000e+00 -4.8269162e-06 
-6.3790590e-02 0.0000000e+00 -4.8631055e-06 
-6.5678455e-02 0.0000000e+00 -4.8992947e-06 
-6.7272589e-02 0.0000000e+00 -4.9354840e-06 
-6.8351395e-02 0.0000000e+00 -4.9716732e-06 
0.0000000e+00 0.0000000e+00 0.0000000e+00 
-5.5166134e-03 0.0000000e+00 4.2525451e-07 
-1.0754885e-02 0.0000000e+00 8.5050902e-07 
-1.5436472e-02 0.0000000e+00 1.2757636e-06 
-1.9283034e-02 0.0000000e+00 1.7010180e-06 
-2.2016225e-02 0.0000000e+00 2.1262726e-06 
-2.4174344e-02 0.0000000e+00 2.4334117e-06 
-2.6409671e-02 0.0000000e+00 2.7405511e-06 
-2.8614853e-02 0.0000000e+00 3.0476904e-06 
-3.0682534e-02 0.0000000e+00 3.3548295e-06 
-3.2505360e-02 0.0000000e+00 3.6619688e-06 
-3.4386784e-02 0.0000000e+00 3.9074685e-06 
-3.6561072e-02 0.0000000e+00 4.1529679e-06 
-3.8817082e-02 0.0000000e+00 4.3984674e-06 
-4.0943660e-02 0.0000000e+00 4.6439673e-06 
-4.2729665e-02 0.0000000e+00 4.8894667e-06 
-4.4344332e-02 0.0000000e+00 5.1068000e-06 
-4.6045978e-02 0.0000000e+00 5.3241333e-06 
-4.7757085e-02 0.0000000e+00 5.5414671e-06 
-4.9400140e-02 0.0000000e+00 5.7588004e-06 
-5.0897621e-02 0.0000000e+00 5.9761337e-06 
-5.2552331e-02 0.0000000e+00 6.1329629e-06 
-5.4548010e-02 0.0000000e+00 6.2897921e-06 
-5.6628577e-02 0.0000000e+00 6.4466217e-06 
-5.8537938e-02 0.0000000e+00 6.6034509e-06 
-6.0020003e-02 0.0000000e+00 6.7602800e-06 
-6.1430153e-02 0.0000000e+00 6.7823603e-06 
-6.3164040e-02 0.0000000e+00 6.8044405e-06 
-6.5025993e-02 0.0000000e+00 6.8265208e-06 
-6.6820331e-02 0.0000000e+00 6.8486011e-06 
-6.8351381e-02 0.0000000e+00 6.8706813e-06 
-2.2016244e-02 0.0000000e+00 2.6440436e-03 
-2.2016307e-02 0.0000000e+00 1.9949474e-03 
-2.2016371e-02 0.0000000e+00 -8.8373978e-05 
-2.2016320e-02 0.0000000e+00 -1.5797312e-03 
-3.2505464e-02 0.0000000e+00 1.1886130e-03 
-3.2505360e-02 0.0000000e+00 1.1545552e-04 
-3.2505371e-02 0.0000000e+00 -1.3309716e-03 
-3.2505348e-02 0.0000000e+00 -1.7986579e-03 
-4.2729527e-02 0.0000000e+00 7.0188066e-04 
-4.2729687e-02 0.0000000e+00 -4.4330177e-04 
-4.2729739e-02 0.0000000e+00 -1.5911111e-03 
-4.2729739e-02 0.0000000e+00 -1.7885456e-03 
-5.0897054e-02 0.0000000e+00 1.3529944e-03 
-5.0897155e-02 0.0000000e+00 4.5471522e-04 
-5.0897304e-02 0.0000000e+00 -9.7068469e-04 
-5.0897494e-02 0.0000000e+00 -1.4162504e-03 
-6.0020007e-02 0.0000000e+00 2.0984143e-03 
-6.0019940e-02 0.0000000e+00 2.2099051e-03 
-6.0019985e-02 0.0000000e+00 9.2096644e-04 
-6.0020000e-02 0.0000000e+00 -4.7754365e-04 
-6.8351448e-02 0.0000000e+00 3.1251405e-04 
-6.8351492e-02 0.0000000e+00 -6.9388922e-04 
-6.8351500e-02 0.0000000e+00 -1.8569289e-03 
-6.8351440e-02 0.0000000e+00 -1.7683938e-03 
ROTATION 3 86  float
0.0000000e+00 -9.0067731e-03 0.0000000e+00 
0.0000000e+00 -8.8066058e-03 0.0000000e+00 
0.0000000e+00 -8.2061058e-03 0.0000000e+00 
0.0000000e+00 -7.2052721e-03 0.0000000e+00 
0.0000000e+00 -5.8041052e-03 0.0000000e+00 
0.0000000e+00 -4.0026046e-03 0.0000000e+00 
0.0000000e+00 -3.9342432e-03 0.0000000e+00 
0.0000000e+00 -3.7509499e-03 0.0000000e+00 
0.0000000e+00 -3.4527238e-03 0.0000000e+00 
0.0000000e+00 -3.0395654e-03 0.0000000e+00 
0.0000000e+00 -2.5114745e-03 0.0000000e+00 
0.0000000e+00 -3.4748784e-03 0.0000000e+00 
0.0000000e+00 -3.9198692e-03 0.0000000e+00 
0.0000000e+00 -3.8464465e-03 0.0000000e+00 
0.0000000e+00 -3.2546110e-03 0.0000000e+00 
0.0000000e+00 -2.1443623e-03 0.0000000e+00 
0.0000000e+00 -2.6519522e-03 0.0000000e+00 
0.0000000e+00 -2.9226919e-03 0.0000000e+00 
0.0000000e+00 -2.9565808e-03 0.0000000e+00 
0.0000000e+00 -2.7536191e-03 0.0000000e+00 
0.0000000e+00 -2.3138069e-03 0.0000000e+00 
0.0000000e+00 -2.8842194e-03 0.0000000e+00 
0.0000000e+00 -3.2150354e-03 0.0000000e+00 
0.0000000e+00 -3.3062552e-03 0.0000000e+00 
0.0000000e+00 -3.1578788e-03 0.0000000e+00 
0.0000000e+00 -2.7699058e-03 0.0000000e+00 
0.0000000e+00 -3.2036707e-03 0.0000000e+00 
0.0000000e+00 -3.2681087e-03 0.0000000e+00 
0.0000000e+00 -2.9632198e-03 0.0000000e+00 
0.0000000e+00 -2.2890037e-03 0.0000000e+00 
0.0000000e+00 -1.2454606e-03 0.0000000e+00 
0.0000000e+00 -9.2716729e-03 0.0000000e+00 
0.0000000e+00 -9.0397215e-03 0.0000000e+00 
0.0000000e+00 -8.3438661e-03 0.0000000e+00 
0.0000000e+00 -7.1841073e-03 0.0000000e+00 
0.0000000e+00 -5.5604451e-03 0.0000000e+00 
0.0000000e+00 -3.4728795e-03 0.0000000e+00 
0.0000000e+00 -3.6910253e-03 0.0000000e+00 
0.0000000e+00 -3.7302454e-03 0.0000000e+00 
0.0000000e+00 -3.5905398e-03 0.0000000e+00 
0.0000000e+00 -3.2719087e-03 0.0000000e+00 
0.0000000e+00 -2.7743520e-03 0.0000000e+00 
0.0000000e+00 -3.4384141e-03 0.0000000e+00 
0.0000000e+00 -3.7505662e-03 0.0000000e+00 
0.0000000e+00 -3.7108080e-03 0.0000000e+00 
0.0000000e+00 -3.3191394e-03 0.0000000e+00 
0.0000000e+00 -2.5755607e-03 0.0000000e+00 
0.0000000e+00 -2.7851253e-03 0.0000000e+00 
0.0000000e+00 -2.8654945e-03 0.0000000e+00 
0.0000000e+00 -2.8166682e-03 0.0000000e+00 
0.0000000e+00 -2.6386462e-03 0.0000000e+00 
0.0000000e+00 -2.3314289e-03 0.0000000e+00 
0.0000000e+00 -3.1131273e-03 0.0000000e+00 
0.0000000e+00 -3.4680094e-03 0.0000000e+00 
0.0000000e+00 -3.3960750e-03 0.0000000e+00 
0.0000000e+00 -2.8973240e-03 0.0000000e+00 
0.0000000e+00 -1.9717568e-03 0.0000000e+00 
0.0000000e+00 -2.6743880e-03 0.0000000e+00 
0.0000000e+00 -3.0508901e-03 0.0000000e+00 
0.0000000e+00 -3.1012632e-03 0.0000000e+00 
0.0000000e+00 -2.8255070e-03 0.0000000e+00 
0.0000000e+00 -2.2236216e-03 0.0000000e+00 
0.0000000e+00 -5.9970352e-04 0.0000000e+00 
0.0000000e+00 1.4100188e-03 0.0000000e+00 
0.0000000e+00 1.7906722e-03 0.0000000e+00 
0.0000000e+00 3.6398915e-04 0.0000000e+00 
0.0000000e+00 2.3578962e-04 0.0000000e+00 
0.0000000e+00 1.2722181e-03 0.0000000e+00 
0.0000000e+00 9.7429962e-04 0.0000000e+00 
0.0000000e+00 -3.8413287e-04 0.0000000e+00 
0.0000000e+00 5.2854442e-04 0.0000000e+00 
0.0000000e+00 1.1284312e-03 0.0000000e+00 
0.0000000e+00 6.9021032e-04 0.0000000e+00 
0.0000000e+00 -5.2616274e-04 0.0000000e+00 
0.0000000e+00 -1.4503950e-05 0.0000000e+00 
0.0000000e+00 1.2238509e-03 0.0000000e+00 
0.0000000e+00 9.2829834e-04 0.0000000e+00 
0.0000000e+00 -2.5963041e-04 0.0000000e+00 
0.0000000e+00 -8.4440078e-04 0.0000000e+00 
0.0000000e+00 6.1076955e-04 0.0000000e+00 
0.0000000e+00 1.3449424e-03 0.0000000e+00 
0.0000000e+00 7.2808244e-04 0.0000000e+00 
0.0000000e+00 4.6900031e-04 0.0000000e+00 
0.0000000e+00 1.0917532e-03 0.0000000e+00 
0.0000000e+00 5.8759394e-04 0.0000000e+00 
0.0000000e+00 -7.5586780e-04 0.0000000e+00 
REACTION 3 86  float
1.1120374e+02 -0.0000000e+00 5.3745984e+02 
-0.0000000e+00 -0.0000000e+00 -0.0000000e+00 
-5.4569682e-12 -0.0000000e+00 -1.1368684e-13 
-2.7284841e-11 -0.0000000e+00 -2.2737368e-13 
2.1645974e-10 -0.0000000e+00 -0.0000000e+00 
6.0572347e-10 -0.0000000e+00 4.4227022e-10 
-1.1981683e-08 -0.0000000e+00 4.1882231e-10 
3.1832315e-11 -0.0000000e+00 -1.1368684e-11 
5.0158633e-09 -0.0000000e+00 1.3642421e-12 
7.2759576e-12 -0.0000000e+00 9.0949470e-13 
8.6544105e-11 -0.0000000e+00 -1.2363444e-11 
-3.0013325e-11 -0.0000000e+00 -2.0918378e-11 
2.7284841e-11 -0.0000000e+00 1.8189894e-12 
-1.3642421e-11 -0.0000000e+00 -0.0000000e+00 
3.6379788e-12 -0.0000000e+00 1.8189894e-12 
4.8821676e-09 -0.0000000e+00 2.4641622e-11 
7.2759576e-12 -0.0000000e+00 -3.6379788e-11 
-7.0031092e-11 -0.0000000e+00 -0.0000000e+00 
4.0927262e-11 -0.0000000e+00 -2.7284841e-12 
1.5828846e-08 -0.0000000e+00 9.0949470e-13 
-3.9268286e-09 -0.0000000e+00 -8.1147533e-10 
-1.4575562e-08 -0.0000000e+00 7.8489393e-10 
-6.0936145e-11 -0.0000000e+00 1.8189894e-12 
1.8280844e-10 -0.0000000e+00 -0.0000000e+00 
1.8189894e-11 -0.0000000e+00 -9.0949470e-13 
2.4747351e-09 -0.0000000e+00 -1.2732926e-11 
5.4569682e-11 -0.0000000e+00 4.4565240e-11 
2.5829650e-10 -0.0000000e+00 -2.7284841e-12 
4.4110493e-11 -0.0000000e+00 9.0949470e-13 
-5.2295945e-11 -0.0000000e+00 1.8189894e-12 
1.9108128e-09 -0.0000000e+00 3.9790393e-13 
1.2886208e+02 -0.0000000e+00 -7.0875751e+02 
3.6379788e-12 -0.0000000e+00 -2.2737368e-13 
-0.0000000e+00 -0.0000000e+00 3.4106051e-13 
-4.7293724e-11 -0.0000000e+00 2.2737368e-13 
-1.0913936e-11 -0.0000000e+00 4.5474735e-13 
-2.4301698e-09 -0.0000000e+00 -2.2737368e-13 
-4.3655746e-11 -0.0000000e+00 4.5474735e-13 
2.6375346e-11 -0.0000000e+00 1.3642421e-12 
4.6384230e-11 -0.0000000e+00 -9.0949470e-13 
-9.0949470e-13 -0.0000000e+00 -2.7284841e-12 
-2.7509373e-10 -0.0000000e+00 -3.9790393e-13 
-1.0368240e-10 -0.0000000e+00 -0.0000000e+00 
4.4565240e-11 -0.0000000e+00 -1.8189894e-12 
-3.3651304e-11 -0.0000000e+00 -0.0000000e+00 
2.2737368e-11 -0.0000000e+00 -0.0000000e+00 
-4.5210982e-09 -0.0000000e+00 4.5474735e-13 
1.0913936e-11 -0.0000000e+00 5.4569682e-12 
1.7280399e-11 -0.0000000e+00 -0.0000000e+00 
1.0913936e-11 -0.0000000e+00 -0.0000000e+00 
1.5657861e-08 -0.0000000e+00 7.2759576e-12 
2.1890543e-09 -0.0000000e+00 -4.4337867e-12 
4.9112714e-11 -0.0000000e+00 -7.2759576e-12 
-2.2737368e-11 -0.0000000e+00 1.8189894e-12 
-1.8189894e-12 -0.0000000e+00 -0.0000000e+00 
3.6093297e-09 -0.0000000e+00 -1.8189894e-12 
5.6796381e-09 -0.0000000e+00 -3.6664005e-12 
5.3660187e-11 -0.0000000e+00 -3.6379788e-12 
-2.5465852e-11 -0.0000000e+00 1.8189894e-12 
1.1823431e-11 -0.0000000e+00 -3.6379788e-12 
-3.2741809e-11 -0.0000000e+00 1.8189894e-12 
6.2025620e-09 -0.0000000e+00 -1.7053026e-12 
1.9323920e-10 -0.0000000e+00 -1.1135626e-10 
-3.7252903e-09 -0.0000000e+00 1.9406343e-10 
-5.9644378e-10 -0.0000000e+00 -2.6355451e-10 
8.6933909e-09 -0.0000000e+00 -2.2737368e-13 
-5.8699214e-09 -0.0000000e+00 2.8720137e-11 
-2.7349500e-09 -0.0000000e+00 -1.5631940e-12 
6.7888806e-09 -0.0000000e+00 -2.2453150e-12 
-1.9750281e-09 -0.0000000e+00 5.2580162e-13 
-5.3415192e-09 -0.0000000e+00 2.7924330e-11 
4.5605049e-09 -0.0000000e+00 -7.7449158e-12 
-7.8044309e-09 -0.0000000e+00 3.3253400e-12 
1.5299292e-08 -0.0000000e+00 -1.2164492e-11 
1.6543140e-09 -0.0000000e+00 1.3515091e-09 
-9.6103463e-09 -0.0000000e+00 -1.0884378e-09 
-3.3799665e-09 -0.0000000e+00 5.2243365e-10 
8.5678806e-09 -0.0000000e+00 -2.0514790e-10 
-9.5578940e-09 -0.0000000e+00 -1.9952040e-11 
4.8328843e-09 -0.0000000e+00 -4.4906301e-12 
4.4149893e-09 -0.0000000e+00 -1.8189894e-12 
1.8259136e-09 -0.0000000e+00 3.1263880e-12 
-1.6911912e-08 -0.0000000e+00 5.6843419e-14 
-1.5765075e-08 -0.0000000e+00 -5.8264504e-13 
7.5243562e-09 -0.0000000e+00 5.4001248e-13 
-1.4901161e-08 -0.0000000e+00 -6.2527761e-13 
REACTION_MOMENT 3 86  float
-0.0000000e+00 2.2737368e-12 -0.0000000e+00 
-0.0000000e+00 -1.6370905e-11 -0.0000000e+00 
-0.0000000e+00 3.1377567e-11 -0.0000000e+00 
-0.0000000e+00 -1.5234036e-11 -0.0000000e+00 
-0.0000000e+00 -8.4924068e-10 -0.0000000e+00 
-0.0000000e+00 7.3828232e-10 -0.0000000e+00 
-0.0000000e+00 4.4960871e-09 -0.0000000e+00 
-0.0000000e+00 -8.4560270e-10 -0.0000000e+00 
-0.0000000e+00 -1.0470558e-10 -0.0000000e+00 
-0.0000000e+00 -2.6716407e-11 -0.0000000e+00 
-0.0000000e+00 -3.4106051e-12 -0.0000000e+00 
-0.0000000e+00 -3.8198777e-11 -0.0000000e+00 
-0.0000000e+00 -2.5011104e-12 -0.0000000e+00 
-0.0000000e+00 -1.1368684e-11 -0.0000000e+00 
-0.0000000e+00 -1.4665602e-11 -0.0000000e+00 
-0.0000000e+00 -3.3026026e-11 -0.0000000e+00 
-0.0000000e+00 1.6405011e-10 -0.0000000e+00 
-0.0000000e+00 -1.2505552e-12 -0.0000000e+00 
-0.0000000e+00 -9.3791641e-11 -0.0000000e+00 
-0.0000000e+00 5.0658855e-10 -0.0000000e+00 
-0.0000000e+00 3.9363783e-09 -0.0000000e+00 
-0.0000000e+00 1.3437784e-09 -0.0000000e+00 
-0.0000000e+00 -5.1613824e-11 -0.0000000e+00 
-0.0000000e+00 1.2732926e-11 -0.0000000e+00 
-0.0000000e+00 6.3778316e-11 -0.0000000e+00 
-0.0000000e+00 4.1612225e-10 -0.0000000e+00 
-0.0000000e+00 -4.5474735e-11 -0.0000000e+00 
-0.0000000e+00 -4.0927262e-12 -0.0000000e+00 
-0.0000000e+00 6.3778316e-11 -0.0000000e+00 
-0.0000000e+00 -1.1937118e-12 -0.0000000e+00 
-0.0000000e+00 6.7643668e-12 -0.0000000e+00 
-0.0000000e+00 4.5474735e-13 -0.0000000e+00 
-0.0000000e+00 -4.5474735e-13 -0.0000000e+00 
-0.0000000e+00 1.5916157e-11 -0.0000000e+00 
-0.0000000e+00 -3.5242920e-11 -0.0000000e+00 
-0.0000000e+00 5.6843419e-11 -0.0000000e+00 
-0.0000000e+00 1.6029844e-11 -0.0000000e+00 
-0.0000000e+00 -1.0231815e-10 -0.0000000e+00 
-0.0000000e+00 3.5925041e-11 -0.0000000e+00 
-0.0000000e+00 -2.7284841e-12 -0.0000000e+00 
-0.0000000e+00 -9.3223207e-12 -0.0000000e+00 
-0.0000000e+00 2.0463631e-12 -0.0000000e+00 
-0.0000000e+00 -1.2505552e-11 -0.0000000e+00 
-0.0000000e+00 -1.5916157e-11 -0.0000000e+00 
-0.0000000e+00 -3.9335646e-11 -0.0000000e+00 
-0.0000000e+00 5.0476956e-11 -0.0000000e+00 
-0.0000000e+00 -2.8535396e-11 -0.0000000e+00 
-0.0000000e+00 -6.0936145e-11 -0.0000000e+00 
-0.0000000e+00 1.0913936e-11 -0.0000000e+00 
-0.0000000e+00 -2.0691004e-11 -0.0000000e+00 
-0.0000000e+00 7.9580786e-13 -0.0000000e+00 
-0.0000000e+00 -2.2014319e-09 -0.0000000e+00 
-0.0000000e+00 -6.7757355e-11 -0.0000000e+00 
-0.0000000e+00 6.0481398e-11 -0.0000000e+00 
-0.0000000e+00 -2.7966962e-11 -0.0000000e+00 
-0.0000000e+00 -4.0708983e-09 -0.0000000e+00 
-0.0000000e+00 3.2811727e-09 -0.0000000e+00 
-0.0000000e+00 7.2532202e-11 -0.0000000e+00 
-0.0000000e+00 -1.3642421e-12 -0.0000000e+00 
-0.0000000e+00 2.2964741e-11 -0.0000000e+00 
-0.0000000e+00 -1.8985702e-11 -0.0000000e+00 
-0.0000000e+00 1.2050805e-11 -0.0000000e+00 
-0.0000000e+00 -4.0677151e-10 -0.0000000e+00 
-0.0000000e+00 -3.4714276e-10 -0.0000000e+00 
-0.0000000e+00 -4.9176663e-11 -0.0000000e+00 
-0.0000000e+00 2.8421709e-13 -0.0000000e+00 
-0.0000000e+00 -3.6095571e-12 -0.0000000e+00 
-0.0000000e+00 1.4779289e-12 -0.0000000e+00 
-0.0000000e+00 -1.1084467e-12 -0.0000000e+00 
-0.0000000e+00 2.1600499e-12 -0.0000000e+00 
-0.0000000e+00 -4.2348347e-12 -0.0000000e+00 
-0.0000000e+00 4.0927262e-12 -0.0000000e+00 
-0.0000000e+00 -1.9895197e-12 -0.0000000e+00 
-0.0000000e+00 2.3305802e-12 -0.0000000e+00 
-0.0000000e+00 -3.6160941e-10 -0.0000000e+00 
-0.0000000e+00 -3.1511149e-10 -0.0000000e+00 
-0.0000000e+00 -8.4469320e-11 -0.0000000e+00 
-0.0000000e+00 -5.6616045e-11 -0.0000000e+00 
-0.0000000e+00 -2.4982683e-11 -0.0000000e+00 
-0.0000000e+00 -1.2761348e-11 -0.0000000e+00 
-0.0000000e+00 -6.9206862e-12 -0.0000000e+00 
-0.0000000e+00 -7.0201622e-12 -0.0000000e+00 
-0.0000000e+00 -0.0000000e+00 -0.0000000e+00 
-0.0000000e+00 -1.8474111e-13 -0.0000000e+00 
-0.0000000e+00 -4.2632564e-14 -0.0000000e+00 
-0.0000000e+00 -1.4210855e-13 -0.0000000e+00 
VOLUME_ACCELERATION 3 86  float
0.0000000e+00 0.0000000e+00 0.0000000e+00 
0.0000000e+00 0.0000000e+00 0.0000000e+00 
0.0000000e+00 0.0000000e+00 0.0000000e+00 
0.0000000e+00 0.0000000e+00 0.0000000e+00 
0.0000000e+00 0.0000000e+00 0.0000000e+00 
0.0000000e+00 0.0000000e+00 0.0000000e+00 
0.0000000e+00 0.0000000e+00 0.0000000e+00 
0.0000000e+00 0.0000000e+00 0.0000000e+00 
0.0000000e+00 0.0000000e+00 0.0000000e+00 
0.0000000e+00 0.0000000e+00 0.0000000e+00 
0.0000000e+00 0.0000000e+00 0.0000000e+00 
0.0000000e+00 0.0000000e+00 0.0000000e+00 
0.0000000e+00 0.0000000e+00 0.0000000e+00 
0.0000000e+00 0.0000000e+00 0.0000000e+00 
0.0000000e+00 0.0000000e+00 0.0000000e+00 
0.0000000e+00 0.0000000e+00 0.0000000e+00 
0.0000000e+00 0.0000000e+00 0.0000000e+00 
0.0000000e+00 0.0000000e+00 0.0000000e+00 
0.0000000e+00 0.0000000e+00 0.0000000e+00 
0.0000000e+00 0.0000000e+00 0.0000000e+00 
0.0000000e+00 0.0000000e+00 0.0000000e+00 
0.0000000e+00 0.0000000e+00 0.0000000e+00 
0.0000000e+00 0.0000000e+00 0.0000000e+00 
0.0000000e+00 0.0000000e+00 0.0000000e+00 
0.0000000e+00 0.0000000e+00 0.0000000e+00 
0.0000000e+00 0.0000000e+00 0.0000000e+00 
0.0000000e+00 0.0000000e+00 0.0000000e+00 
0.0000000e+00 0.0000000e+00 0.0000000e+00 
0.0000000e+00 0.0000000e+00 0.0000000e+00 
0.0000000e+00 0.0000000e+00 0.0000000e+00 
0.0000000e+00 0.0000000e+00 0.0000000e+00 
0.0000000e+00 0.0000000e+00 0.0000000e+00 
0.0000000e+00 0.0000000e+00 0.0000000e+00 
0.0000000e+00 0.0000000e+00 0.0000000e+00 
0.0000000e+00 0.0000000e+00 0.0000000e+00 
0.0000000e+00 0.0000000e+00 0.0000000e+00 
0.0000000e+00 0.0000000e+00 0.0000000e+00 
0.0000000e+00 0.0000000e+00 0.0000000e+00 
0.0000000e+00 0.0000000e+00 0.0000000e+00 
0.0000000e+00 0.0000000e+00 0.0000000e+00 
0.0000000e+00 0.0000000e+00 0.0000000e+00 
0.0000000e+00 0.0000000e+00 0.0000000e+00 
0.0000000e+00 0.0000000e+00 0.0000000e+00 
0.0000000e+00 0.0000000e+00 0.0000000e+00 
0.0000000e+00 0.0000000e+00 0.0000000e+00 
0.0000000e+00 0.0000000e+00 0.0000000e+00 
0.0000000e+00 0.0000000e+00 0.0000000e+00 
0.0000000e+00 0.0000000e+00 0.0000000e+00 
0.0000000e+00 0.0000000e+00 0.0000000e+00 
0.0000000e+00 0.0000000e+00 0.0000000e+00 
0.0000000e+00 0.0000000e+00 0.0000000e+00 
0.0000000e+00 0.0000000e+00 0.0000000e+00 
0.0000000e+00 0.0000000e+00 0.0000000e+00 
0.0000000e+00 0.0000000e+00 0.0000000e+00 
0.0000000e+00 0.0000000e+00 0.0000000e+00 
0.0000000e+00 0.0000000e+00 0.0000000e+00 
0.0000000e+00 0.0000000e+00 0.0000000e+00 
0.0000000e+00 0.0000000e+00 0.0000000e+00 
0.0000000e+00 0.0000000e+00 0.0000000e+00 
0.0000000e+00 0.0000000e+00 0.0000000e+00 
0.0000000e+00 0.0000000e+00 0.0000000e+00 
0.0000000e+00 0.0000000e+00 0.0000000e+00 
0.0000000e+00 0.0000000e+00 0.0000000e+00 
0.0000000e+00 0.0000000e+00 0.0000000e+00 
0.0000000e+00 0.0000000e+00 0.0000000e+00 
0.0000000e+00 0.0000000e+00 0.0000000e+00 
0.0000000e+00 0.0000000e+00 0.0000000e+00 
0.0000000e+00 0.0000000e+00 0.0000000e+00 
0.0000000e+00 0.0000000e+00 0.0000000e+00 
0.0000000e+00 0.0000000e+00 0.0000000e+00 
0.0000000e+00 0.0000000e+00 0.0000000e+00 
0.0000000e+00 0.0000000e+00 0.0000000e+00 
0.0000000e+00 0.0000000e+00 0.0000000e+00 
0.0000000e+00 0.0000000e+00 0.0000000e+00 
0.0000000e+00 0.0000000e+00 0.0000000e+00 
0.0000000e+00 0.0000000e+00 0.0000000e+00 
0.0000000e+00 0.0000000e+00 0.0000000e+00 
0.0000000e+00 0.0000000e+00 0.0000000e+00 
0.0000000e+00 0.0000000e+00 0.0000000e+00 
0.0000000e+00 0.0000000e+00 0.0000000e+00 
0.0000000e+00 0.0000000e+00 0.0000000e+00 
0.0000000e+00 0.0000000e+00 0.0000000e+00 
0.0000000e+00 0.0000000e+00 0.0000000e+00 
0.0000000e+00 0.0000000e+00 0.0000000e+00 
0.0000000e+00 0.0000000e+00 0.0000000e+00 
0.0000000e+00 0.0000000e+00 0.0000000e+00 
POINT_LOAD 3 86  float
0.0000000e+00 0.0000000e+00 0.0000000e+00 
0.0000000e+00 0.0000000e+00 0.0000000e+00 
0.0000000e+00 0.0000000e+00 0.0000000e+00 
0.0000000e+00 0.0000000e+00 0.0000000e+00 
0.0000000e+00 0.0000000e+00 0.0000000e+00 
0.0000000e+00 0.0000000e+00 0.0000000e+00 
0.0000000e+00 0.0000000e+00 0.0000000e+00 
0.0000000e+00 0.0000000e+00 0.0000000e+00 
0.0000000e+00 0.0000000e+00 0.0000000e+00 
0.0000000e+00 0.0000000e+00 0.0000000e+00 
2.7813628e+00 0.0000000e+00 3.4614537e+00 
0.0000000e+00 0.0000000e+00 0.0000000e+00 
0.0000000e+00 0.0000000e+00 0.0000000e+00 
0.0000000e+00 0.0000000e+00 0.0000000e+00 
0.0000000e+00 0.0000000e+00 0.0000000e+00 
0.0000000e+00 0.0000000e+00 0.0000000e+00 
0.0000000e+00 0.0000000e+00 0.0000000e+00 
0.0000000e+00 0.0000000e+00 0.0000000e+00 
0.0000000e+00 0.0000000e+00 0.0000000e+00 
0.0000000e+00 0.0000000e+00 0.0000000e+00 
4.3171650e+01 0.0000000e+00 -2.3628412e+01 
0.0000000e+00 0.0000000e+00 0.0000000e+00 
0.0000000e+00 0.0000000e+00 0.0000000e+00 
0.0000000e+00 0.0000000e+00 0.0000000e+00 
0.0000000e+00 0.0000000e+00 0.0000000e+00 
0.0000000e+00 0.0000000e+00 0.0000000e+00 
0.0000000e+00 0.0000000e+00 0.0000000e+00 
0.0000000e+00 0.0000000e+00 0.0000000e+00 
0.0000000e+00 0.0000000e+00 0.0000000e+00 
0.0000000e+00 0.0000000e+00 0.0000000e+00 
-5.5451145e+01 0.0000000e+00 4.2733418e+01 
0.0000000e+00 0.0000000e+00 0.0000000e+00 
0.0000000e+00 0.0000000e+00 0.0000000e+00 
0.0000000e+00 0.0000000e+00 0.0000000e+00 
0.0000000e+00 0.0000000e+00 0.0000000e+00 
0.0000000e+00 0.0000000e+00 0.0000000e+00 
0.0000000e+00 0.0000000e+00 0.0000000e+00 
0.0000000e+00 0.0000000e+00 0.0000000e+00 
0.0000000e+00 0.0000000e+00 0.0000000e+00 
0.0000000e+00 0.0000000e+00 0.0000000e+00 
0.0000000e+00 0.0000000e+00 0.0000000e+00 
3.8994198e+01 0.0000000e+00 3.8308426e+01 
0.0000000e+00 0.0000000e+00 0.0000000e+00 
0.0000000e+00 0.0000000e+00 0.0000000e+00 
0.0000000e+00 0.0000000e+00 0.0000000e+00 
0.0000000e+00 0.0000000e+00 0.0000000e+00 
0.0000000e+00 0.0000000e+00 0.0000000e+00 
0.0000000e+00 0.0000000e+00 0.0000000e+00 
0.0000000e+00 0.0000000e+00 0.0000000e+00 
0.0000000e+00 0.0000000e+00 0.0000000e+00 
0.0000000e+00 0.0000000e+00 0.0000000e+00 
-2.4588539e+01 0.0000000e+00 8.8893681e+00 
0.0000000e+00 0.0000000e+00 0.0000000e+00 
0.0000000e+00 0.0000000e+00 0.0000000e+00 
0.0000000e+00 0.0000000e+00 0.0000000e+00 
0.0000000e+00 0.0000000e+00 0.0000000e+00 
-3.0943834e+01 0.0000000e+00 4.2706352e+01 
0.0000000e+00 0.0000000e+00 0.0000000e+00 
0.0000000e+00 0.0000000e+00 0.0000000e+00 
0.0000000e+00 0.0000000e+00 0.0000000e+00 
0.0000000e+00 0.0000000e+00 0.0000000e+00 
-3.9107964e+01 0.0000000e+00 2.8168947e+01 
-2.7027174e+01 0.0000000e+00 3.2762531e+01 
0.0000000e+00 0.0000000e+00 0.0000000e+00 
-9.3622971e+01 0.0000000e+00 2.4759411e+01 
-3.7788422e+01 0.0000000e+00 5.8969612e+01 
2.2535080e+01 0.0000000e+00 -3.7925987e+00 
9.5943275e+01 0.0000000e+00 -4.8497501e+01 
-2.9865561e+01 0.0000000e+00 1.0465161e+01 
2.9740885e+01 0.0000000e+00 -1.4455095e+01 
5.4774738e+01 0.0000000e+00 -7.8201241e+01 
-8.8985786e+01 0.0000000e+00 -6.5536591e+01 
-4.3510002e+01 0.0000000e+00 2.9431677e+01 
-6.2355980e+01 0.0000000e+00 -2.1810472e+01 
4.1462029e+01 0.0000000e+00 9.2466965e+01 
4.0086826e+01 0.0000000e+00 -2.6778214e+01 
3.4431435e+01 0.0000000e+00 -6.2323311e+01 
-5.1128197e+01 0.0000000e+00 6.1141834e+01 
-1.9367975e+01 0.0000000e+00 -2.5479671e+01 
9.3103264e+01 0.0000000e+00 6.0293949e+01 
-2.5204569e+01 0.0000000e+00 2.7210958e+01 
-9.5192833e+00 0.0000000e+00 7.4448273e+01 
-1.1312937e+01 0.0000000e+00 -5.4471733e+01 
-2.8058584e+01 0.0000000e+00 5.9361210e+01 
-5.9251637e+01 0.0000000e+00 -9.9307014e+01 
0.0000000e+00 0.0000000e+00 0.0000000e+00 
POINT_MOMENT 3 86  float
0.0000000e+00 0.0000000e+00 0.0000000e+00 
0.0000000e+00 0.0000000e+00 0.0000000e+00 
0.0000000e+00 0.0000000e+00 0.0000000e+00 
0.0000000e+00 0.0000000e+00 0.0000000e+00 
0.0000000e+00 0.0000000e+00 0.0000000e+00 
0.0000000e+00 0.0000000e+00 0.0000000e+00 
0.0000000e+00 0.0000000e+00 0.0000000e+00 
0.0000000e+00 0.0000000e+00 0.0000000e+00 
0.0000000e+00 0.0000000e+00 0.0000000e+00 
0.0000000e+00 0.0000000e+00 0.0000000e+00 
0.0000000e+00 0.0000000e+00 0.0000000e+00 
0.0000000e+00 0.0000000e+00 0.0000000e+00 
0.0000000e+00 0.0000000e+00 0.0000000e+00 
0.0000000e+00 0.0000000e+00 0.0000000e+00 
0.0000000e+00 0.0000000e+00 0.0000000e+00 
0.0000000e+00 0.0000000e+00 0.0000000e+00 
0.0000000e+00 0.0000000e+00 0.0000000e+00 
0.0000000e+00 0.0000000e+00 0.0000000e+00 
0.0000000e+00 0.0000000e+00 0.0000000e+00 
0.0000000e+00 0.0000000e+00 0.0000000e+00 
0.0000000e+00 0.0000000e+00 0.0000000e+00 
0.0000000e+00 0.0000000e+00 0.0000000e+00 
0.0000000e+00 0.0000000e+00 0.0000000e+00 
0.0000000e+00 0.0000000e+00 0.0000000e+00 
0.0000000e+00 0.0000000e+00 0.0000000e+00 
0.0000000e+00 0.0000000e+00 0.0000000e+00 
0.0000000e+00 0.0000000e+00 0.0000000e+00 
0.0000000e+00 0.0000000e+00 0.0000000e+00 
0.0000000e+00 0.0000000e+00 0.0000000e+00 
0.0000000e+00 0.0000000e+00 0.0000000e+00 
0.0000000e+00 0.0000000e+00 0.0000000e+00 
0.0000000e+00 0.0000000e+00 0.0000000e+00 
0.0000000e+00 0.0000000e+00 0.0000000e+00 
0.0000000e+00 0.0000000e+00 0.0000000e+00 
0.0000000e+00 0.0000000e+00 0.0000000e+00 
0.0000000e+00 0.0000000e+00 0.0000000e+00 
0.0000000e+00 0.0000000e+00 0.0000000e+00 
0.0000000e+00 0.0000000e+00 0.0000000e+00 
0.0000000e+00 0.0000000e+00 0.0000000e+00 
0.0000000e+00 0.0000000e+00 0.0000000e+00 
0.0000000e+00 0.0000000e+00 0.0000000e+00 
0.0000000e+00 0.0000000e+00 0.0000000e+00 
0.0000000e+00 0.0000000e+00 0.0000000e+00 
0.0000000e+00 0.0000000e+00 0.0000000e+00 
0.0000000e+00 0.0000000e+00 0.0000000e+00 
0.0000000e+00 0.0000000e+00 0.0000000e+00 
0.0000000e+00 0.0000000e+00 0.0000000e+00 
0.0000000e+00 0.0000000e+00 0.0000000e+00 
0.0000000e+00 0.0000000e+00 0.0000000e+00 
0.0000000e+00 0.0000000e+00 0.0000000e+00 
0.0000000e+00 0.0000000e+00 0.0000000e+00 
0.0000000e+00 0.0000000e+00 0.0000000e+00 
0.0000000e+00 0.0000000e+00 0.0000000e+00 