# vtk DataFile Version 4.0
vtk output
ASCII
DATASET UNSTRUCTURED_GRID
POINTS 212 float
0.0000000e+00 0.0000000e+00 0.0000000e+00 
0.0000000e+00 0.0000000e+00 2.5000000e-01 
0.0000000e+00 0.0000000e+00 5.0000000e-01 
0.0000000e+00 0.0000000e+00 7.5000000e-01 
0.0000000e+00 0.0000000e+00 1.0000000e+00 
0.0000000e+00 0.0000000e+00 1.2500000e+00 
0.0000000e+00 0.0000000e+00 1.5000000e+00 
0.0000000e+00 0.0000000e+00 1.7500000e+00 
0.0000000e+00 0.0000000e+00 2.0000000e+00 
0.0000000e+00 0.0000000e+00 2.2500000e+00 
0.0000000e+00 0.0000000e+00 2.5000000e+00 
0.0000000e+00 0.0000000e+00 2.7500000e+00 
0.0000000e+00 0.0000000e+00 3.0000000e+00 
0.0000000e+00 0.0000000e+00 3.2500000e+00 
0.0000000e+00 0.0000000e+00 3.5000000e+00 
0.0000000e+00 0.0000000e+00 3.7500000e+00 
0.0000000e+00 0.0000000e+00 4.0000000e+00 
0.0000000e+00 0.0000000e+00 4.2500000e+00 
0.0000000e+00 0.0000000e+00 4.5000000e+00 
0.0000000e+00 0.0000000e+00 4.7500000e+00 
0.0000000e+00 0.0000000e+00 5.0000000e+00 
0.0000000e+00 0.0000000e+00 5.2500000e+00 
0.0000000e+00 0.0000000e+00 5.5000000e+00 
0.0000000e+00 0.0000000e+00 5.7500000e+00 
0.0000000e+00 0.0000000e+00 6.0000000e+00 
0.0000000e+00 0.0000000e+00 6.2500000e+00 
0.0000000e+00 0.0000000e+00 6.5000000e+00 
0.0000000e+00 0.0000000e+00 6.7500000e+00 
0.0000000e+00 0.0000000e+00 7.0000000e+00 
0.0000000e+00 0.0000000e+00 7.2500000e+00 
0.0000000e+00 0.0000000e+00 7.5000000e+00 
0.0000000e+00 0.0000000e+00 7.7500000e+00 
0.0000000e+00 0.0000000e+00 8.0000000e+00 
0.0000000e+00 0.0000000e+00 8.2500000e+00 
0.0000000e+00 0.0000000e+00 8.5000000e+00 
0.0000000e+00 0.0000000e+00 8.7500000e+00 
0.0000000e+00 0.0000000e+00 9.0000000e+00 
0.0000000e+00 0.0000000e+00 9.2500000e+00 
0.0000000e+00 0.0000000e+00 9.5000000e+00 
0.0000000e+00 0.0000000e+00 9.7500000e+00 
0.0000000e+00 0.0000000e+00 1.0000000e+01 
0.0000000e+00 0.0000000e+00 1.0250000e+01 
0.0000000e+00 0.0000000e+00 1.0500000e+01 
0.0000000e+00 0.0000000e+00 1.0750000e+01 
0.0000000e+00 0.0000000e+00 1.1000000e+01 
0.0000000e+00 0.0000000e+00 1.1250000e+01 
0.0000000e+00 0.0000000e+00 1.1500000e+01 
0.0000000e+00 0.0000000e+00 1.1750000e+01 
0.0000000e+00 0.0000000e+00 1.2000000e+01 
0.0000000e+00 0.0000000e+00 1.2250000e+01 
0.0000000e+00 0.0000000e+00 1.2500000e+01 
0.0000000e+00 0.0000000e+00 1.2750000e+01 
0.0000000e+00 0.0000000e+00 1.3000000e+01 
0.0000000e+00 0.0000000e+00 1.3250000e+01 
0.0000000e+00 0.0000000e+00 1.3500000e+01 
0.0000000e+00 0.0000000e+00 1.3750000e+01 
0.0000000e+00 0.0000000e+00 1.4000000e+01 
0.0000000e+00 0.0000000e+00 1.4250000e+01 
0.0000000e+00 0.0000000e+00 1.4500000e+01 
0.0000000e+00 0.0000000e+00 1.4750000e+01 
0.0000000e+00 0.0000000e+00 1.5000000e+01 
0.0000000e+00 0.0000000e+00 1.5250000e+01 
0.0000000e+00 0.0000000e+00 1.5500000e+01 
0.0000000e+00 0.0000000e+00 1.5750000e+01 
0.0000000e+00 0.0000000e+00 1.6000000e+01 
0.0000000e+00 0.0000000e+00 1.6250000e+01 
0.0000000e+00 0.0000000e+00 1.6500000e+01 
0.0000000e+00 0.0000000e+00 1.6750000e+01 
0.0000000e+00 0.0000000e+00 1.7000000e+01 
0.0000000e+00 0.0000000e+00 1.7250000e+01 
0.0000000e+00 0.0000000e+00 1.7500000e+01 
0.0000000e+00 0.0000000e+00 1.7750000e+01 
0.0000000e+00 0.0000000e+00 1.8000000e+01 
5.0000000e-01 0.0000000e+00 3.0000000e+00 
5.0000000e-01 0.0000000e+00 6.0000000e+00 
5.0000000e-01 0.0000000e+00 9.0000000e+00 
5.0000000e-01 0.0000000e+00 1.2000000e+01 
5.0000000e-01 0.0000000e+00 1.5000000e+01 
5.0000000e-01 0.0000000e+00 1.8000000e+01 
1.0000000e+00 0.0000000e+00 3.0000000e+00 
1.0000000e+00 0.0000000e+00 6.0000000e+00 
1.0000000e+00 0.0000000e+00 9.0000000e+00 
1.0000000e+00 0.0000000e+00 1.2000000e+01 
1.0000000e+00 0.0000000e+00 1.5000000e+01 
1.0000000e+00 0.0000000e+00 1.8000000e+01 
1.5000000e+00 0.0000000e+00 3.0000000e+00 
1.5000000e+00 0.0000000e+00 6.0000000e+00 
1.5000000e+00 0.0000000e+00 9.0000000e+00 
1.5000000e+00 0.0000000e+00 1.2000000e+01 
1.5000000e+00 0.0000000e+00 1.5000000e+01 
1.5000000e+00 0.0000000e+00 1.8000000e+01 
2.0000000e+00 0.0000000e+00 3.0000000e+00 
2.0000000e+00 0.0000000e+00 6.0000000e+00 
2.0000000e+00 0.0000000e+00 9.0000000e+00 
2.0000000e+00 0.0000000e+00 1.2000000e+01 
2.0000000e+00 0.0000000e+00 1.5000000e+01 
2.0000000e+00 0.0000000e+00 1.8000000e+01 
2.5000000e+00 0.0000000e+00 3.0000000e+00 
2.5000000e+00 0.0000000e+00 6.0000000e+00 
2.5000000e+00 0.0000000e+00 9.0000000e+00 
2.5000000e+00 0.0000000e+00 1.2000000e+01 
2.5000000e+00 0.0000000e+00 1.5000000e+01 
2.5000000e+00 0.0000000e+00 1.8000000e+01 
3.0000000e+00 0.0000000e+00 3.0000000e+00 
3.0000000e+00 0.0000000e+00 6.0000000e+00 
3.0000000e+00 0.0000000e+00 9.0000000e+00 
3.0000000e+00 0.0000000e+00 1.2000000e+01 
3.0000000e+00 0.0000000e+00 1.5000000e+01 
3.0000000e+00 0.0000000e+00 1.8000000e+01 
3.5000000e+00 0.0000000e+00 3.0000000e+00 
3.5000000e+00 0.0000000e+00 6.0000000e+00 
3.5000000e+00 0.0000000e+00 9.0000000e+00 
3.5000000e+00 0.0000000e+00 1.2000000e+01 
3.5000000e+00 0.0000000e+00 1.5000000e+01 
3.5000000e+00 0.0000000e+00 1.8000000e+01 
4.0000000e+00 0.0000000e+00 3.0000000e+00 
4.0000000e+00 0.0000000e+00 6.0000000e+00 
4.0000000e+00 0.0000000e+00 9.0000000e+00 
4.0000000e+00 0.0000000e+00 1.2000000e+01 
4.0000000e+00 0.0000000e+00 1.5000000e+01 
4.0000000e+00 0.0000000e+00 1.8000000e+01 
4.5000000e+00 0.0000000e+00 3.0000000e+00 
4.5000000e+00 0.0000000e+00 6.0000000e+00 
4.5000000e+00 0.0000000e+00 9.0000000e+00 
4.5000000e+00 0.0000000e+00 1.2000000e+01 
4.5000000e+00 0.0000000e+00 1.5000000e+01 
4.5000000e+00 0.0000000e+00 1.8000000e+01 
5.0000000e+00 0.0000000e+00 3.0000000e+00 
5.0000000e+00 0.0000000e+00 6.0000000e+00 
5.0000000e+00 0.0000000e+00 9.0000000e+00 
5.0000000e+00 0.0000000e+00 1.2000000e+01 
5.0000000e+00 0.0000000e+00 1.5000000e+01 
5.0000000e+00 0.0000000e+00 1.8000000e+01 
5.5000000e+00 0.0000000e+00 3.0000000e+00 
5.5000000e+00 0.0000000e+00 6.0000000e+00 
5.5000000e+00 0.0000000e+00 9.0000000e+00 
5.5000000e+00 0.0000000e+00 1.2000000e+01 
5.5000000e+00 0.0000000e+00 1.5000000e+01 
5.5000000e+00 0.0000000e+00 1.8000000e+01 
6.0000000e+00 0.0000000e+00 0.0000000e+00 
6.0000000e+00 0.0000000e+00 2.5000000e-01 
6.0000000e+00 0.0000000e+00 5.0000000e-01 
6.0000000e+00 0.0000000e+00 7.5000000e-01 
6.0000000e+00 0.0000000e+00 1.0000000e+00 
6.0000000e+00 0.0000000e+00 1.2500000e+00 
6.0000000e+00 0.0000000e+00 1.5000000e+00 
6.0000000e+00 0.0000000e+00 1.7500000e+00 
6.0000000e+00 0.0000000e+00 2.0000000e+00 
6.0000000e+00 0.0000000e+00 2.2500000e+00 
6.0000000e+00 0.0000000e+00 2.5000000e+00 
6.0000000e+00 0.0000000e+00 2.7500000e+00 
6.0000000e+00 0.0000000e+00 3.0000000e+00 
6.0000000e+00 0.0000000e+00 3.2500000e+00 
6.0000000e+00 0.0000000e+00 3.5000000e+00 
6.0000000e+00 0.0000000e+00 3.7500000e+00 
6.0000000e+00 0.0000000e+00 4.0000000e+00 
6.0000000e+00 0.0000000e+00 4.2500000e+00 
6.0000000e+00 0.0000000e+00 4.5000000e+00 
6.0000000e+00 0.0000000e+00 4.7500000e+00 
6.0000000e+00 0.0000000e+00 5.0000000e+00 
6.0000000e+00 0.0000000e+00 5.2500000e+00 
6.0000000e+00 0.0000000e+00 5.5000000e+00 
6.0000000e+00 0.0000000e+00 5.7500000e+00 
6.0000000e+00 0.0000000e+00 6.0000000e+00 
6.0000000e+00 0.0000000e+00 6.2500000e+00 
6.0000000e+00 0.0000000e+00 6.5000000e+00 
6.0000000e+00 0.0000000e+00 6.7500000e+00 
6.0000000e+00 0.0000000e+00 7.0000000e+00 
6.0000000e+00 0.0000000e+00 7.2500000e+00 
6.0000000e+00 0.0000000e+00 7.5000000e+00 
6.0000000e+00 0.0000000e+00 7.7500000e+00 
6.0000000e+00 0.0000000e+00 8.0000000e+00 
6.0000000e+00 0.0000000e+00 8.2500000e+00 
6.0000000e+00 0.0000000e+00 8.5000000e+00 
6.0000000e+00 0.0000000e+00 8.7500000e+00 
6.0000000e+00 0.0000000e+00 9.0000000e+00 
6.0000000e+00 0.0000000e+00 9.2500000e+00 
6.0000000e+00 0.0000000e+00 9.5000000e+00 
6.0000000e+00 0.0000000e+00 9.7500000e+00 
6.0000000e+00 0.0000000e+00 1.0000000e+01 
6.0000000e+00 0.0000000e+00 1.0250000e+01 
6.0000000e+00 0.0000000e+00 1.0500000e+01 
6.0000000e+00 0.0000000e+00 1.0750000e+01 
6.0000000e+00 0.0000000e+00 1.1000000e+01 
6.0000000e+00 0.0000000e+00 1.1250000e+01 
6.0000000e+00 0.0000000e+00 1.1500000e+01 
6.0000000e+00 0.0000000e+00 1.1750000e+01 
6.0000000e+00 0.0000000e+00 1.2000000e+01 
6.0000000e+00 0.0000000e+00 1.2250000e+01 
6.0000000e+00 0.0000000e+00 1.2500000e+01 
6.0000000e+00 0.0000000e+00 1.2750000e+01 
6.0000000e+00 0.0000000e+00 1.3000000e+01 
6.0000000e+00 0.0000000e+00 1.3250000e+01 
6.0000000e+00 0.0000000e+00 1.3500000e+01 
6.0000000e+00 0.0000000e+00 1.3750000e+01 
6.0000000e+00 0.0000000e+00 1.4000000e+01 
6.0000000e+00 0.0000000e+00 1.4250000e+01 
6.0000000e+00 0.0000000e+00 1.4500000e+01 
6.0000000e+00 0.0000000e+00 1.4750000e+01 
6.0000000e+00 0.0000000e+00 1.5000000e+01 
6.0000000e+00 0.0000000e+00 1.5250000e+01 
6.0000000e+00 0.0000000e+00 1.5500000e+01 
6.0000000e+00 0.0000000e+00 1.5750000e+01 
6.0000000e+00 0.0000000e+00 1.6000000e+01 
6.0000000e+00 0.0000000e+00 1.6250000e+01 
6.0000000e+00 0.0000000e+00 1.6500000e+01 
6.0000000e+00 0.0000000e+00 1.6750000e+01 
6.0000000e+00 0.0000000e+00 1.7000000e+01 
6.0000000e+00 0.0000000e+00 1.7250000e+01 
6.0000000e+00 0.0000000e+00 1.7500000e+01 
6.0000000e+00 0.0000000e+00 1.7750000e+01 
6.0000000e+00 0.0000000e+00 1.8000000e+01 

CELLS 216 648
2 0 1
2 1 2
2 2 3
2 3 4
2 4 5
2 5 6
2 6 7
2 7 8
2 8 9
2 9 10
2 10 11
2 11 12
2 12 13
2 13 14
2 14 15
2 15 16
2 16 17
2 17 18
2 18 19
2 19 20
2 20 21
2 21 22
2 22 23
2 23 24
2 24 25
2 25 26
2 26 27
2 27 28
2 28 29
2 29 30
2 30 31
2 31 32
2 32 33
2 33 34
2 34 35
2 35 36
2 36 37
2 37 38
2 38 39
2 39 40
2 40 41
2 41 42
2 42 43
2 43 44
2 44 45
2 45 46
2 46 47
2 47 48
2 48 49
2 49 50
2 50 51
2 51 52
2 52 53
2 53 54
2 54 55
2 55 56
2 56 57
2 57 58
2 58 59
2 59 60
2 60 61
2 61 62
2 62 63
2 63 64
2 64 65
2 65 66
2 66 67
2 67 68
2 68 69
2 69 70
2 70 71
2 71 72
2 139 140
2 140 141
2 141 142
2 142 143
2 143 144
2 144 145
2 145 146
2 146 147
2 147 148
2 148 149
2 149 150
2 150 151
2 151 152
2 152 153
2 153 154
2 154 155
2 155 156
2 156 157
2 157 158
2 158 159
2 159 160
2 160 161
2 161 162
2 162 163
2 163 164
2 164 165
2 165 166
2 166 167
2 167 168
2 168 169
2 169 170
2 170 171
2 171 172
2 172 173
2 173 174
2 174 175
2 175 176
2 176 177
2 177 178
2 178 179
2 179 180
2 180 181
2 181 182
2 182 183
2 183 184
2 184 185
2 185 186
2 186 187
2 187 188
2 188 189
2 189 190
2 190 191
2 191 192
2 192 193
2 193 194
2 194 195
2 195 196
2 196 197
2 197 198
2 198 199
2 199 200
2 200 201
2 201 202
2 202 203
2 203 204
2 204 205
2 205 206
2 206 207
2 207 208
2 208 209
2 209 210
2 210 211
2 12 73
2 73 79
2 79 85
2 85 91
2 91 97
2 97 103
2 103 109
2 109 115
2 115 121
2 121 127
2 127 133
2 133 151
2 24 74
2 74 80
2 80 86
2 86 92
2 92 98
2 98 104
2 104 110
2 110 116
2 116 122
2 122 128
2 128 134
2 134 163
2 36 75
2 75 81
2 81 87
2 87 93
2 93 99
2 99 105
2 105 111
2 111 117
2 117 123
2 123 129
2 129 135
2 135 175
2 48 76
2 76 82
2 82 88
2 88 94
2 94 100
2 100 106
2 106 112
2 112 118
2 118 124
2 124 130
2 130 136
2 136 187
2 60 77
2 77 83
2 83 89
2 89 95
2 95 101
2 101 107
2 107 113
2 113 119
2 119 125
2 125 131
2 131 137
2 137 199
2 72 78
2 78 84
2 84 90
2 90 96
2 96 102
2 102 108
2 108 114
2 114 120
2 120 126
2 126 132
2 132 138
2 138 211

CELL_TYPES 216
3
3
3
3
3
3
3
3
3
3
3
3
3
3
3
3
3
3
3
3
3
3
3
3
3
3
3
3
3
3
3
3
3
3
3
3
3
3
3
3
3
3
3
3
3
3
3
3
3
3
3
3
3
3
3
3
3
3
3
3
3
3
3
3
3
3
3
3
3
3
3
3
3
3
3
3
3
3
3
3
3
3
3
3
3
3
3
3
3
3
3
3
3
3
3
3
3
3
3
3
3
3
3
3
3
3
3
3
3
3
3
3
3
3
3
3
3
3
3
3
3
3
3
3
3
3
3
3
3
3
3
3
3
3
3
3
3
3
3
3
3
3
3
3
3
3
3
3
3
3
3
3
3
3
3
3
3
3
3
3
3
3
3
3
3
3
3
3
3
3
3
3
3
3
3
3
3
3
3
3
3
3
3
3
3
3
3
3
3
3
3
3
3
3
3
3
3
3
3
3
3
3
3
3
3
3
3
3
3
3
3
3
3
3
3
3
POINT_DATA 212
FIELD FieldData 8
DISPLACEMENT 3 212  float
0.0000000e+00 0.0000000e+00 0.0000000e+00 
-3.1973450e-03 0.0000000e+00 -3.6821799e-05 
-6.2605678e-03 0.0000000e+00 -7.3388961e-05 
-9.0555465e-03 0.0000000e+00 -1.0970149e-04 
-1.1448158e-02 0.0000000e+00 -1.4575938e-04 
-1.3304282e-02 0.0000000e+00 -1.8156263e-04 
-1.4489795e-02 0.0000000e+00 -2.1711124e-04 
-1.4870576e-02 0.0000000e+00 -2.5240521e-04 
-1.4312502e-02 0.0000000e+00 -2.8744456e-04 
-1.2681451e-02 0.0000000e+00 -3.2222926e-04 
-9.8433001e-03 0.0000000e+00 -3.5675932e-04 
-5.6639290e-03 0.0000000e+00 -3.9103476e-04 
-9.2145619e-06 0.0000000e+00 -4.2505554e-04 
5.0794957e-03 0.0000000e+00 -4.5571916e-04 
7.7667264e-03 0.0000000e+00 -4.8612815e-04 
8.4954072e-03 0.0000000e+00 -5.1628245e-04 
7.7084685e-03 0.0000000e+00 -5.4618216e-04 
5.8488403e-03 0.0000000e+00 -5.7582726e-04 
3.3594519e-03 0.0000000e+00 -6.0521765e-04 
6.8323372e-04 0.0000000e+00 -6.3435343e-04 
-1.7368841e-03 0.0000000e+00 -6.6323462e-04 
-3.4579718e-03 0.0000000e+00 -6.9186115e-04 
-4.0370994e-03 0.0000000e+00 -7.2023302e-04 
-3.0313372e-03 0.0000000e+00 -7.4835023e-04 
2.2453812e-06 0.0000000e+00 -7.7621284e-04 
3.1736840e-03 0.0000000e+00 -8.0071826e-04 
4.5428481e-03 0.0000000e+00 -8.2496909e-04 
4.4774185e-03 0.0000000e+00 -8.4896525e-04 
3.3450758e-03 0.0000000e+00 -8.7270676e-04 
1.5134998e-03 0.0000000e+00 -8.9619361e-04 
-6.4962870e-04 0.0000000e+00 -9.1942586e-04 
-2.7766293e-03 0.0000000e+00 -9.4240345e-04 
-4.4998215e-03 0.0000000e+00 -9.6512644e-04 
-5.4515246e-03 0.0000000e+00 -9.8759471e-04 
-5.2640587e-03 0.0000000e+00 -1.0098085e-03 
-3.5697429e-03 0.0000000e+00 -1.0317675e-03 
-8.9693964e-07 0.0000000e+00 -1.0534719e-03 
3.5128810e-03 0.0000000e+00 -1.0718192e-03 
5.0620325e-03 0.0000000e+00 -1.0899118e-03 
5.0442968e-03 0.0000000e+00 -1.1077498e-03 
3.8574138e-03 0.0000000e+00 -1.1253330e-03 
1.8991230e-03 0.0000000e+00 -1.1426618e-03 
-4.3283612e-04 0.0000000e+00 -1.1597358e-03 
-2.7407238e-03 0.0000000e+00 -1.1765552e-03 
-4.6268003e-03 0.0000000e+00 -1.1931200e-03 
-5.6933262e-03 0.0000000e+00 -1.2094302e-03 
-5.5425623e-03 0.0000000e+00 -1.2254857e-03 
-3.7767680e-03 0.0000000e+00 -1.2412865e-03 
1.7953822e-06 0.0000000e+00 -1.2568327e-03 
3.8905870e-03 0.0000000e+00 -1.2690218e-03 
5.9469533e-03 0.0000000e+00 -1.2809562e-03 
6.5084649e-03 0.0000000e+00 -1.2926360e-03 
5.9126928e-03 0.0000000e+00 -1.3040612e-03 
4.4972077e-03 0.0000000e+00 -1.3152317e-03 
2.5995809e-03 0.0000000e+00 -1.3261475e-03 
5.5738294e-04 0.0000000e+00 -1.3368088e-03 
-1.2918151e-03 0.0000000e+00 -1.3472154e-03 
-2.6104422e-03 0.0000000e+00 -1.3573673e-03 
-3.0609276e-03 0.0000000e+00 -1.3672647e-03 
-2.3057007e-03 0.0000000e+00 -1.3769073e-03 
-7.1899808e-06 0.0000000e+00 -1.3862953e-03 
1.8497965e-03 0.0000000e+00 -1.3923262e-03 
1.4410898e-03 0.0000000e+00 -1.3981025e-03 
-6.5478112e-04 0.0000000e+00 -1.4036241e-03 
-3.8592874e-03 0.0000000e+00 -1.4088911e-03 
-7.5939000e-03 0.0000000e+00 -1.4139033e-03 
-1.1280090e-02 0.0000000e+00 -1.4186610e-03 
-1.4339329e-02 0.0000000e+00 -1.4231640e-03 
-1.6193086e-02 0.0000000e+00 -1.4274125e-03 
-1.6262835e-02 0.0000000e+00 -1.4314062e-03 
-1.3970046e-02 0.0000000e+00 -1.4351454e-03 
-8.7361895e-03 0.0000000e+00 -1.4386298e-03 
1.7262806e-05 0.0000000e+00 -1.4418598e-03 
-7.6788010e-06 0.0000000e+00 -2.0613749e-02 
1.8711510e-06 0.0000000e+00 -1.6854651e-02 
-7.4744969e-07 0.0000000e+00 -1.7926725e-02 
1.4961519e-06 0.0000000e+00 -1.8659657e-02 
-5.9916506e-06 0.0000000e+00 -1.5608557e-02 
1.4385671e-05 0.0000000e+00 -2.9457053e-02 
-6.1430410e-06 0.0000000e+00 -4.9608830e-02 
1.4969207e-06 0.0000000e+00 -4.2486794e-02 
-5.9795980e-07 0.0000000e+00 -4.4209171e-02 
1.1969214e-06 0.0000000e+00 -4.5375388e-02 
-4.7933208e-06 0.0000000e+00 -3.9722010e-02 
1.1508538e-05 0.0000000e+00 -6.4855635e-02 
-4.6072810e-06 0.0000000e+00 -7.9924062e-02 
1.1226905e-06 0.0000000e+00 -7.0186406e-02 
-4.4846990e-07 0.0000000e+00 -7.2414577e-02 
8.9769100e-07 0.0000000e+00 -7.3917791e-02 
-3.5949906e-06 0.0000000e+00 -6.6240422e-02 
8.6314030e-06 0.0000000e+00 -1.0015137e-01 
-3.0715207e-06 0.0000000e+00 -1.0573682e-01 
7.4846031e-07 0.0000000e+00 -9.4130866e-02 
-2.9898001e-07 0.0000000e+00 -9.6720316e-02 
5.9846059e-07 0.0000000e+00 -9.8464243e-02 
-2.3966604e-06 0.0000000e+00 -8.9341164e-02 
5.7542684e-06 0.0000000e+00 -1.2952162e-01 
-1.5357604e-06 0.0000000e+00 -1.2288808e-01 
3.7423007e-07 0.0000000e+00 -1.1016115e-01 
-1.4949009e-07 0.0000000e+00 -1.1296736e-01 
2.9923018e-07 0.0000000e+00 -1.1485573e-01 
-1.1983304e-06 0.0000000e+00 -1.0486522e-01 
2.8771342e-06 0.0000000e+00 -1.4880739e-01 
-6.8524972e-14 0.0000000e+00 -1.2888244e-01 
-1.3182633e-13 0.0000000e+00 -1.1578184e-01 
-1.9201726e-13 0.0000000e+00 -1.1866032e-01 
-2.4580617e-13 0.0000000e+00 -1.2059682e-01 
-2.9732502e-13 0.0000000e+00 -1.1031717e-01 
-3.3077415e-13 0.0000000e+00 -1.5551324e-01 
1.5357602e-06 0.0000000e+00 -1.2288808e-01 
-3.7423035e-07 0.0000000e+00 -1.1016115e-01 
1.4948971e-07 0.0000000e+00 -1.1296736e-01 
-2.9923066e-07 0.0000000e+00 -1.1485573e-01 
1.1983298e-06 0.0000000e+00 -1.0486522e-01 
-2.8771349e-06 0.0000000e+00 -1.4880739e-01 
3.0715205e-06 0.0000000e+00 -1.0573682e-01 
-7.4846054e-07 0.0000000e+00 -9.4130866e-02 
2.9897961e-07 0.0000000e+00 -9.6720316e-02 
-5.9846110e-07 0.0000000e+00 -9.8464243e-02 
2.3966600e-06 0.0000000e+00 -8.9341164e-02 
-5.7542693e-06 0.0000000e+00 -1.2952162e-01 
4.6072810e-06 0.0000000e+00 -7.9924062e-02 
-1.1226907e-06 0.0000000e+00 -7.0186406e-02 
4.4846954e-07 0.0000000e+00 -7.2414577e-02 
-8.9769151e-07 0.0000000e+00 -7.3917791e-02 
3.5949899e-06 0.0000000e+00 -6.6240422e-02 
-8.6314039e-06 0.0000000e+00 -1.0015137e-01 
6.1430410e-06 0.0000000e+00 -4.9608830e-02 
-1.4969210e-06 0.0000000e+00 -4.2486794e-02 
5.9795946e-07 0.0000000e+00 -4.4209171e-02 
-1.1969220e-06 0.0000000e+00 -4.5375388e-02 
4.7933199e-06 0.0000000e+00 -3.9722010e-02 
-1.1508538e-05 0.0000000e+00 -6.4855635e-02 
7.6788010e-06 0.0000000e+00 -2.0613749e-02 
-1.8711512e-06 0.0000000e+00 -1.6854651e-02 
7.4744935e-07 0.0000000e+00 -1.7926725e-02 
-1.4961523e-06 0.0000000e+00 -1.8659657e-02 
5.9916501e-06 0.0000000e+00 -1.5608557e-02 
-1.4385672e-05 0.0000000e+00 -2.9457053e-02 
0.0000000e+00 0.0000000e+00 0.0000000e+00 
3.1973450e-03 0.0000000e+00 -3.6821799e-05 
6.2605678e-03 0.0000000e+00 -7.3388961e-05 
9.0555465e-03 0.0000000e+00 -1.0970149e-04 
1.1448158e-02 0.0000000e+00 -1.4575938e-04 
1.3304282e-02 0.0000000e+00 -1.8156263e-04 
1.4489795e-02 0.0000000e+00 -2.1711124e-04 
1.4870576e-02 0.0000000e+00 -2.5240521e-04 
1.4312502e-02 0.0000000e+00 -2.8744456e-04 
1.2681451e-02 0.0000000e+00 -3.2222926e-04 
9.8433001e-03 0.0000000e+00 -3.5675932e-04 
5.6639290e-03 0.0000000e+00 -3.9103476e-04 
9.2145619e-06 0.0000000e+00 -4.2505554e-04 
-5.0794957e-03 0.0000000e+00 -4.5571916e-04 
-7.7667264e-03 0.0000000e+00 -4.8612815e-04 
-8.4954072e-03 0.0000000e+00 -5.1628245e-04 
-7.7084685e-03 0.0000000e+00 -5.4618216e-04 
-5.8488403e-03 0.0000000e+00 -5.7582726e-04 
-3.3594519e-03 0.0000000e+00 -6.0521765e-04 
-6.8323378e-04 0.0000000e+00 -6.3435343e-04 
1.7368841e-03 0.0000000e+00 -6.6323462e-04 
3.4579718e-03 0.0000000e+00 -6.9186115e-04 
4.0370994e-03 0.0000000e+00 -7.2023302e-04 
3.0313372e-03 0.0000000e+00 -7.4835023e-04 
-2.2453814e-06 0.0000000e+00 -7.7621284e-04 
-3.1736840e-03 0.0000000e+00 -8.0071826e-04 
-4.5428481e-03 0.0000000e+00 -8.2496909e-04 
-4.4774185e-03 0.0000000e+00 -8.4896525e-04 
-3.3450758e-03 0.0000000e+00 -8.7270676e-04 
-1.5134998e-03 0.0000000e+00 -8.9619361e-04 
6.4962870e-04 0.0000000e+00 -9.1942586e-04 
2.7766293e-03 0.0000000e+00 -9.4240345e-04 
4.4998215e-03 0.0000000e+00 -9.6512644e-04 
5.4515246e-03 0.0000000e+00 -9.8759471e-04 
5.2640587e-03 0.0000000e+00 -1.0098085e-03 
3.5697429e-03 0.0000000e+00 -1.0317675e-03 
8.9693924e-07 0.0000000e+00 -1.0534719e-03 
-3.5128810e-03 0.0000000e+00 -1.0718192e-03 
-5.0620325e-03 0.0000000e+00 -1.0899118e-03 
-5.0442968e-03 0.0000000e+00 -1.1077498e-03 
-3.8574138e-03 0.0000000e+00 -1.1253330e-03 
-1.8991230e-03 0.0000000e+00 -1.1426618e-03 
4.3283612e-04 0.0000000e+00 -1.1597358e-03 
2.7407238e-03 0.0000000e+00 -1.1765552e-03 
4.6268003e-03 0.0000000e+00 -1.1931200e-03 
5.6933262e-03 0.0000000e+00 -1.2094302e-03 
5.5425623e-03 0.0000000e+00 -1.2254857e-03 
3.7767680e-03 0.0000000e+00 -1.2412865e-03 
-1.7953828e-06 0.0000000e+00 -1.2568327e-03 
-3.8905870e-03 0.0000000e+00 -1.2690218e-03 
-5.9469533e-03 0.0000000e+00 -1.2809562e-03 
-6.5084649e-03 0.0000000e+00 -1.2926360e-03 
-5.9126928e-03 0.0000000e+00 -1.3040612e-03 
-4.4972077e-03 0.0000000e+00 -1.3152317e-03 
-2.5995809e-03 0.0000000e+00 -1.3261475e-03 
-5.5738294e-04 0.0000000e+00 -1.3368088e-03 
1.2918151e-03 0.0000000e+00 -1.3472154e-03 
2.6104422e-03 0.0000000e+00 -1.3573673e-03 
3.0609276e-03 0.0000000e+00 -1.3672647e-03 
2.3057007e-03 0.0000000e+00 -1.3769073e-03 
7.1899804e-06 0.0000000e+00 -1.3862953e-03 
-1.8497965e-03 0.0000000e+00 -1.3923262e-03 
-1.4410898e-03 0.0000000e+00 -1.3981025e-03 
6.5478112e-04 0.0000000e+00 -1.4036241e-03 
3.8592874e-03 0.0000000e+00 -1.4088911e-03 
7.5939000e-03 0.0000000e+00 -1.4139033e-03 
1.1280090e-02 0.0000000e+00 -1.4186610e-03 
1.4339329e-02 0.0000000e+00 -1.4231640e-03 
1.6193086e-02 0.0000000e+00 -1.4274125e-03 
1.6262835e-02 0.0000000e+00 -1.4314062e-03 
1.3970046e-02 0.0000000e+00 -1.4351454e-03 
8.7361895e-03 0.0000000e+00 -1.4386298e-03 
-1.7262806e-05 0.0000000e+00 -1.4418598e-03 
ROTATION 3 212  float
0.0000000e+00 -1.2878794e-02 0.0000000e+00 
0.0000000e+00 -1.2610550e-02 0.0000000e+00 
0.0000000e+00 -1.1805817e-02 0.0000000e+00 
0.0000000e+00 -1.0464597e-02 0.0000000e+00 
0.0000000e+00 -8.5868863e-03 0.0000000e+00 
0.0000000e+00 -6.1726887e-03 0.0000000e+00 
0.0000000e+00 -3.2220022e-03 0.0000000e+00 
0.0000000e+00 2.6517271e-04 0.0000000e+00 
0.0000000e+00 4.2888359e-03 0.0000000e+00 
0.0000000e+00 8.8489875e-03 0.0000000e+00 
0.0000000e+00 1.3945628e-02 0.0000000e+00 
0.0000000e+00 1.9578757e-02 0.0000000e+00 
0.0000000e+00 2.5748374e-02 0.0000000e+00 
0.0000000e+00 1.5256595e-02 0.0000000e+00 
0.0000000e+00 6.5365364e-03 0.0000000e+00 
0.0000000e+00 -4.1180223e-04 0.0000000e+00 
0.0000000e+00 -5.5884211e-03 0.0000000e+00 
0.0000000e+00 -8.9933202e-03 0.0000000e+00 
0.0000000e+00 -1.0626500e-02 0.0000000e+00 
0.0000000e+00 -1.0487959e-02 0.0000000e+00 
0.0000000e+00 -8.5776979e-03 0.0000000e+00 
0.0000000e+00 -4.8957174e-03 0.0000000e+00 
0.0000000e+00 5.5798294e-04 0.0000000e+00 
0.0000000e+00 7.7834032e-03 0.0000000e+00 
0.0000000e+00 1.6780544e-02 0.0000000e+00 
0.0000000e+00 8.8360850e-03 0.0000000e+00 
0.0000000e+00 2.3623491e-03 0.0000000e+00 
0.0000000e+00 -2.6406655e-03 0.0000000e+00 
0.0000000e+00 -6.1729583e-03 0.0000000e+00 
0.0000000e+00 -8.2345288e-03 0.0000000e+00 
0.0000000e+00 -8.8253785e-03 0.0000000e+00 
0.0000000e+00 -7.9455059e-03 0.0000000e+00 
0.0000000e+00 -5.5949111e-03 0.0000000e+00 
0.0000000e+00 -1.7735949e-03 0.0000000e+00 
0.0000000e+00 3.5184431e-03 0.0000000e+00 
0.0000000e+00 1.0281203e-02 0.0000000e+00 
0.0000000e+00 1.8514685e-02 0.0000000e+00 
0.0000000e+00 9.8606991e-03 0.0000000e+00 
0.0000000e+00 2.7976718e-03 0.0000000e+00 
0.0000000e+00 -2.6743971e-03 0.0000000e+00 
0.0000000e+00 -6.5555074e-03 0.0000000e+00 
0.0000000e+00 -8.8456599e-03 0.0000000e+00 
0.0000000e+00 -9.5448531e-03 0.0000000e+00 
0.0000000e+00 -8.6530885e-03 0.0000000e+00 
0.0000000e+00 -6.1703650e-03 0.0000000e+00 
0.0000000e+00 -2.0966833e-03 0.0000000e+00 
0.0000000e+00 3.5679569e-03 0.0000000e+00 
0.0000000e+00 1.0823555e-02 0.0000000e+00 
0.0000000e+00 1.9670112e-02 0.0000000e+00 
0.0000000e+00 1.1665269e-02 0.0000000e+00 
0.0000000e+00 5.0107082e-03 0.0000000e+00 
0.0000000e+00 -2.9356845e-04 0.0000000e+00 
0.0000000e+00 -4.2475616e-03 0.0000000e+00 
0.0000000e+00 -6.8512708e-03 0.0000000e+00 
0.0000000e+00 -8.1046969e-03 0.0000000e+00 
0.0000000e+00 -8.0078393e-03 0.0000000e+00 
0.0000000e+00 -6.5606977e-03 0.0000000e+00 
0.0000000e+00 -3.7632727e-03 0.0000000e+00 
0.0000000e+00 3.8443599e-04 0.0000000e+00 
0.0000000e+00 5.8824280e-03 0.0000000e+00 
0.0000000e+00 1.2730704e-02 0.0000000e+00 
0.0000000e+00 2.5108736e-03 0.0000000e+00 
0.0000000e+00 -5.3948411e-03 0.0000000e+00 
0.0000000e+00 -1.0986440e-02 0.0000000e+00 
0.0000000e+00 -1.4263923e-02 0.0000000e+00 
0.0000000e+00 -1.5227291e-02 0.0000000e+00 
0.0000000e+00 -1.3876543e-02 0.0000000e+00 
0.0000000e+00 -1.0211679e-02 0.0000000e+00 
0.0000000e+00 -4.2327000e-03 0.0000000e+00 
0.0000000e+00 4.0603951e-03 0.0000000e+00 
0.0000000e+00 1.4667606e-02 0.0000000e+00 
0.0000000e+00 2.7588932e-02 0.0000000e+00 
0.0000000e+00 4.2824373e-02 0.0000000e+00 
0.0000000e+00 5.1956452e-02 0.0000000e+00 
0.0000000e+00 4.4483263e-02 0.0000000e+00 
0.0000000e+00 4.5928378e-02 0.0000000e+00 
0.0000000e+00 4.6891235e-02 0.0000000e+00 
0.0000000e+00 4.1108396e-02 0.0000000e+00 
0.0000000e+00 6.6186450e-02 0.0000000e+00 
0.0000000e+00 6.1528455e-02 0.0000000e+00 
0.0000000e+00 5.5549901e-02 0.0000000e+00 
0.0000000e+00 5.6705996e-02 0.0000000e+00 
0.0000000e+00 5.7476282e-02 0.0000000e+00 
0.0000000e+00 5.2850008e-02 0.0000000e+00 
0.0000000e+00 7.2912455e-02 0.0000000e+00 
0.0000000e+00 5.7791598e-02 0.0000000e+00 
0.0000000e+00 5.3307682e-02 0.0000000e+00 
0.0000000e+00 5.4174751e-02 0.0000000e+00 
0.0000000e+00 5.4752465e-02 0.0000000e+00 
0.0000000e+00 5.1282760e-02 0.0000000e+00 
0.0000000e+00 6.6329598e-02 0.0000000e+00 
0.0000000e+00 4.4073090e-02 0.0000000e+00 
0.0000000e+00 4.1083813e-02 0.0000000e+00 
0.0000000e+00 4.1661859e-02 0.0000000e+00 
0.0000000e+00 4.2047001e-02 0.0000000e+00 
0.0000000e+00 3.9733868e-02 0.0000000e+00 
0.0000000e+00 4.9765091e-02 0.0000000e+00 
0.0000000e+00 2.3700153e-02 0.0000000e+00 
0.0000000e+00 2.2205515e-02 0.0000000e+00 
0.0000000e+00 2.2494538e-02 0.0000000e+00 
0.0000000e+00 2.2687109e-02 0.0000000e+00 
0.0000000e+00 2.1530541e-02 0.0000000e+00 
0.0000000e+00 2.6546152e-02 0.0000000e+00 
0.0000000e+00 7.0736539e-15 0.0000000e+00 
0.0000000e+00 1.0066354e-14 0.0000000e+00 
0.0000000e+00 7.7084691e-15 0.0000000e+00 
0.0000000e+00 6.7109023e-15 0.0000000e+00 
0.0000000e+00 6.3481511e-15 0.0000000e+00 
0.0000000e+00 2.8595381e-15 0.0000000e+00 
0.0000000e+00 -2.3700153e-02 0.0000000e+00 
0.0000000e+00 -2.2205515e-02 0.0000000e+00 
0.0000000e+00 -2.2494538e-02 0.0000000e+00 
0.0000000e+00 -2.2687109e-02 0.0000000e+00 
0.0000000e+00 -2.1530541e-02 0.0000000e+00 
0.0000000e+00 -2.6546152e-02 0.0000000e+00 
0.0000000e+00 -4.4073090e-02 0.0000000e+00 
0.0000000e+00 -4.1083813e-02 0.0000000e+00 
0.0000000e+00 -4.1661859e-02 0.0000000e+00 
0.0000000e+00 -4.2047001e-02 0.0000000e+00 
0.0000000e+00 -3.9733868e-02 0.0000000e+00 
0.0000000e+00 -4.9765091e-02 0.0000000e+00 
0.0000000e+00 -5.7791598e-02 0.0000000e+00 
0.0000000e+00 -5.3307682e-02 0.0000000e+00 
0.0000000e+00 -5.4174751e-02 0.0000000e+00 
0.0000000e+00 -5.4752465e-02 0.0000000e+00 
0.0000000e+00 -5.1282760e-02 0.0000000e+00 
0.0000000e+00 -6.6329598e-02 0.0000000e+00 
0.0000000e+00 -6.1528455e-02 0.0000000e+00 
0.0000000e+00 -5.5549901e-02 0.0000000e+00 
0.0000000e+00 -5.6705996e-02 0.0000000e+00 
0.0000000e+00 -5.7476282e-02 0.0000000e+00 
0.0000000e+00 -5.2850008e-02 0.0000000e+00 
0.0000000e+00 -7.2912455e-02 0.0000000e+00 
0.0000000e+00 -5.1956452e-02 0.0000000e+00 
0.0000000e+00 -4.4483263e-02 0.0000000e+00 
0.0000000e+00 -4.5928378e-02 0.0000000e+00 
0.0000000e+00 -4.6891235e-02 0.0000000e+00 
0.0000000e+00 -4.1108396e-02 0.0000000e+00 
0.0000000e+00 -6.6186450e-02 0.0000000e+00 
0.0000000e+00 1.2878794e-02 0.0000000e+00 
0.0000000e+00 1.2610550e-02 0.0000000e+00 
0.0000000e+00 1.1805817e-02 0.0000000e+00 
0.0000000e+00 1.0464597e-02 0.0000000e+00 
0.0000000e+00 8.5868863e-03 0.0000000e+00 
0.0000000e+00 6.1726887e-03 0.0000000e+00 
0.0000000e+00 3.2220022e-03 0.0000000e+00 
0.0000000e+00 -2.6517271e-04 0.0000000e+00 
0.0000000e+00 -4.2888359e-03 0.0000000e+00 
0.0000000e+00 -8.8489875e-03 0.0000000e+00 
0.0000000e+00 -1.3945628e-02 0.0000000e+00 
0.0000000e+00 -1.9578757e-02 0.0000000e+00 
0.0000000e+00 -2.5748374e-02 0.0000000e+00 
0.0000000e+00 -1.5256595e-02 0.0000000e+00 
0.0000000e+00 -6.5365364e-03 0.0000000e+00 
0.0000000e+00 4.1180223e-04 0.0000000e+00 
0.0000000e+00 5.5884211e-03 0.0000000e+00 
0.0000000e+00 8.9933202e-03 0.0000000e+00 
0.0000000e+00 1.0626500e-02 0.0000000e+00 
0.0000000e+00 1.0487959e-02 0.0000000e+00 
0.0000000e+00 8.5776979e-03 0.0000000e+00 
0.0000000e+00 4.8957174e-03 0.0000000e+00 
0.0000000e+00 -5.5798294e-04 0.0000000e+00 
0.0000000e+00 -7.7834032e-03 0.0000000e+00 
0.0000000e+00 -1.6780544e-02 0.0000000e+00 
0.0000000e+00 -8.8360850e-03 0.0000000e+00 
0.0000000e+00 -2.3623491e-03 0.0000000e+00 
0.0000000e+00 2.6406655e-03 0.0000000e+00 
0.0000000e+00 6.1729583e-03 0.0000000e+00 
0.0000000e+00 8.2345288e-03 0.0000000e+00 
0.0000000e+00 8.8253785e-03 0.0000000e+00 
0.0000000e+00 7.9455059e-03 0.0000000e+00 
0.0000000e+00 5.5949111e-03 0.0000000e+00 
0.0000000e+00 1.7735949e-03 0.0000000e+00 
0.0000000e+00 -3.5184431e-03 0.0000000e+00 
0.0000000e+00 -1.0281203e-02 0.0000000e+00 
0.0000000e+00 -1.8514685e-02 0.0000000e+00 
0.0000000e+00 -9.8606991e-03 0.0000000e+00 
0.0000000e+00 -2.7976718e-03 0.0000000e+00 
0.0000000e+00 2.6743971e-03 0.0000000e+00 
0.0000000e+00 6.5555074e-03 0.0000000e+00 
0.0000000e+00 8.8456599e-03 0.0000000e+00 
0.0000000e+00 9.5448531e-03 0.0000000e+00 
0.0000000e+00 8.6530885e-03 0.0000000e+00 
0.0000000e+00 6.1703650e-03 0.0000000e+00 
0.0000000e+00 2.0966833e-03 0.0000000e+00 
0.0000000e+00 -3.5679569e-03 0.0000000e+00 
0.0000000e+00 -1.0823555e-02 0.0000000e+00 
0.0000000e+00 -1.9670112e-02 0.0000000e+00 
0.0000000e+00 -1.1665269e-02 0.0000000e+00 
0.0000000e+00 -5.0107082e-03 0.0000000e+00 
0.0000000e+00 2.9356845e-04 0.0000000e+00 
0.0000000e+00 4.2475616e-03 0.0000000e+00 
0.0000000e+00 6.8512708e-03 0.0000000e+00 
0.0000000e+00 8.1046969e-03 0.0000000e+00 
0.0000000e+00 8.0078393e-03 0.0000000e+00 
0.0000000e+00 6.5606977e-03 0.0000000e+00 
0.0000000e+00 3.7632727e-03 0.0000000e+00 
0.0000000e+00 -3.8443599e-04 0.0000000e+00 
0.0000000e+00 -5.8824280e-03 0.0000000e+00 
0.0000000e+00 -1.2730704e-02 0.0000000e+00 
0.0000000e+00 -2.5108736e-03 0.0000000e+00 
0.0000000e+00 5.3948411e-03 0.0000000e+00 
0.0000000e+00 1.0986440e-02 0.0000000e+00 
0.0000000e+00 1.4263923e-02 0.0000000e+00 