# vtk DataFile Version 4.0
vtk output
ASCII
DATASET UNSTRUCTURED_GRID
POINTS 30 float
0.0000000e+00 0.0000000e+00 0.0000000e+00 
0.0000000e+00 0.0000000e+00 8.0000001e-01 
0.0000000e+00 0.0000000e+00 1.6000000e+00 
0.0000000e+00 0.0000000e+00 2.4000001e+00 
0.0000000e+00 0.0000000e+00 3.2000000e+00 
0.0000000e+00 0.0000000e+00 4.0000000e+00 
0.0000000e+00 0.0000000e+00 4.8000002e+00 
0.0000000e+00 0.0000000e+00 5.5999999e+00 
0.0000000e+00 0.0000000e+00 6.4000001e+00 
0.0000000e+00 0.0000000e+00 7.1999998e+00 
0.0000000e+00 0.0000000e+00 8.0000000e+00 
1.0000000e+01 0.0000000e+00 0.0000000e+00 
1.0000000e+01 0.0000000e+00 8.0000001e-01 
1.0000000e+01 0.0000000e+00 1.6000000e+00 
1.0000000e+01 0.0000000e+00 2.4000001e+00 
1.0000000e+01 0.0000000e+00 3.2000000e+00 
1.0000000e+01 0.0000000e+00 4.0000000e+00 
1.0000000e+01 0.0000000e+00 4.8000002e+00 
1.0000000e+01 0.0000000e+00 5.5999999e+00 
1.0000000e+01 0.0000000e+00 6.4000001e+00 
1.0000000e+01 0.0000000e+00 7.1999998e+00 
1.0000000e+01 0.0000000e+00 8.0000000e+00 
2.0000000e+00 0.0000000e+00 4.0000000e+00 
4.0000000e+00 0.0000000e+00 4.0000000e+00 
6.0000000e+00 0.0000000e+00 4.0000000e+00 
8.0000000e+00 0.0000000e+00 4.0000000e+00 
2.0000000e+00 0.0000000e+00 8.0000000e+00 
4.0000000e+00 0.0000000e+00 8.0000000e+00 
6.0000000e+00 0.0000000e+00 8.0000000e+00 
8.0000000e+00 0.0000000e+00 8.0000000e+00 

CELLS 30 90
2 0 1
2 1 2
2 2 3
2 3 4
2 4 5
2 5 6
2 6 7
2 7 8
2 8 9
2 9 10
2 11 12
2 12 13
2 13 14
2 14 15
2 15 16
2 16 17
2 17 18
2 18 19
2 19 20
2 20 21
2 5 22
2 22 23
2 23 24
2 24 25
2 25 16
2 10 26
2 26 27
2 27 28
2 28 29
2 29 21

CELL_TYPES 30
3
3
3
3
3
3
3
3
3
3
3
3
3
3
3
3
3
3
3
3
3
3
3
3
3
3
3
3
3
3
POINT_DATA 30
FIELD FieldData 7
DISPLACEMENT 3 30  float
0.0000000e+00 0.0000000e+00 0.0000000e+00 
-3.1868918e-03 0.0000000e+00 -6.7601350e-06 
-6.2850080e-03 0.0000000e+00 -1.2412484e-05 
-9.2856782e-03 0.0000000e+00 -2.0366566e-05 
-1.2114596e-02 0.0000000e+00 -2.4959001e-05 
-1.4581886e-02 0.0000000e+00 -2.9551438e-05 
-1.6741715e-02 0.0000000e+00 -3.1878961e-05 
-1.8675819e-02 0.0000000e+00 -3.1901545e-05 
-2.0305518e-02 0.0000000e+00 -3.1924130e-05 
-2.1580566e-02 0.0000000e+00 -2.9521603e-05 
-2.2456238e-02 0.0000000e+00 -2.7119078e-05 
0.0000000e+00 0.0000000e+00 0.0000000e+00 
-3.6279787e-03 0.0000000e+00 -4.3051664e-06 
-7.0731509e-03 0.0000000e+00 -8.0079199e-06 
-1.0160076e-02 0.0000000e+00 -1.1710674e-05 
-1.2715154e-02 0.0000000e+00 -1.5413427e-05 
-1.4557852e-02 0.0000000e+00 -1.5823365e-05 
-1.6078461e-02 0.0000000e+00 -2.0456317e-05 
-1.7756186e-02 0.0000000e+00 -2.3062372e-05 
-1.9459283e-02 0.0000000e+00 -2.5668427e-05 
-2.1048618e-02 0.0000000e+00 -2.5965754e-05 
-2.2443978e-02 0.0000000e+00 -2.4209521e-05 
-1.4576248e-02 0.0000000e+00 3.7172697e-03 
-1.4573406e-02 0.0000000e+00 3.8425256e-03 
-1.4570566e-02 0.0000000e+00 1.6932653e-03 
-1.4564191e-02 0.0000000e+00 -6.9398381e-04 
-2.2451157e-02 0.0000000e+00 3.2838929e-04 
-2.2451272e-02 0.0000000e+00 -1.2764075e-03 
-2.2451388e-02 0.0000000e+00 -2.8522161e-03 
-2.2443961e-02 0.0000000e+00 -2.4963892e-03 
ROTATION 3 30  float
0.0000000e+00 -4.0071267e-03 0.0000000e+00 
0.0000000e+00 -3.9365911e-03 0.0000000e+00 
0.0000000e+00 -3.8152891e-03 0.0000000e+00 
0.0000000e+00 -3.6727011e-03 0.0000000e+00 
0.0000000e+00 -3.3548619e-03 0.0000000e+00 
0.0000000e+00 -2.7686318e-03 0.0000000e+00 
0.0000000e+00 -2.5863715e-03 0.0000000e+00 
0.0000000e+00 -2.2381316e-03 0.0000000e+00 
0.0000000e+00 -1.8253599e-03 0.0000000e+00 
0.0000000e+00 -1.3532308e-03 0.0000000e+00 
0.0000000e+00 -8.2691916e-04 0.0000000e+00 
0.0000000e+00 -4.5734416e-03 0.0000000e+00 
0.0000000e+00 -4.4580367e-03 0.0000000e+00 
0.0000000e+00 -4.1187271e-03 0.0000000e+00 
0.0000000e+00 -3.5624185e-03 0.0000000e+00 
0.0000000e+00 -2.7891111e-03 0.0000000e+00 
0.0000000e+00 -1.7727986e-03 0.0000000e+00 
0.0000000e+00 -2.0192266e-03 0.0000000e+00 
0.0000000e+00 -2.1440506e-03 0.0000000e+00 
0.0000000e+00 -2.0826524e-03 0.0000000e+00 
0.0000000e+00 -1.8719545e-03 0.0000000e+00 
0.0000000e+00 -1.6221381e-03 0.0000000e+00 
0.0000000e+00 -9.2281611e-04 0.0000000e+00 
0.0000000e+00 6.5178063e-04 0.0000000e+00 
0.0000000e+00 1.3517002e-03 0.0000000e+00 
0.0000000e+00 7.4618286e-04 0.0000000e+00 
0.0000000e+00 4.2882221e-04 0.0000000e+00 
0.0000000e+00 9.8556303e-04 0.0000000e+00 
0.0000000e+00 3.9983395e-04 0.0000000e+00 
0.0000000e+00 -7.5492647e-04 0.0000000e+00 
REACTION 3 30  float
6.9433394e+03 -0.0000000e+00 1.7745354e+04 
2.3646862e-11 -0.0000000e+00 -1.8189894e-12 
8.0490281e-10 -0.0000000e+00 -3.6379788e-12 
1.7880666e-09 -0.0000000e+00 7.2759576e-12 
-2.0954758e-09 -0.0000000e+00 7.2759576e-12 
1.5206751e-09 -0.0000000e+00 -2.1827873e-10 
2.2973836e-09 -0.0000000e+00 9.3405106e-10 
-1.6298145e-09 -0.0000000e+00 -5.8207661e-11 
-5.5297278e-10 -0.0000000e+00 1.4551915e-11 
-6.9849193e-10 -0.0000000e+00 -1.4551915e-11 
8.9676178e-10 -0.0000000e+00 -1.8189894e-11 
1.1360180e+04 -0.0000000e+00 1.1301062e+04 
-1.7280399e-10 -0.0000000e+00 -1.0913936e-11 
-1.8626451e-09 -0.0000000e+00 -7.2759576e-11 
-1.7462298e-09 -0.0000000e+00 5.8207661e-11 
4.9403752e-09 -0.0000000e+00 9.6406438e-11 
5.1059033e-09 -0.0000000e+00 1.5497790e-09 
-1.4661055e-09 -0.0000000e+00 9.0949470e-13 
-1.2805685e-09 -0.0000000e+00 -0.0000000e+00 
3.1832315e-10 -0.0000000e+00 2.4638211e-09 
8.1672624e-10 -0.0000000e+00 6.3664629e-12 
-2.7414444e-09 -0.0000000e+00 6.1663741e-10 
6.7984729e-10 -0.0000000e+00 -1.1477823e-09 
-1.8626451e-09 -0.0000000e+00 5.0931703e-11 
-6.2755134e-10 -0.0000000e+00 -5.0567905e-10 
-1.1841621e-09 -0.0000000e+00 1.3460522e-10 
-1.4842954e-09 -0.0000000e+00 3.6379788e-12 
-0.0000000e+00 -0.0000000e+00 2.1827873e-11 
4.1927706e-09 -0.0000000e+00 -2.5156623e-09 
-3.3505785e-09 -0.0000000e+00 -1.1823431e-11 
REACTION_MOMENT 3 30  float
-0.0000000e+00 -4.6566129e-10 -0.0000000e+00 
-0.0000000e+00 -3.4924597e-10 -0.0000000e+00 
-0.0000000e+00 -2.0954758e-09 -0.0000000e+00 
-0.0000000e+00 2.7357601e-09 -0.0000000e+00 
-0.0000000e+00 -1.6007107e-09 -0.0000000e+00 
-0.0000000e+00 -3.3105607e-09 -0.0000000e+00 
-0.0000000e+00 -3.6379788e-09 -0.0000000e+00 
-0.0000000e+00 2.5320332e-09 -0.0000000e+00 
-0.0000000e+00 -1.3096724e-10 -0.0000000e+00 
-0.0000000e+00 2.9394869e-09 -0.0000000e+00 
-0.0000000e+00 1.5934347e-09 -0.0000000e+00 
-0.0000000e+00 -0.0000000e+00 -0.0000000e+00 
-0.0000000e+00 2.3283064e-10 -0.0000000e+00 
-0.0000000e+00 1.7462298e-10 -0.0000000e+00 
-0.0000000e+00 5.2386895e-10 -0.0000000e+00 
-0.0000000e+00 -3.4924597e-10 -0.0000000e+00 
-0.0000000e+00 2.5465852e-10 -0.0000000e+00 
-0.0000000e+00 -5.8207661e-11 -0.0000000e+00 
-0.0000000e+00 -1.3969839e-09 -0.0000000e+00 
-0.0000000e+00 -0.0000000e+00 -0.0000000e+00 
-0.0000000e+00 4.9476512e-10 -0.0000000e+00 
-0.0000000e+00 2.0372681e-10 -0.0000000e+00 
-0.0000000e+00 -8.3673513e-11 -0.0000000e+00 
-0.0000000e+00 1.0913936e-10 -0.0000000e+00 
-0.0000000e+00 2.2191671e-10 -0.0000000e+00 
-0.0000000e+00 8.7311491e-11 -0.0000000e+00 
-0.0000000e+00 1.0913936e-11 -0.0000000e+00 
-0.0000000e+00 4.0017767e-11 -0.0000000e+00 
-0.0000000e+00 -0.0000000e+00 -0.0000000e+00 
-0.0000000e+00 7.2759576e-12 -0.0000000e+00 
VOLUME_ACCELERATION 3 30  float
0.0000000e+00 0.0000000e+00 0.0000000e+00 
0.0000000e+00 0.0000000e+00 0.0000000e+00 
0.0000000e+00 0.0000000e+00 0.0000000e+00 
0.0000000e+00 0.0000000e+00 0.0000000e+00 
0.0000000e+00 0.0000000e+00 0.0000000e+00 
0.0000000e+00 0.0000000e+00 0.0000000e+00 
0.0000000e+00 0.0000000e+00 0.0000000e+00 
0.0000000e+00 0.0000000e+00 0.0000000e+00 
0.0000000e+00 0.0000000e+00 0.0000000e+00 
0.0000000e+00 0.0000000e+00 0.0000000e+00 
0.0000000e+00 0.0000000e+00 0.0000000e+00 
0.0000000e+00 0.0000000e+00 0.0000000e+00 
0.0000000e+00 0.0000000e+00 0.0000000e+00 
0.0000000e+00 0.0000000e+00 0.0000000e+00 
0.0000000e+00 0.0000000e+00 0.0000000e+00 
0.0000000e+00 0.0000000e+00 0.0000000e+00 
0.0000000e+00 0.0000000e+00 0.0000000e+00 
0.0000000e+00 0.0000000e+00 0.0000000e+00 
0.0000000e+00 0.0000000e+00 0.0000000e+00 
0.0000000e+00 0.0000000e+00 0.0000000e+00 
0.0000000e+00 0.0000000e+00 0.0000000e+00 
0.0000000e+00 0.0000000e+00 0.0000000e+00 
0.0000000e+00 0.0000000e+00 0.0000000e+00 
0.0000000e+00 0.0000000e+00 0.0000000e+00 
0.0000000e+00 0.0000000e+00 0.0000000e+00 
0.0000000e+00 0.0000000e+00 0.0000000e+00 
0.0000000e+00 0.0000000e+00 0.0000000e+00 
0.0000000e+00 0.0000000e+00 0.0000000e+00 
0.0000000e+00 0.0000000e+00 0.0000000e+00 
0.0000000e+00 0.0000000e+00 0.0000000e+00 
POINT_LOAD 3 30  float
0.0000000e+00 0.0000000e+00 0.0000000e+00 
-8.8893779e+03 0.0000000e+00 -2.9079375e+03 
5.9874546e+03 0.0000000e+00 6.0420464e+03 
9.1684482e+03 0.0000000e+00 -8.8243184e+03 
0.0000000e+00 0.0000000e+00 0.0000000e+00 
-5.9681899e+03 0.0000000e+00 -8.5617832e+03 
-9.9862178e+03 0.0000000e+00 -6.0504619e+03 
0.0000000e+00 0.0000000e+00 0.0000000e+00 
-5.0939304e+02 0.0000000e+00 -6.3659126e+03 
0.0000000e+00 0.0000000e+00 0.0000000e+00 
-8.0026675e+03 0.0000000e+00 8.3189385e+03 
0.0000000e+00 0.0000000e+00 0.0000000e+00 
-6.7976080e+02 0.0000000e+00 -1.5813328e+03 
0.0000000e+00 0.0000000e+00 0.0000000e+00 
0.0000000e+00 0.0000000e+00 0.0000000e+00 
2.5599663e+03 0.0000000e+00 -8.6436406e+03 
-3.7797590e+03 0.0000000e+00 -5.3791084e+03 
6.3608457e+03 0.0000000e+00 -5.3205986e+03 
0.0000000e+00 0.0000000e+00 0.0000000e+00 
-3.6345566e+03 0.0000000e+00 -6.0604141e+03 
-7.2113906e+03 0.0000000e+00 -5.3905942e+03 
1.6629089e+03 0.0000000e+00 9.1042998e+03 
2.9381045e+03 0.0000000e+00 9.5044668e+03 
0.0000000e+00 0.0000000e+00 0.0000000e+00 
-3.7113894e+03 0.0000000e+00 6.7844629e+03 
3.8165798e+01 0.0000000e+00 2.7919688e+03 
5.4570664e+03 0.0000000e+00 6.9846401e+03 
0.0000000e+00 0.0000000e+00 0.0000000e+00 
-7.9180449e+03 0.0000000e+00 -9.0316553e+03 
7.8142681e+03 0.0000000e+00 -4.4594824e+03 
POINT_MOMENT 3 30  float
0.0000000e+00 0.0000000e+00 0.0000000e+00 
0.0000000e+00 0.0000000e+00 0.0000000e+00 
0.0000000e+00 0.0000000e+00 0.0000000e+00 
0.0000000e+00 0.0000000e+00 0.0000000e+00 
0.0000000e+00 0.0000000e+00 0.0000000e+00 
0.0000000e+00 0.0000000e+00 0.0000000e+00 
0.0000000e+00 0.0000000e+00 0.0000000e+00 
0.0000000e+00 0.0000000e+00 0.0000000e+00 
0.0000000e+00 0.0000000e+00 0.0000000e+00 
0.0000000e+00 0.0000000e+00 0.0000000e+00 
0.0000000e+00 0.0000000e+00 0.0000000e+00 
0.0000000e+00 0.0000000e+00 0.0000000e+00 
0.0000000e+00 0.0000000e+00 0.0000000e+00 
0.0000000e+00 0.0000000e+00 0.0000000e+00 
0.0000000e+00 0.0000000e+00 0.0000000e+00 
0.0000000e+00 0.0000000e+00 0.0000000e+00 
0.0000000e+00 0.0000000e+00 0.0000000e+00 
0.0000000e+00 0.0000000e+00 0.0000000e+00 
0.0000000e+00 0.0000000e+00 0.0000000e+00 
0.0000000e+00 0.0000000e+00 0.0000000e+00 
0.0000000e+00 0.0000000e+00 0.0000000e+00 
0.0000000e+00 0.0000000e+00 0.0000000e+00 
0.0000000e+00 0.0000000e+00 0.0000000e+00 
0.0000000e+00 0.0000000e+00 0.0000000e+00 
0.0000000e+00 0.0000000e+00 0.0000000e+00 
0.0000000e+00 0.0000000e+00 0.0000000e+00 
0.0000000e+00 0.0000000e+00 0.0000000e+00 
0.0000000e+00 0.0000000e+00 0.0000000e+00 
0.0000000e+00 0.0000000e+00 0.0000000e+00 
0.0000000e+00 0.0000000e+00 0.0000000e+00 
CELL_DATA 30
FIELD FieldData 9
YOUNG_MODULUS 1 30  float
2.1000000e+11
2.1000000e+11
2.1000000e+11
2.1000000e+11
2.1000000e+11
2.1000000e+11
2.1000000e+11
2.1000000e+11
2.1000000e+11
2.1000000e+11
2.1000000e+11
2.1000000e+11
2.1000000e+11
2.1000000e+11
2.1000000e+11
2.1000000e+11
2.1000000e+11
2.1000000e+11
2.1000000e+11
2.1000000e+11
2.1000000e+11
2.1000000e+11
2.1000000e+11
2.1000000e+11
2.1000000e+11
2.1000000e+11
2.1000000e+11
2.1000000e+11
2.1000000e+11
2.1000000e+11
DENSITY 1 30  float
7.8500000e+03
7.8500000e+03
7.8500000e+03
7.8500000e+03
7.8500000e+03
7.8500000e+03
7.8500000e+03
7.8500000e+03
7.8500000e+03
7.8500000e+03
7.8500000e+03
7.8500000e+03
7.8500000e+03
7.8500000e+03
7.8500000e+03
7.8500000e+03
7.8500000e+03
7.8500000e+03
7.8500000e+03
7.8500000e+03
7.8500000e+03
7.8500000e+03
7.8500000e+03
7.8500000e+03
7.8500000e+03
7.8500000e+03
7.8500000e+03
7.8500000e+03
7.8500000e+03
7.8500000e+03
CROSS_AREA 1 30  float
9.9999998e-03
9.9999998e-03
9.9999998e-03
9.9999998e-03
9.9999998e-03
9.9999998e-03
9.9999998e-03
9.9999998e-03
9.9999998e-03
9.9999998e-03
9.9999998e-03
9.9999998e-03
9.9999998e-03
9.9999998e-03
9.9999998e-03
9.9999998e-03
9.9999998e-03
9.9999998e-03
9.9999998e-03
9.9999998e-03
9.9999998e-03
9.9999998e-03
9.9999998e-03
9.9999998e-03
9.9999998e-03
9.9999998e-03
9.9999998e-03
9.9999998e-03
9.9999998e-03
9.9999998e-03
I22 1 30  float
1.5000001e-04
1.5000001e-04
1.5000001e-04
1.5000001e-04
1.5000001e-04
1.5000001e-04
1.5000001e-04
1.5000001e-04
1.5000001e-04
1.5000001e-04
1.5000001e-04
1.5000001e-04
1.5000001e-04
1.5000001e-04
1.5000001e-04
1.5000001e-04
1.5000001e-04
1.5000001e-04
1.5000001e-04
1.5000001e-04
1.5000001e-04
1.5000001e-04
1.5000001e-04
1.5000001e-04
1.5000001e-04
1.5000001e-04
1.5000001e-04
1.5000001e-04
1.5000001e-04
1.5000001e-04
I33 1 30  float
1.5000001e-04
1.5000001e-04
1.5000001e-04
1.5000001e-04
1.5000001e-04
1.5000001e-04
1.5000001e-04
1.5000001e-04
1.5000001e-04
1.5000001e-04
1.5000001e-04
1.5000001e-04
1.5000001e-04
1.5000001e-04
1.5000001e-04
1.5000001e-04
1.5000001e-04
1.5000001e-04
1.5000001e-04
1.5000001e-04
1.5000001e-04
1.5000001e-04
1.5000001e-04
1.5000001e-04
1.5000001e-04
1.5000001e-04
1.5000001e-04
1.5000001e-04
1.5000001e-04
1.5000001e-04
TORSIONAL_INERTIA 1 30  float
3.0000001e-04
3.0000001e-04
3.0000001e-04
3.0000001e-04
3.0000001e-04
3.0000001e-04
3.0000001e-04
3.0000001e-04
3.0000001e-04
3.0000001e-04
3.0000001e-04
3.0000001e-04
3.0000001e-04
3.0000001e-04
3.0000001e-04
3.0000001e-04
3.0000001e-04
3.0000001e-04
3.0000001e-04
3.0000001e-04
3.0000001e-04
3.0000001e-04
3.0000001e-04
3.0000001e-04
3.0000001e-04
3.0000001e-04
3.0000001e-04
3.0000001e-04
3.0000001e-04
3.0000001e-04
POISSON_RATIO 1 30  float
3.0000001e-01
3.0000001e-01
3.0000001e-01
3.0000001e-01
3.0000001e-01
3.0000001e-01
3.0000001e-01
3.0000001e-01
3.0000001e-01
3.0000001e-01
3.0000001e-01
3.0000001e-01
3.0000001e-01
3.0000001e-01
3.0000001e-01
3.0000001e-01
3.0000001e-01
3.0000001e-01
3.0000001e-01
3.0000001e-01
3.0000001e-01
3.0000001e-01
3.0000001e-01
3.0000001e-01
3.0000001e-01
3.0000001e-01
3.0000001e-01
3.0000001e-01
3.0000001e-01
3.0000001e-01
MOMENT 3 30  float
0.0000000e+00 2.7773357e+03 0.0000000e+00 
0.0000000e+00 4.7762559e+03 0.0000000e+00 
0.0000000e+00 5.6144067e+03 0.0000000e+00 
0.0000000e+00 1.2514919e+04 0.0000000e+00 
0.0000000e+00 2.3082811e+04 0.0000000e+00 
0.0000000e+00 7.1765034e+03 0.0000000e+00 
0.0000000e+00 1.3711940e+04 0.0000000e+00 
0.0000000e+00 1.6252891e+04 0.0000000e+00 
0.0000000e+00 1.8590084e+04 0.0000000e+00 
0.0000000e+00 2.0723520e+04 0.0000000e+00 
0.0000000e+00 4.5440723e+03 0.0000000e+00 
0.0000000e+00 1.3360312e+04 0.0000000e+00 
0.0000000e+00 2.1904646e+04 0.0000000e+00 
0.0000000e+00 3.0448982e+04 0.0000000e+00 
0.0000000e+00 4.0017305e+04 0.0000000e+00 
0.0000000e+00 -9.7031035e+03 0.0000000e+00 
0.0000000e+00 -4.9149443e+03 0.0000000e+00 
0.0000000e+00 2.4175537e+03 0.0000000e+00 
0.0000000e+00 8.2962285e+03 0.0000000e+00 
0.0000000e+00 9.8365254e+03 0.0000000e+00 
0.0000000e+00 2.9071598e+04 0.0000000e+00 
0.0000000e+00 2.4799898e+04 0.0000000e+00 
0.0000000e+00 1.1023732e+04 0.0000000e+00 
0.0000000e+00 -9.5368975e+03 0.0000000e+00 
0.0000000e+00 -3.9673957e+04 0.0000000e+00 
0.0000000e+00 1.9777926e+04 0.0000000e+00 
0.0000000e+00 8.7686670e+03 0.0000000e+00 
0.0000000e+00 -9.2252324e+03 0.0000000e+00 
0.0000000e+00 -1.8187477e+04 0.0000000e+00 
0.0000000e+00 -1.3658583e+04 0.0000000e+00 
FORCE 3 30  float
-1.7745354e+04 0.0000000e+00 6.9433394e+03 
-1.4837417e+04 0.0000000e+00 -1.9460389e+03 
-2.0879463e+04 0.0000000e+00 4.0414155e+03 
-1.2055146e+04 0.0000000e+00 1.3209864e+04 
-1.2055146e+04 0.0000000e+00 1.3209864e+04 
-6.1097461e+03 0.0000000e+00 1.3162405e+04 
-5.9283955e+01 0.0000000e+00 3.1761875e+03 
-5.9283955e+01 0.0000000e+00 3.1761875e+03 
6.3066284e+03 0.0000000e+00 2.6667944e+03 
6.3066284e+03 0.0000000e+00 2.6667944e+03 
-1.1301062e+04 0.0000000e+00 1.1360180e+04 
-9.7197285e+03 0.0000000e+00 1.0680419e+04 
-9.7197285e+03 0.0000000e+00 1.0680419e+04 
-9.7197285e+03 0.0000000e+00 1.0680419e+04 
-1.0760883e+03 0.0000000e+00 1.3240386e+04 
-1.2161495e+04 0.0000000e+00 2.8047766e+03 
-6.8408960e+03 0.0000000e+00 9.1656221e+03 
-6.8408960e+03 0.0000000e+00 9.1656221e+03 
-7.8048218e+02 0.0000000e+00 5.5310654e+03 
4.6101118e+03 0.0000000e+00 -1.6803250e+03 
5.9207310e+03 0.0000000e+00 2.6163835e+03 
2.9826265e+03 0.0000000e+00 -6.8880830e+03 
2.9826265e+03 0.0000000e+00 -6.8880830e+03 
6.6940161e+03 0.0000000e+00 -1.3672546e+04 
6.6558501e+03 0.0000000e+00 -1.6464516e+04 
5.3358730e+03 0.0000000e+00 -2.0123098e+03 
-1.2119317e+02 0.0000000e+00 -8.9969502e+03 
-1.2119317e+02 0.0000000e+00 -8.9969502e+03 
7.7968521e+03 0.0000000e+00 3.4705578e+01 
-1.7416025e+01 0.0000000e+00 4.4941880e+03 
