# vtk DataFile Version 4.0
vtk output
ASCII
DATASET UNSTRUCTURED_GRID
POINTS 22 float
0.0000000e+00 0.0000000e+00 0.0000000e+00 
1.0000000e-01 0.0000000e+00 0.0000000e+00 
2.0000000e-01 0.0000000e+00 0.0000000e+00 
3.0000001e-01 0.0000000e+00 0.0000000e+00 
4.0000001e-01 0.0000000e+00 0.0000000e+00 
5.0000000e-01 0.0000000e+00 0.0000000e+00 
6.0000002e-01 0.0000000e+00 0.0000000e+00 
6.9999999e-01 0.0000000e+00 0.0000000e+00 
8.0000001e-01 0.0000000e+00 0.0000000e+00 
8.9999998e-01 0.0000000e+00 0.0000000e+00 
1.0000000e+00 0.0000000e+00 0.0000000e+00 
1.0000000e+00 0.0000000e+00 0.0000000e+00 
1.1000000e+00 0.0000000e+00 0.0000000e+00 
1.2000000e+00 0.0000000e+00 0.0000000e+00 
1.3000000e+00 0.0000000e+00 0.0000000e+00 
1.4000000e+00 0.0000000e+00 0.0000000e+00 
1.5000000e+00 0.0000000e+00 0.0000000e+00 
1.6000000e+00 0.0000000e+00 0.0000000e+00 
1.7000000e+00 0.0000000e+00 0.0000000e+00 
1.8000000e+00 0.0000000e+00 0.0000000e+00 
1.9000000e+00 0.0000000e+00 0.0000000e+00 
2.0000000e+00 0.0000000e+00 0.0000000e+00 

CELLS 20 60
2 0 1
2 1 2
2 2 3
2 3 4
2 4 5
2 5 6
2 6 7
2 7 8
2 8 9
2 9 10
2 11 12
2 12 13
2 13 14
2 14 15
2 15 16
2 16 17
2 17 18
2 18 19
2 19 20
2 20 21

CELL_TYPES 20
3
3
3
3
3
3
3
3
3
3
3
3
3
3
3
3
3
3
3
3
POINT_DATA 22
FIELD FieldData 4
DISPLACEMENT 3 22  float
0.0000000e+00 0.0000000e+00 0.0000000e+00 
2.4825784e-12 -2.5000000e-07 0.0000000e+00 
4.9651568e-12 -1.0000000e-06 0.0000000e+00 
7.4477351e-12 -2.2500001e-06 0.0000000e+00 
9.9303135e-12 -4.0000000e-06 0.0000000e+00 
1.2412892e-11 -6.2499998e-06 0.0000000e+00 
1.4895470e-11 -9.0000003e-06 0.0000000e+00 
1.7378049e-11 -1.2250000e-05 0.0000000e+00 
1.9860627e-11 -1.6000000e-05 0.0000000e+00 
2.2343205e-11 -2.0250000e-05 0.0000000e+00 
2.4825784e-11 -2.4999999e-05 0.0000000e+00 
2.4825784e-11 -2.4999999e-05 0.0000000e+00 
-2.2343205e-11 -2.0250000e-05 0.0000000e+00 
-1.9860627e-11 -1.6000000e-05 0.0000000e+00 
-1.7378049e-11 -1.2250000e-05 0.0000000e+00 
-1.4895470e-11 -9.0000003e-06 0.0000000e+00 
-1.2412892e-11 -6.2499998e-06 0.0000000e+00 
-9.9303135e-12 -4.0000000e-06 0.0000000e+00 
-7.4477351e-12 -2.2500001e-06 0.0000000e+00 
-4.9651568e-12 -1.0000000e-06 0.0000000e+00 
-2.4825784e-12 -2.5000000e-07 0.0000000e+00 
0.0000000e+00 0.0000000e+00 0.0000000e+00 
ROTATION 3 22  float
0.0000000e+00 0.0000000e+00 0.0000000e+00 
0.0000000e+00 0.0000000e+00 -4.9999999e-06 
0.0000000e+00 0.0000000e+00 -9.9999997e-06 
0.0000000e+00 0.0000000e+00 -1.5000000e-05 
0.0000000e+00 0.0000000e+00 -1.9999999e-05 
0.0000000e+00 0.0000000e+00 -2.4999999e-05 
0.0000000e+00 0.0000000e+00 -2.9999999e-05 
0.0000000e+00 0.0000000e+00 -3.5000001e-05 
0.0000000e+00 0.0000000e+00 -3.9999999e-05 
0.0000000e+00 0.0000000e+00 -4.5000001e-05 
0.0000000e+00 0.0000000e+00 -4.9999999e-05 
0.0000000e+00 0.0000000e+00 4.9999999e-05 
0.0000000e+00 0.0000000e+00 4.5000001e-05 
0.0000000e+00 0.0000000e+00 3.9999999e-05 
0.0000000e+00 0.0000000e+00 3.5000001e-05 
0.0000000e+00 0.0000000e+00 2.9999999e-05 
0.0000000e+00 0.0000000e+00 2.4999999e-05 
0.0000000e+00 0.0000000e+00 1.9999999e-05 
0.0000000e+00 0.0000000e+00 1.5000000e-05 
0.0000000e+00 0.0000000e+00 9.9999997e-06 
0.0000000e+00 0.0000000e+00 4.9999999e-06 
0.0000000e+00 0.0000000e+00 0.0000000e+00 
REACTION 3 22  float
-1.6845968e-02 2.5212046e-04 0.0000000e+00 
-1.5067413e-02 5.0715171e-04 0.0000000e+00 
-3.0135076e-02 5.1308627e-04 0.0000000e+00 
-4.5202490e-02 5.1840750e-04 0.0000000e+00 
-6.0269900e-02 5.2451430e-04 0.0000000e+00 
-7.5337917e-02 -1.2186660e-02 0.0000000e+00 
-9.0404540e-02 1.3253514e-02 0.0000000e+00 
-1.0547291e-01 -8.7829884e-03 0.0000000e+00 
-1.2053988e-01 1.6465253e-03 0.0000000e+00 
-1.3560738e-01 1.4218278e-03 0.0000000e+00 
6.9488347e-01 2.3325009e-03 0.0000000e+00 
-3.9563361e-01 2.4784899e-03 0.0000000e+00 
-1.6364250e-01 1.3620099e-03 0.0000000e+00 
1.2053989e-01 1.5964455e-03 0.0000000e+00 
1.0547291e-01 -8.8224364e-03 0.0000000e+00 
9.0404540e-02 1.3224977e-02 0.0000000e+00 
7.5337917e-02 -1.2204845e-02 0.0000000e+00 
6.0269900e-02 5.1724009e-04 0.0000000e+00 
4.5202486e-02 5.2176480e-04 0.0000000e+00 
3.0135075e-02 5.2679528e-04 0.0000000e+00 
1.5067413e-02 5.3205178e-04 0.0000000e+00 
1.6845968e-02 2.6750818e-04 0.0000000e+00 
REACTION_MOMENT 3 22  float
0.0000000e+00 0.0000000e+00 5.2500011e+01 
0.0000000e+00 0.0000000e+00 5.0532653e-05 
0.0000000e+00 0.0000000e+00 1.0150719e-04 
0.0000000e+00 0.0000000e+00 1.5299932e-04 
0.0000000e+00 0.0000000e+00 2.0499504e-04 
0.0000000e+00 0.0000000e+00 -3.7835303e-04 
0.0000000e+00 0.0000000e+00 -3.2536409e-04 
0.0000000e+00 0.0000000e+00 -1.0232718e-04 
0.0000000e+00 0.0000000e+00 -4.5979791e-04 
0.0000000e+00 0.0000000e+00 -3.0720865e-04 
-0.0000000e+00 -0.0000000e+00 -5.2500118e+01 
0.0000000e+00 0.0000000e+00 5.2500126e+01 
0.0000000e+00 0.0000000e+00 3.1819651e-04 
0.0000000e+00 0.0000000e+00 4.6586659e-04 
0.0000000e+00 0.0000000e+00 1.0391943e-04 
0.0000000e+00 0.0000000e+00 3.2355706e-04 
0.0000000e+00 0.0000000e+00 3.7420986e-04 
0.0000000e+00 0.0000000e+00 -2.1041118e-04 
0.0000000e+00 0.0000000e+00 -1.5861129e-04 
0.0000000e+00 0.0000000e+00 -1.0626585e-04 
0.0000000e+00 0.0000000e+00 -5.3360855e-05 
0.0000000e+00 0.0000000e+00 -5.2500011e+01 
CELL_DATA 20
FIELD FieldData 2
MOMENT 3 20  float
0.0000000e+00 0.0000000e+00 5.2500000e+01 
0.0000000e+00 0.0000000e+00 5.2500000e+01 
0.0000000e+00 0.0000000e+00 5.2500000e+01 
0.0000000e+00 0.0000000e+00 5.2500000e+01 
0.0000000e+00 0.0000000e+00 5.2500000e+01 
0.0000000e+00 0.0000000e+00 5.2500000e+01 
0.0000000e+00 0.0000000e+00 5.2500000e+01 
0.0000000e+00 0.0000000e+00 5.2500000e+01 
0.0000000e+00 0.0000000e+00 5.2500000e+01 
0.0000000e+00 0.0000000e+00 5.2500000e+01 
0.0000000e+00 0.0000000e+00 5.2500000e+01 
0.0000000e+00 0.0000000e+00 5.2500000e+01 
0.0000000e+00 0.0000000e+00 5.2500000e+01 
0.0000000e+00 0.0000000e+00 5.2500000e+01 
0.0000000e+00 0.0000000e+00 5.2500000e+01 
0.0000000e+00 0.0000000e+00 5.2500000e+01 
0.0000000e+00 0.0000000e+00 5.2500000e+01 
0.0000000e+00 0.0000000e+00 5.2500000e+01 
0.0000000e+00 0.0000000e+00 5.2500000e+01 
0.0000000e+00 0.0000000e+00 5.2500000e+01 
FORCE 3 20  float
1.6845969e-02 -2.5207835e-04 0.0000000e+00 
3.1913385e-02 -7.5903285e-04 0.0000000e+00 
6.2048472e-02 -1.2715828e-03 0.0000000e+00 
1.0725097e-01 -1.7888891e-03 0.0000000e+00 
1.6752090e-01 -2.3115110e-03 0.0000000e+00 
2.4285848e-01 9.8780580e-03 0.0000000e+00 
3.3326340e-01 -3.3713032e-03 0.0000000e+00 
4.3873599e-01 5.4173064e-03 0.0000000e+00 
5.5927593e-01 3.7780979e-03 0.0000000e+00 
6.9488335e-01 2.3655079e-03 0.0000000e+00 
3.9563349e-01 -2.4972823e-03 0.0000000e+00 
5.5927593e-01 -3.8642690e-03 0.0000000e+00 
4.3873599e-01 -5.4533975e-03 0.0000000e+00 
3.3326340e-01 3.3746606e-03 0.0000000e+00 
2.4285848e-01 -9.8461639e-03 0.0000000e+00 
1.6752090e-01 2.3615910e-03 0.0000000e+00 
1.0725097e-01 1.8462432e-03 0.0000000e+00 
6.2048472e-02 1.3255796e-03 0.0000000e+00 
3.1913385e-02 7.9932064e-04 0.0000000e+00 
1.6845969e-02 2.6746604e-04 0.0000000e+00 
