# vtk DataFile Version 4.0
vtk output
ASCII
DATASET UNSTRUCTURED_GRID
POINTS 212 float
0.0000000e+00 0.0000000e+00 0.0000000e+00 
0.0000000e+00 0.0000000e+00 2.5000000e-01 
0.0000000e+00 0.0000000e+00 5.0000000e-01 
0.0000000e+00 0.0000000e+00 7.5000000e-01 
0.0000000e+00 0.0000000e+00 1.0000000e+00 
0.0000000e+00 0.0000000e+00 1.2500000e+00 
0.0000000e+00 0.0000000e+00 1.5000000e+00 
0.0000000e+00 0.0000000e+00 1.7500000e+00 
0.0000000e+00 0.0000000e+00 2.0000000e+00 
0.0000000e+00 0.0000000e+00 2.2500000e+00 
0.0000000e+00 0.0000000e+00 2.5000000e+00 
0.0000000e+00 0.0000000e+00 2.7500000e+00 
0.0000000e+00 0.0000000e+00 3.0000000e+00 
0.0000000e+00 0.0000000e+00 3.2500000e+00 
0.0000000e+00 0.0000000e+00 3.5000000e+00 
0.0000000e+00 0.0000000e+00 3.7500000e+00 
0.0000000e+00 0.0000000e+00 4.0000000e+00 
0.0000000e+00 0.0000000e+00 4.2500000e+00 
0.0000000e+00 0.0000000e+00 4.5000000e+00 
0.0000000e+00 0.0000000e+00 4.7500000e+00 
0.0000000e+00 0.0000000e+00 5.0000000e+00 
0.0000000e+00 0.0000000e+00 5.2500000e+00 
0.0000000e+00 0.0000000e+00 5.5000000e+00 
0.0000000e+00 0.0000000e+00 5.7500000e+00 
0.0000000e+00 0.0000000e+00 6.0000000e+00 
0.0000000e+00 0.0000000e+00 6.2500000e+00 
0.0000000e+00 0.0000000e+00 6.5000000e+00 
0.0000000e+00 0.0000000e+00 6.7500000e+00 
0.0000000e+00 0.0000000e+00 7.0000000e+00 
0.0000000e+00 0.0000000e+00 7.2500000e+00 
0.0000000e+00 0.0000000e+00 7.5000000e+00 
0.0000000e+00 0.0000000e+00 7.7500000e+00 
0.0000000e+00 0.0000000e+00 8.0000000e+00 
0.0000000e+00 0.0000000e+00 8.2500000e+00 
0.0000000e+00 0.0000000e+00 8.5000000e+00 
0.0000000e+00 0.0000000e+00 8.7500000e+00 
0.0000000e+00 0.0000000e+00 9.0000000e+00 
0.0000000e+00 0.0000000e+00 9.2500000e+00 
0.0000000e+00 0.0000000e+00 9.5000000e+00 
0.0000000e+00 0.0000000e+00 9.7500000e+00 
0.0000000e+00 0.0000000e+00 1.0000000e+01 
0.0000000e+00 0.0000000e+00 1.0250000e+01 
0.0000000e+00 0.0000000e+00 1.0500000e+01 
0.0000000e+00 0.0000000e+00 1.0750000e+01 
0.0000000e+00 0.0000000e+00 1.1000000e+01 
0.0000000e+00 0.0000000e+00 1.1250000e+01 
0.0000000e+00 0.0000000e+00 1.1500000e+01 
0.0000000e+00 0.0000000e+00 1.1750000e+01 
0.0000000e+00 0.0000000e+00 1.2000000e+01 
0.0000000e+00 0.0000000e+00 1.2250000e+01 
0.0000000e+00 0.0000000e+00 1.2500000e+01 
0.0000000e+00 0.0000000e+00 1.2750000e+01 
0.0000000e+00 0.0000000e+00 1.3000000e+01 
0.0000000e+00 0.0000000e+00 1.3250000e+01 
0.0000000e+00 0.0000000e+00 1.3500000e+01 
0.0000000e+00 0.0000000e+00 1.3750000e+01 
0.0000000e+00 0.0000000e+00 1.4000000e+01 
0.0000000e+00 0.0000000e+00 1.4250000e+01 
0.0000000e+00 0.0000000e+00 1.4500000e+01 
0.0000000e+00 0.0000000e+00 1.4750000e+01 
0.0000000e+00 0.0000000e+00 1.5000000e+01 
0.0000000e+00 0.0000000e+00 1.5250000e+01 
0.0000000e+00 0.0000000e+00 1.5500000e+01 
0.0000000e+00 0.0000000e+00 1.5750000e+01 
0.0000000e+00 0.0000000e+00 1.6000000e+01 
0.0000000e+00 0.0000000e+00 1.6250000e+01 
0.0000000e+00 0.0000000e+00 1.6500000e+01 
0.0000000e+00 0.0000000e+00 1.6750000e+01 
0.0000000e+00 0.0000000e+00 1.7000000e+01 
0.0000000e+00 0.0000000e+00 1.7250000e+01 
0.0000000e+00 0.0000000e+00 1.7500000e+01 
0.0000000e+00 0.0000000e+00 1.7750000e+01 
0.0000000e+00 0.0000000e+00 1.8000000e+01 
5.0000000e-01 0.0000000e+00 3.0000000e+00 
5.0000000e-01 0.0000000e+00 6.0000000e+00 
5.0000000e-01 0.0000000e+00 9.0000000e+00 
5.0000000e-01 0.0000000e+00 1.2000000e+01 
5.0000000e-01 0.0000000e+00 1.5000000e+01 
5.0000000e-01 0.0000000e+00 1.8000000e+01 
1.0000000e+00 0.0000000e+00 3.0000000e+00 
1.0000000e+00 0.0000000e+00 6.0000000e+00 
1.0000000e+00 0.0000000e+00 9.0000000e+00 
1.0000000e+00 0.0000000e+00 1.2000000e+01 
1.0000000e+00 0.0000000e+00 1.5000000e+01 
1.0000000e+00 0.0000000e+00 1.8000000e+01 
1.5000000e+00 0.0000000e+00 3.0000000e+00 
1.5000000e+00 0.0000000e+00 6.0000000e+00 
1.5000000e+00 0.0000000e+00 9.0000000e+00 
1.5000000e+00 0.0000000e+00 1.2000000e+01 
1.5000000e+00 0.0000000e+00 1.5000000e+01 
1.5000000e+00 0.0000000e+00 1.8000000e+01 
2.0000000e+00 0.0000000e+00 3.0000000e+00 
2.0000000e+00 0.0000000e+00 6.0000000e+00 
2.0000000e+00 0.0000000e+00 9.0000000e+00 
2.0000000e+00 0.0000000e+00 1.2000000e+01 
2.0000000e+00 0.0000000e+00 1.5000000e+01 
2.0000000e+00 0.0000000e+00 1.8000000e+01 
2.5000000e+00 0.0000000e+00 3.0000000e+00 
2.5000000e+00 0.0000000e+00 6.0000000e+00 
2.5000000e+00 0.0000000e+00 9.0000000e+00 
2.5000000e+00 0.0000000e+00 1.2000000e+01 
2.5000000e+00 0.0000000e+00 1.5000000e+01 
2.5000000e+00 0.0000000e+00 1.8000000e+01 
3.0000000e+00 0.0000000e+00 3.0000000e+00 
3.0000000e+00 0.0000000e+00 6.0000000e+00 
3.0000000e+00 0.0000000e+00 9.0000000e+00 
3.0000000e+00 0.0000000e+00 1.2000000e+01 
3.0000000e+00 0.0000000e+00 1.5000000e+01 
3.0000000e+00 0.0000000e+00 1.8000000e+01 
3.5000000e+00 0.0000000e+00 3.0000000e+00 
3.5000000e+00 0.0000000e+00 6.0000000e+00 
3.5000000e+00 0.0000000e+00 9.0000000e+00 
3.5000000e+00 0.0000000e+00 1.2000000e+01 
3.5000000e+00 0.0000000e+00 1.5000000e+01 
3.5000000e+00 0.0000000e+00 1.8000000e+01 
4.0000000e+00 0.0000000e+00 3.0000000e+00 
4.0000000e+00 0.0000000e+00 6.0000000e+00 
4.0000000e+00 0.0000000e+00 9.0000000e+00 
4.0000000e+00 0.0000000e+00 1.2000000e+01 
4.0000000e+00 0.0000000e+00 1.5000000e+01 
4.0000000e+00 0.0000000e+00 1.8000000e+01 
4.5000000e+00 0.0000000e+00 3.0000000e+00 
4.5000000e+00 0.0000000e+00 6.0000000e+00 
4.5000000e+00 0.0000000e+00 9.0000000e+00 
4.5000000e+00 0.0000000e+00 1.2000000e+01 
4.5000000e+00 0.0000000e+00 1.5000000e+01 
4.5000000e+00 0.0000000e+00 1.8000000e+01 
5.0000000e+00 0.0000000e+00 3.0000000e+00 
5.0000000e+00 0.0000000e+00 6.0000000e+00 
5.0000000e+00 0.0000000e+00 9.0000000e+00 
5.0000000e+00 0.0000000e+00 1.2000000e+01 
5.0000000e+00 0.0000000e+00 1.5000000e+01 
5.0000000e+00 0.0000000e+00 1.8000000e+01 
5.5000000e+00 0.0000000e+00 3.0000000e+00 
5.5000000e+00 0.0000000e+00 6.0000000e+00 
5.5000000e+00 0.0000000e+00 9.0000000e+00 
5.5000000e+00 0.0000000e+00 1.2000000e+01 
5.5000000e+00 0.0000000e+00 1.5000000e+01 
5.5000000e+00 0.0000000e+00 1.8000000e+01 
6.0000000e+00 0.0000000e+00 0.0000000e+00 
6.0000000e+00 0.0000000e+00 2.5000000e-01 
6.0000000e+00 0.0000000e+00 5.0000000e-01 
6.0000000e+00 0.0000000e+00 7.5000000e-01 
6.0000000e+00 0.0000000e+00 1.0000000e+00 
6.0000000e+00 0.0000000e+00 1.2500000e+00 
6.0000000e+00 0.0000000e+00 1.5000000e+00 
6.0000000e+00 0.0000000e+00 1.7500000e+00 
6.0000000e+00 0.0000000e+00 2.0000000e+00 
6.0000000e+00 0.0000000e+00 2.2500000e+00 
6.0000000e+00 0.0000000e+00 2.5000000e+00 
6.0000000e+00 0.0000000e+00 2.7500000e+00 
6.0000000e+00 0.0000000e+00 3.0000000e+00 
6.0000000e+00 0.0000000e+00 3.2500000e+00 
6.0000000e+00 0.0000000e+00 3.5000000e+00 
6.0000000e+00 0.0000000e+00 3.7500000e+00 
6.0000000e+00 0.0000000e+00 4.0000000e+00 
6.0000000e+00 0.0000000e+00 4.2500000e+00 
6.0000000e+00 0.0000000e+00 4.5000000e+00 
6.0000000e+00 0.0000000e+00 4.7500000e+00 
6.0000000e+00 0.0000000e+00 5.0000000e+00 
6.0000000e+00 0.0000000e+00 5.2500000e+00 
6.0000000e+00 0.0000000e+00 5.5000000e+00 
6.0000000e+00 0.0000000e+00 5.7500000e+00 
6.0000000e+00 0.0000000e+00 6.0000000e+00 
6.0000000e+00 0.0000000e+00 6.2500000e+00 
6.0000000e+00 0.0000000e+00 6.5000000e+00 
6.0000000e+00 0.0000000e+00 6.7500000e+00 
6.0000000e+00 0.0000000e+00 7.0000000e+00 
6.0000000e+00 0.0000000e+00 7.2500000e+00 
6.0000000e+00 0.0000000e+00 7.5000000e+00 
6.0000000e+00 0.0000000e+00 7.7500000e+00 
6.0000000e+00 0.0000000e+00 8.0000000e+00 
6.0000000e+00 0.0000000e+00 8.2500000e+00 
6.0000000e+00 0.0000000e+00 8.5000000e+00 
6.0000000e+00 0.0000000e+00 8.7500000e+00 
6.0000000e+00 0.0000000e+00 9.0000000e+00 
6.0000000e+00 0.0000000e+00 9.2500000e+00 
6.0000000e+00 0.0000000e+00 9.5000000e+00 
6.0000000e+00 0.0000000e+00 9.7500000e+00 
6.0000000e+00 0.0000000e+00 1.0000000e+01 
6.0000000e+00 0.0000000e+00 1.0250000e+01 
6.0000000e+00 0.0000000e+00 1.0500000e+01 
6.0000000e+00 0.0000000e+00 1.0750000e+01 
6.0000000e+00 0.0000000e+00 1.1000000e+01 
6.0000000e+00 0.0000000e+00 1.1250000e+01 
6.0000000e+00 0.0000000e+00 1.1500000e+01 
6.0000000e+00 0.0000000e+00 1.1750000e+01 
6.0000000e+00 0.0000000e+00 1.2000000e+01 
6.0000000e+00 0.0000000e+00 1.2250000e+01 
6.0000000e+00 0.0000000e+00 1.2500000e+01 
6.0000000e+00 0.0000000e+00 1.2750000e+01 
6.0000000e+00 0.0000000e+00 1.3000000e+01 
6.0000000e+00 0.0000000e+00 1.3250000e+01 
6.0000000e+00 0.0000000e+00 1.3500000e+01 
6.0000000e+00 0.0000000e+00 1.3750000e+01 
6.0000000e+00 0.0000000e+00 1.4000000e+01 
6.0000000e+00 0.0000000e+00 1.4250000e+01 
6.0000000e+00 0.0000000e+00 1.4500000e+01 
6.0000000e+00 0.0000000e+00 1.4750000e+01 
6.0000000e+00 0.0000000e+00 1.5000000e+01 
6.0000000e+00 0.0000000e+00 1.5250000e+01 
6.0000000e+00 0.0000000e+00 1.5500000e+01 
6.0000000e+00 0.0000000e+00 1.5750000e+01 
6.0000000e+00 0.0000000e+00 1.6000000e+01 
6.0000000e+00 0.0000000e+00 1.6250000e+01 
6.0000000e+00 0.0000000e+00 1.6500000e+01 
6.0000000e+00 0.0000000e+00 1.6750000e+01 
6.0000000e+00 0.0000000e+00 1.7000000e+01 
6.0000000e+00 0.0000000e+00 1.7250000e+01 
6.0000000e+00 0.0000000e+00 1.7500000e+01 
6.0000000e+00 0.0000000e+00 1.7750000e+01 
6.0000000e+00 0.0000000e+00 1.8000000e+01 

CELLS 216 648
2 0 1
2 1 2
2 2 3
2 3 4
2 4 5
2 5 6
2 6 7
2 7 8
2 8 9
2 9 10
2 10 11
2 11 12
2 12 13
2 13 14
2 14 15
2 15 16
2 16 17
2 17 18
2 18 19
2 19 20
2 20 21
2 21 22
2 22 23
2 23 24
2 24 25
2 25 26
2 26 27
2 27 28
2 28 29
2 29 30
2 30 31
2 31 32
2 32 33
2 33 34
2 34 35
2 35 36
2 36 37
2 37 38
2 38 39
2 39 40
2 40 41
2 41 42
2 42 43
2 43 44
2 44 45
2 45 46
2 46 47
2 47 48
2 48 49
2 49 50
2 50 51
2 51 52
2 52 53
2 53 54
2 54 55
2 55 56
2 56 57
2 57 58
2 58 59
2 59 60
2 60 61
2 61 62
2 62 63
2 63 64
2 64 65
2 65 66
2 66 67
2 67 68
2 68 69
2 69 70
2 70 71
2 71 72
2 139 140
2 140 141
2 141 142
2 142 143
2 143 144
2 144 145
2 145 146
2 146 147
2 147 148
2 148 149
2 149 150
2 150 151
2 151 152
2 152 153
2 153 154
2 154 155
2 155 156
2 156 157
2 157 158
2 158 159
2 159 160
2 160 161
2 161 162
2 162 163
2 163 164
2 164 165
2 165 166
2 166 167
2 167 168
2 168 169
2 169 170
2 170 171
2 171 172
2 172 173
2 173 174
2 174 175
2 175 176
2 176 177
2 177 178
2 178 179
2 179 180
2 180 181
2 181 182
2 182 183
2 183 184
2 184 185
2 185 186
2 186 187
2 187 188
2 188 189
2 189 190
2 190 191
2 191 192
2 192 193
2 193 194
2 194 195
2 195 196
2 196 197
2 197 198
2 198 199
2 199 200
2 200 201
2 201 202
2 202 203
2 203 204
2 204 205
2 205 206
2 206 207
2 207 208
2 208 209
2 209 210
2 210 211
2 12 73
2 73 79
2 79 85
2 85 91
2 91 97
2 97 103
2 103 109
2 109 115
2 115 121
2 121 127
2 127 133
2 133 151
2 24 74
2 74 80
2 80 86
2 86 92
2 92 98
2 98 104
2 104 110
2 110 116
2 116 122
2 122 128
2 128 134
2 134 163
2 36 75
2 75 81
2 81 87
2 87 93
2 93 99
2 99 105
2 105 111
2 111 117
2 117 123
2 123 129
2 129 135
2 135 175
2 48 76
2 76 82
2 82 88
2 88 94
2 94 100
2 100 106
2 106 112
2 112 118
2 118 124
2 124 130
2 130 136
2 136 187
2 60 77
2 77 83
2 83 89
2 89 95
2 95 101
2 101 107
2 107 113
2 113 119
2 119 125
2 125 131
2 131 137
2 137 199
2 72 78
2 78 84
2 84 90
2 90 96
2 96 102
2 102 108
2 108 114
2 114 120
2 120 126
2 126 132
2 132 138
2 138 211

CELL_TYPES 216
3
3
3
3
3
3
3
3
3
3
3
3
3
3
3
3
3
3
3
3
3
3
3
3
3
3
3
3
3
3
3
3
3
3
3
3
3
3
3
3
3
3
3
3
3
3
3
3
3
3
3
3
3
3
3
3
3
3
3
3
3
3
3
3
3
3
3
3
3
3
3
3
3
3
3
3
3
3
3
3
3
3
3
3
3
3
3
3
3
3
3
3
3
3
3
3
3
3
3
3
3
3
3
3
3
3
3
3
3
3
3
3
3
3
3
3
3
3
3
3
3
3
3
3
3
3
3
3
3
3
3
3
3
3
3
3
3
3
3
3
3
3
3
3
3
3
3
3
3
3
3
3
3
3
3
3
3
3
3
3
3
3
3
3
3
3
3
3
3
3
3
3
3
3
3
3
3
3
3
3
3
3
3
3
3
3
3
3
3
3
3
3
3
3
3
3
3
3
3
3
3
3
3
3
3
3
3
3
3
3
3
3
3
3
3
3
POINT_DATA 212
FIELD FieldData 3
ADJOINT_DISPLACEMENT 3 212  float
0.0000000e+00 0.0000000e+00 0.0000000e+00 
5.0407727e-03 0.0000000e+00 -3.2714869e-15 
1.0161301e-02 0.0000000e+00 -6.5429738e-15 
1.5441340e-02 0.0000000e+00 -9.8144606e-15 
2.0960646e-02 0.0000000e+00 -1.3085948e-14 
2.6798975e-02 0.0000000e+00 -1.6357434e-14 
3.3036079e-02 0.0000000e+00 -1.9628921e-14 
3.9751716e-02 0.0000000e+00 -2.2900408e-14 
4.7025643e-02 0.0000000e+00 -2.6171895e-14 
5.4937616e-02 0.0000000e+00 -2.9443384e-14 
6.3567385e-02 0.0000000e+00 -3.2714869e-14 
7.2994709e-02 0.0000000e+00 -3.5986357e-14 
8.3299346e-02 0.0000000e+00 -3.9257843e-14 
9.5488884e-02 0.0000000e+00 -1.5950003e-05 
1.1019440e-01 0.0000000e+00 -3.1900006e-05 
1.2693085e-01 0.0000000e+00 -4.7850008e-05 
1.4521319e-01 0.0000000e+00 -6.3800013e-05 
1.6455638e-01 0.0000000e+00 -7.9750011e-05 
1.8447538e-01 0.0000000e+00 -9.5700016e-05 
2.0448515e-01 0.0000000e+00 -1.1165002e-04 
2.2410065e-01 0.0000000e+00 -1.2760003e-04 
2.4283683e-01 0.0000000e+00 -1.4355003e-04 
2.6020867e-01 0.0000000e+00 -1.5950002e-04 
2.7573112e-01 0.0000000e+00 -1.7545003e-04 
2.8891912e-01 0.0000000e+00 -1.9140003e-04 
3.0207527e-01 0.0000000e+00 -1.7457306e-04 
3.1749627e-01 0.0000000e+00 -1.5774608e-04 
3.3468840e-01 0.0000000e+00 -1.4091909e-04 
3.5315797e-01 0.0000000e+00 -1.2409211e-04 
3.7241119e-01 0.0000000e+00 -1.0726514e-04 
3.9195433e-01 0.0000000e+00 -9.0438152e-05 
4.1129372e-01 0.0000000e+00 -7.3611176e-05 
4.2993557e-01 0.0000000e+00 -5.6784193e-05 
4.4738618e-01 0.0000000e+00 -3.9957213e-05 
4.6315175e-01 0.0000000e+00 -2.3130233e-05 
4.7673863e-01 0.0000000e+00 -6.3032530e-06 
4.8765308e-01 0.0000000e+00 1.0523727e-05 
4.9637306e-01 0.0000000e+00 1.4033669e-05 
5.0378054e-01 0.0000000e+00 1.7543613e-05 
5.0998765e-01 0.0000000e+00 2.1053555e-05 
5.1510638e-01 0.0000000e+00 2.4563496e-05 
5.1924890e-01 0.0000000e+00 2.8073438e-05 
5.2252728e-01 0.0000000e+00 3.1583382e-05 
5.2505356e-01 0.0000000e+00 3.5093322e-05 
5.2693981e-01 0.0000000e+00 3.8603266e-05 
5.2829826e-01 0.0000000e+00 4.2113210e-05 
5.2924085e-01 0.0000000e+00 4.5623150e-05 
5.2987969e-01 0.0000000e+00 4.9133094e-05 
5.3032690e-01 0.0000000e+00 5.2643038e-05 
5.3078771e-01 0.0000000e+00 5.3373908e-05 
5.3137612e-01 0.0000000e+00 5.4104778e-05 
5.3206754e-01 0.0000000e+00 5.4835647e-05 
5.3283739e-01 0.0000000e+00 5.5566521e-05 
5.3366107e-01 0.0000000e+00 5.6297391e-05 
5.3451395e-01 0.0000000e+00 5.7028261e-05 
5.3537142e-01 0.0000000e+00 5.7759131e-05 
5.3620893e-01 0.0000000e+00 5.8490004e-05 
5.3700179e-01 0.0000000e+00 5.9220874e-05 
5.3772545e-01 0.0000000e+00 5.9951744e-05 
5.3835535e-01 0.0000000e+00 6.0682614e-05 
5.3886676e-01 0.0000000e+00 6.1413484e-05 
5.3927934e-01 0.0000000e+00 6.1559593e-05 
5.3963202e-01 0.0000000e+00 6.1705701e-05 
5.3992939e-01 0.0000000e+00 6.1851802e-05 
5.4017597e-01 0.0000000e+00 6.1997911e-05 
5.4037631e-01 0.0000000e+00 6.2144019e-05 
5.4053491e-01 0.0000000e+00 6.2290128e-05 
5.4065639e-01 0.0000000e+00 6.2436229e-05 
5.4074520e-01 0.0000000e+00 6.2582338e-05 
5.4080600e-01 0.0000000e+00 6.2728446e-05 
5.4084325e-01 0.0000000e+00 6.2874547e-05 
5.4086149e-01 0.0000000e+00 6.3020656e-05 
5.4086524e-01 0.0000000e+00 6.3166764e-05 
8.3173618e-02 0.0000000e+00 -1.7642930e-02 
2.8891718e-01 0.0000000e+00 -1.2360808e-02 
4.8778793e-01 0.0000000e+00 -1.5493041e-02 
5.3029650e-01 0.0000000e+00 -2.9461057e-04 
5.3887326e-01 0.0000000e+00 -6.7642197e-04 
5.4086423e-01 0.0000000e+00 8.5045504e-05 
8.3047897e-02 0.0000000e+00 -2.8256528e-02 
2.8891525e-01 0.0000000e+00 1.3805937e-04 
4.8792279e-01 0.0000000e+00 -2.4987409e-02 
5.3026605e-01 0.0000000e+00 8.5527005e-05 
5.3887975e-01 0.0000000e+00 -1.1418604e-03 
5.4086322e-01 0.0000000e+00 1.3603839e-04 
8.2922176e-02 0.0000000e+00 -3.2987248e-02 
2.8891334e-01 0.0000000e+00 3.9661154e-02 
4.8805764e-01 0.0000000e+00 -2.9429788e-02 
5.3023565e-01 0.0000000e+00 9.9330093e-04 
5.3888625e-01 0.0000000e+00 -1.3769335e-03 
5.4086226e-01 0.0000000e+00 2.0564356e-04 
8.2796454e-02 0.0000000e+00 -3.2981556e-02 
2.8891140e-01 0.0000000e+00 1.0856443e-01 
4.8819247e-01 0.0000000e+00 -2.9777380e-02 
5.3020519e-01 0.0000000e+00 2.2289564e-03 
5.3889275e-01 0.0000000e+00 -1.4236734e-03 
5.4086125e-01 0.0000000e+00 2.8335914e-04 
8.2670726e-02 0.0000000e+00 -2.9385900e-02 
2.8890947e-01 0.0000000e+00 2.0920384e-01 
4.8832732e-01 0.0000000e+00 -2.6987394e-02 
5.3017479e-01 0.0000000e+00 3.5927386e-03 
5.3889918e-01 0.0000000e+00 -1.3241117e-03 
5.4086024e-01 0.0000000e+00 3.5868323e-04 
8.2545005e-02 0.0000000e+00 -2.3346748e-02 
2.8890753e-01 0.0000000e+00 3.4393534e-01 
4.8846218e-01 0.0000000e+00 -2.2017034e-02 
5.3014433e-01 0.0000000e+00 4.8848926e-03 
5.3890568e-01 0.0000000e+00 -1.1202805e-03 
5.4085922e-01 0.0000000e+00 4.2111397e-04 
8.2419284e-02 0.0000000e+00 -1.6010553e-02 
2.8890559e-01 0.0000000e+00 5.1511484e-01 
4.8859704e-01 0.0000000e+00 -1.5823506e-02 
5.3011394e-01 0.0000000e+00 5.9056641e-03 
5.3891218e-01 0.0000000e+00 -8.5421134e-04 
5.4085821e-01 0.0000000e+00 4.6014952e-04 
8.2293563e-02 0.0000000e+00 -8.5237743e-03 
2.8890365e-01 0.0000000e+00 7.2509837e-01 
4.8873189e-01 0.0000000e+00 -9.3640136e-03 
5.3008348e-01 0.0000000e+00 6.4552976e-03 
5.3891867e-01 0.0000000e+00 -5.6793628e-04 
5.4085720e-01 0.0000000e+00 4.6528794e-04 
8.2167834e-02 0.0000000e+00 -2.0328721e-03 
2.8890172e-01 0.0000000e+00 4.7624183e-01 
4.8886675e-01 0.0000000e+00 -3.5957636e-03 
5.3005308e-01 0.0000000e+00 6.3340385e-03 
5.3892517e-01 0.0000000e+00 -3.0348712e-04 
5.4085618e-01 0.0000000e+00 4.2602740e-04 
8.2042113e-02 0.0000000e+00 2.3156970e-03 
2.8889978e-01 0.0000000e+00 2.7090120e-01 
4.8900160e-01 0.0000000e+00 5.2403816e-04 
5.3002262e-01 0.0000000e+00 5.3421315e-03 
5.3893167e-01 0.0000000e+00 -1.0289570e-04 
5.4085517e-01 0.0000000e+00 3.3186603e-04 
8.1916392e-02 0.0000000e+00 3.3754737e-03 
2.8889784e-01 0.0000000e+00 1.1143240e-01 
4.8913646e-01 0.0000000e+00 2.0381866e-03 
5.2999222e-01 0.0000000e+00 3.2798229e-03 
5.3893816e-01 0.0000000e+00 -8.1938733e-06 
5.4085416e-01 0.0000000e+00 1.7230192e-04 
0.0000000e+00 0.0000000e+00 0.0000000e+00 
8.7167285e-03 0.0000000e+00 3.0666097e-15 
1.7353700e-02 0.0000000e+00 6.1332207e-15 
2.5831163e-02 0.0000000e+00 9.1998417e-15 
3.4069359e-02 0.0000000e+00 1.2266439e-14 
4.1988529e-02 0.0000000e+00 1.5333045e-14 
4.9508926e-02 0.0000000e+00 1.8399690e-14 
5.6550790e-02 0.0000000e+00 2.1466315e-14 
6.3034363e-02 0.0000000e+00 2.4532915e-14 
6.8879895e-02 0.0000000e+00 2.7599586e-14 
7.4007623e-02 0.0000000e+00 3.0666187e-14 
7.8337803e-02 0.0000000e+00 3.3732765e-14 
8.1790671e-02 0.0000000e+00 3.6799357e-14 
8.5078314e-02 0.0000000e+00 1.5950003e-05 
8.9289367e-02 0.0000000e+00 3.1900006e-05 
9.4908856e-02 0.0000000e+00 4.7850008e-05 
1.0242184e-01 0.0000000e+00 6.3800013e-05 
1.1231333e-01 0.0000000e+00 7.9750011e-05 
1.2506840e-01 0.0000000e+00 9.5700016e-05 
1.4117207e-01 0.0000000e+00 1.1165002e-04 
1.6110937e-01 0.0000000e+00 1.2760003e-04 
1.8536538e-01 0.0000000e+00 1.4355003e-04 
2.1442512e-01 0.0000000e+00 1.5950002e-04 
2.4877360e-01 0.0000000e+00 1.7545003e-04 
2.8889591e-01 0.0000000e+00 1.9140003e-04 
3.2895556e-01 0.0000000e+00 1.7457306e-04 
3.6312184e-01 0.0000000e+00 1.5774608e-04 
3.9188847e-01 0.0000000e+00 1.4091909e-04 
4.1574925e-01 0.0000000e+00 1.2409211e-04 
4.3519786e-01 0.0000000e+00 1.0726514e-04 
4.5072806e-01 0.0000000e+00 9.0438152e-05 
4.6283355e-01 0.0000000e+00 7.3611176e-05 
4.7200808e-01 0.0000000e+00 5.6784193e-05 
4.7874540e-01 0.0000000e+00 3.9957213e-05 
4.8353922e-01 0.0000000e+00 2.3130233e-05 
4.8688328e-01 0.0000000e+00 6.3032530e-06 
4.8927131e-01 0.0000000e+00 -1.0523727e-05 
4.9166110e-01 0.0000000e+00 -1.4033669e-05 
4.9460652e-01 0.0000000e+00 -1.7543613e-05 
4.9799550e-01 0.0000000e+00 -2.1053555e-05 
5.0171596e-01 0.0000000e+00 -2.4563496e-05 
5.0565577e-01 0.0000000e+00 -2.8073438e-05 
5.0970286e-01 0.0000000e+00 -3.1583382e-05 
5.1374519e-01 0.0000000e+00 -3.5093322e-05 
5.1767063e-01 0.0000000e+00 -3.8603266e-05 
5.2136707e-01 0.0000000e+00 -4.2113210e-05 
5.2472246e-01 0.0000000e+00 -4.5623150e-05 
5.2762473e-01 0.0000000e+00 -4.9133094e-05 
5.2996176e-01 0.0000000e+00 -5.2643038e-05 
5.3182805e-01 0.0000000e+00 -5.3373908e-05 
5.3340906e-01 0.0000000e+00 -5.4104778e-05 
5.3472942e-01 0.0000000e+00 -5.4835647e-05 
5.3581381e-01 0.0000000e+00 -5.5566521e-05 
5.3668678e-01 0.0000000e+00 -5.6297391e-05 
5.3737289e-01 0.0000000e+00 -5.7028261e-05 
5.3789687e-01 0.0000000e+00 -5.7759131e-05 
5.3828317e-01 0.0000000e+00 -5.8490004e-05 
5.3855652e-01 0.0000000e+00 -5.9220874e-05 
5.3874147e-01 0.0000000e+00 -5.9951744e-05 
5.3886265e-01 0.0000000e+00 -6.0682614e-05 
5.3894460e-01 0.0000000e+00 -6.1413484e-05 
5.3903091e-01 0.0000000e+00 -6.1559593e-05 
5.3914559e-01 0.0000000e+00 -6.1705701e-05 
5.3928405e-01 0.0000000e+00 -6.1851802e-05 
5.3944182e-01 0.0000000e+00 -6.1997911e-05 
5.3961438e-01 0.0000000e+00 -6.2144019e-05 
5.3979707e-01 0.0000000e+00 -6.2290128e-05 
5.3998548e-01 0.0000000e+00 -6.2436229e-05 
5.4017496e-01 0.0000000e+00 -6.2582338e-05 
5.4036099e-01 0.0000000e+00 -6.2728446e-05 
5.4053909e-01 0.0000000e+00 -6.2874547e-05 
5.4070461e-01 0.0000000e+00 -6.3020656e-05 
5.4085314e-01 0.0000000e+00 -6.3166764e-05 
ADJOINT_ROTATION 3 212  float
0.0000000e+00 2.0109922e-02 0.0000000e+00 
0.0000000e+00 2.0269433e-02 0.0000000e+00 
0.0000000e+00 2.0747965e-02 0.0000000e+00 
0.0000000e+00 2.1545520e-02 0.0000000e+00 
0.0000000e+00 2.2662098e-02 0.0000000e+00 
0.0000000e+00 2.4097696e-02 0.0000000e+00 
0.0000000e+00 2.5852317e-02 0.0000000e+00 
0.0000000e+00 2.7925959e-02 0.0000000e+00 
0.0000000e+00 3.0318623e-02 0.0000000e+00 
0.0000000e+00 3.3030309e-02 0.0000000e+00 
0.0000000e+00 3.6061019e-02 0.0000000e+00 
0.0000000e+00 3.9410748e-02 0.0000000e+00 
0.0000000e+00 4.3079499e-02 0.0000000e+00 
0.0000000e+00 5.4113474e-02 0.0000000e+00 
0.0000000e+00 6.3207284e-02 0.0000000e+00 
0.0000000e+00 7.0360936e-02 0.0000000e+00 
0.0000000e+00 7.5574420e-02 0.0000000e+00 
0.0000000e+00 7.8847744e-02 0.0000000e+00 
0.0000000e+00 8.0180906e-02 0.0000000e+00 
0.0000000e+00 7.9573900e-02 0.0000000e+00 
0.0000000e+00 7.7026740e-02 0.0000000e+00 
0.0000000e+00 7.2539411e-02 0.0000000e+00 
0.0000000e+00 6.6111922e-02 0.0000000e+00 
0.0000000e+00 5.7744272e-02 0.0000000e+00 
0.0000000e+00 4.7436457e-02 0.0000000e+00 
0.0000000e+00 5.7483416e-02 0.0000000e+00 
0.0000000e+00 6.5555446e-02 0.0000000e+00 
0.0000000e+00 7.1652539e-02 0.0000000e+00 
0.0000000e+00 7.5774707e-02 0.0000000e+00 
0.0000000e+00 7.7921934e-02 0.0000000e+00 
0.0000000e+00 7.8094237e-02 0.0000000e+00 
0.0000000e+00 7.6291606e-02 0.0000000e+00 
0.0000000e+00 7.2514042e-02 0.0000000e+00 
0.0000000e+00 6.6761546e-02 0.0000000e+00 
0.0000000e+00 5.9034117e-02 0.0000000e+00 
0.0000000e+00 4.9331754e-02 0.0000000e+00 
0.0000000e+00 3.7654463e-02 0.0000000e+00 
0.0000000e+00 3.2180276e-02 0.0000000e+00 
0.0000000e+00 2.7154438e-02 0.0000000e+00 
0.0000000e+00 2.2576945e-02 0.0000000e+00 
0.0000000e+00 1.8447798e-02 0.0000000e+00 
0.0000000e+00 1.4766996e-02 0.0000000e+00 
0.0000000e+00 1.1534540e-02 0.0000000e+00 
0.0000000e+00 8.7504303e-03 0.0000000e+00 
0.0000000e+00 6.4146663e-03 0.0000000e+00 
0.0000000e+00 4.5272480e-03 0.0000000e+00 
0.0000000e+00 3.0881756e-03 0.0000000e+00 
0.0000000e+00 2.0974490e-03 0.0000000e+00 
0.0000000e+00 1.5550683e-03 0.0000000e+00 
0.0000000e+00 2.1147965e-03 0.0000000e+00 
0.0000000e+00 2.5761048e-03 0.0000000e+00 
0.0000000e+00 2.9389930e-03 0.0000000e+00 
0.0000000e+00 3.2034614e-03 0.0000000e+00 
0.0000000e+00 3.3695097e-03 0.0000000e+00 
0.0000000e+00 3.4371382e-03 0.0000000e+00 
0.0000000e+00 3.4063465e-03 0.0000000e+00 
0.0000000e+00 3.2771351e-03 0.0000000e+00 
0.0000000e+00 3.0495035e-03 0.0000000e+00 
0.0000000e+00 2.7234519e-03 0.0000000e+00 
0.0000000e+00 2.2989805e-03 0.0000000e+00 
0.0000000e+00 1.7760892e-03 0.0000000e+00 
0.0000000e+00 1.5275023e-03 0.0000000e+00 
0.0000000e+00 1.2970868e-03 0.0000000e+00 
0.0000000e+00 1.0848428e-03 0.0000000e+00 
0.0000000e+00 8.9077005e-04 0.0000000e+00 
0.0000000e+00 7.1486877e-04 0.0000000e+00 
0.0000000e+00 5.5713882e-04 0.0000000e+00 
0.0000000e+00 4.1758022e-04 0.0000000e+00 
0.0000000e+00 2.9619300e-04 0.0000000e+00 
0.0000000e+00 1.9297717e-04 0.0000000e+00 
0.0000000e+00 1.0793271e-04 0.0000000e+00 
0.0000000e+00 4.1059629e-05 0.0000000e+00 
0.0000000e+00 -7.6420829e-06 0.0000000e+00 
0.0000000e+00 2.7874375e-02 0.0000000e+00 
0.0000000e+00 4.5585807e-04 0.0000000e+00 
0.0000000e+00 2.4678865e-02 0.0000000e+00 
0.0000000e+00 -9.9468911e-05 0.0000000e+00 
0.0000000e+00 1.1892632e-03 0.0000000e+00 
0.0000000e+00 -7.6372256e-05 0.0000000e+00 
0.0000000e+00 1.4962166e-02 0.0000000e+00 
0.0000000e+00 -5.1236644e-02 0.0000000e+00 
0.0000000e+00 1.3617679e-02 0.0000000e+00 
0.0000000e+00 -1.3544965e-03 0.0000000e+00 
0.0000000e+00 6.8650098e-04 0.0000000e+00 
0.0000000e+00 -1.2409869e-04 0.0000000e+00 
0.0000000e+00 4.3428740e-03 0.0000000e+00 
0.0000000e+00 -1.0764105e-01 0.0000000e+00 
0.0000000e+00 4.4709030e-03 0.0000000e+00 
0.0000000e+00 -2.2100145e-03 0.0000000e+00 
0.0000000e+00 2.6780242e-04 0.0000000e+00 
0.0000000e+00 -1.5082136e-04 0.0000000e+00 
0.0000000e+00 -3.9835013e-03 0.0000000e+00 
0.0000000e+00 -1.6875736e-01 0.0000000e+00 
0.0000000e+00 -2.7614615e-03 0.0000000e+00 
0.0000000e+00 -2.6660226e-03 0.0000000e+00 
0.0000000e+00 -6.6832414e-05 0.0000000e+00 
0.0000000e+00 -1.5654029e-04 0.0000000e+00 
0.0000000e+00 -1.0016959e-02 0.0000000e+00 
0.0000000e+00 -2.3458558e-01 0.0000000e+00 
0.0000000e+00 -8.0794152e-03 0.0000000e+00 
0.0000000e+00 -2.7225213e-03 0.0000000e+00 
0.0000000e+00 -3.1740355e-04 0.0000000e+00 
0.0000000e+00 -1.4125547e-04 0.0000000e+00 
0.0000000e+00 -1.3757501e-02 0.0000000e+00 
0.0000000e+00 -3.0512571e-01 0.0000000e+00 
0.0000000e+00 -1.1482958e-02 0.0000000e+00 
0.0000000e+00 -2.3795103e-03 0.0000000e+00 
0.0000000e+00 -4.8391102e-04 0.0000000e+00 
0.0000000e+00 -1.0496690e-04 0.0000000e+00 
0.0000000e+00 -1.5205125e-02 0.0000000e+00 
0.0000000e+00 -3.8037774e-01 0.0000000e+00 
0.0000000e+00 -1.2972089e-02 0.0000000e+00 
0.0000000e+00 -1.6369895e-03 0.0000000e+00 
0.0000000e+00 -5.6635478e-04 0.0000000e+00 
0.0000000e+00 -4.7674588e-05 0.0000000e+00 
0.0000000e+00 -1.4359834e-02 0.0000000e+00 
0.0000000e+00 -4.6034166e-01 0.0000000e+00 
0.0000000e+00 -1.2546810e-02 0.0000000e+00 
0.0000000e+00 -4.9495918e-04 0.0000000e+00 
0.0000000e+00 -5.6473480e-04 0.0000000e+00 
0.0000000e+00 3.0621479e-05 0.0000000e+00 
0.0000000e+00 -1.1221624e-02 0.0000000e+00 
0.0000000e+00 4.5498249e-01 0.0000000e+00 
0.0000000e+00 -1.0207119e-02 0.0000000e+00 
0.0000000e+00 1.0465808e-03 0.0000000e+00 
0.0000000e+00 -4.7905120e-04 0.0000000e+00 
0.0000000e+00 1.2992129e-04 0.0000000e+00 
0.0000000e+00 -5.7904986e-03 0.0000000e+00 
0.0000000e+00 3.6559474e-01 0.0000000e+00 
0.0000000e+00 -5.9530186e-03 0.0000000e+00 
0.0000000e+00 2.9876304e-03 0.0000000e+00 
0.0000000e+00 -3.0930387e-04 0.0000000e+00 
0.0000000e+00 2.5022484e-04 0.0000000e+00 
0.0000000e+00 1.9335442e-03 0.0000000e+00 
0.0000000e+00 2.7149510e-01 0.0000000e+00 
0.0000000e+00 2.1549342e-04 0.0000000e+00 
0.0000000e+00 5.3281896e-03 0.0000000e+00 
0.0000000e+00 -5.5492830e-05 0.0000000e+00 
0.0000000e+00 3.9153217e-04 0.0000000e+00 
0.0000000e+00 3.4920081e-02 0.0000000e+00 
0.0000000e+00 3.4760572e-02 0.0000000e+00 
0.0000000e+00 3.4282040e-02 0.0000000e+00 
0.0000000e+00 3.3484485e-02 0.0000000e+00 
0.0000000e+00 3.2367907e-02 0.0000000e+00 
0.0000000e+00 3.0932309e-02 0.0000000e+00 
0.0000000e+00 2.9177688e-02 0.0000000e+00 
0.0000000e+00 2.7104046e-02 0.0000000e+00 
0.0000000e+00 2.4711382e-02 0.0000000e+00 
0.0000000e+00 2.1999694e-02 0.0000000e+00 
0.0000000e+00 1.8968986e-02 0.0000000e+00 
0.0000000e+00 1.5619256e-02 0.0000000e+00 
0.0000000e+00 1.1950504e-02 0.0000000e+00 
0.0000000e+00 1.4674031e-02 0.0000000e+00 
0.0000000e+00 1.9337721e-02 0.0000000e+00 
0.0000000e+00 2.5941573e-02 0.0000000e+00 
0.0000000e+00 3.4485586e-02 0.0000000e+00 
0.0000000e+00 4.4969764e-02 0.0000000e+00 
0.0000000e+00 5.7394106e-02 0.0000000e+00 
0.0000000e+00 7.1758606e-02 0.0000000e+00 
0.0000000e+00 8.8063270e-02 0.0000000e+00 
0.0000000e+00 1.0630810e-01 0.0000000e+00 
0.0000000e+00 1.2649310e-01 0.0000000e+00 
0.0000000e+00 1.4861825e-01 0.0000000e+00 
0.0000000e+00 1.7268357e-01 0.0000000e+00 
0.0000000e+00 1.4812267e-01 0.0000000e+00 
0.0000000e+00 1.2553671e-01 0.0000000e+00 
0.0000000e+00 1.0492569e-01 0.0000000e+00 
0.0000000e+00 8.6289600e-02 0.0000000e+00 
0.0000000e+00 6.9628440e-02 0.0000000e+00 
0.0000000e+00 5.4942209e-02 0.0000000e+00 
0.0000000e+00 4.2230915e-02 0.0000000e+00 
0.0000000e+00 3.1494550e-02 0.0000000e+00 
0.0000000e+00 2.2733118e-02 0.0000000e+00 
0.0000000e+00 1.5946619e-02 0.0000000e+00 
0.0000000e+00 1.1135052e-02 0.0000000e+00 
0.0000000e+00 8.2984166e-03 0.0000000e+00 
0.0000000e+00 1.0745139e-02 0.0000000e+00 
0.0000000e+00 1.2743515e-02 0.0000000e+00 
0.0000000e+00 1.4293546e-02 0.0000000e+00 
0.0000000e+00 1.5395231e-02 0.0000000e+00 
0.0000000e+00 1.6048569e-02 0.0000000e+00 
0.0000000e+00 1.6253563e-02 0.0000000e+00 
0.0000000e+00 1.6010210e-02 0.0000000e+00 
0.0000000e+00 1.5318511e-02 0.0000000e+00 
0.0000000e+00 1.4178467e-02 0.0000000e+00 
0.0000000e+00 1.2590077e-02 0.0000000e+00 
0.0000000e+00 1.0553340e-02 0.0000000e+00 
0.0000000e+00 8.0682589e-03 0.0000000e+00 
0.0000000e+00 6.8781259e-03 0.0000000e+00 
0.0000000e+00 5.7864129e-03 0.0000000e+00 
0.0000000e+00 4.7931201e-03 0.0000000e+00 
0.0000000e+00 3.8982469e-03 0.0000000e+00 
0.0000000e+00 3.1017940e-03 0.0000000e+00 
0.0000000e+00 2.4037608e-03 0.0000000e+00 
0.0000000e+00 1.8041478e-03 0.0000000e+00 
0.0000000e+00 1.3029547e-03 0.0000000e+00 
0.0000000e+00 9.0018153e-04 0.0000000e+00 
0.0000000e+00 5.9582834e-04 0.0000000e+00 
0.0000000e+00 3.8989514e-04 0.0000000e+00 
0.0000000e+00 2.8238189e-04 0.0000000e+00 
0.0000000e+00 4.0494624e-04 0.0000000e+00 
0.0000000e+00 5.0933921e-04 0.0000000e+00 
0.0000000e+00 5.9556076e-04 0.0000000e+00 
0.0000000e+00 6.6361099e-04 0.0000000e+00 
0.0000000e+00 7.1348983e-04 0.0000000e+00 
0.0000000e+00 7.4519729e-04 0.0000000e+00 
0.0000000e+00 7.5873337e-04 0.0000000e+00 
0.0000000e+00 7.5409812e-04 0.0000000e+00 
0.0000000e+00 7.3129142e-04 0.0000000e+00 
0.0000000e+00 6.9031341e-04 0.0000000e+00 