# vtk DataFile Version 4.0
vtk output
ASCII
DATASET UNSTRUCTURED_GRID
POINTS 212 float
0.0000000e+00 0.0000000e+00 0.0000000e+00 
0.0000000e+00 0.0000000e+00 2.5000000e-01 
0.0000000e+00 0.0000000e+00 5.0000000e-01 
0.0000000e+00 0.0000000e+00 7.5000000e-01 
0.0000000e+00 0.0000000e+00 1.0000000e+00 
0.0000000e+00 0.0000000e+00 1.2500000e+00 
0.0000000e+00 0.0000000e+00 1.5000000e+00 
0.0000000e+00 0.0000000e+00 1.7500000e+00 
0.0000000e+00 0.0000000e+00 2.0000000e+00 
0.0000000e+00 0.0000000e+00 2.2500000e+00 
0.0000000e+00 0.0000000e+00 2.5000000e+00 
0.0000000e+00 0.0000000e+00 2.7500000e+00 
0.0000000e+00 0.0000000e+00 3.0000000e+00 
0.0000000e+00 0.0000000e+00 3.2500000e+00 
0.0000000e+00 0.0000000e+00 3.5000000e+00 
0.0000000e+00 0.0000000e+00 3.7500000e+00 
0.0000000e+00 0.0000000e+00 4.0000000e+00 
0.0000000e+00 0.0000000e+00 4.2500000e+00 
0.0000000e+00 0.0000000e+00 4.5000000e+00 
0.0000000e+00 0.0000000e+00 4.7500000e+00 
0.0000000e+00 0.0000000e+00 5.0000000e+00 
0.0000000e+00 0.0000000e+00 5.2500000e+00 
0.0000000e+00 0.0000000e+00 5.5000000e+00 
0.0000000e+00 0.0000000e+00 5.7500000e+00 
0.0000000e+00 0.0000000e+00 6.0000000e+00 
0.0000000e+00 0.0000000e+00 6.2500000e+00 
0.0000000e+00 0.0000000e+00 6.5000000e+00 
0.0000000e+00 0.0000000e+00 6.7500000e+00 
0.0000000e+00 0.0000000e+00 7.0000000e+00 
0.0000000e+00 0.0000000e+00 7.2500000e+00 
0.0000000e+00 0.0000000e+00 7.5000000e+00 
0.0000000e+00 0.0000000e+00 7.7500000e+00 
0.0000000e+00 0.0000000e+00 8.0000000e+00 
0.0000000e+00 0.0000000e+00 8.2500000e+00 
0.0000000e+00 0.0000000e+00 8.5000000e+00 
0.0000000e+00 0.0000000e+00 8.7500000e+00 
0.0000000e+00 0.0000000e+00 9.0000000e+00 
0.0000000e+00 0.0000000e+00 9.2500000e+00 
0.0000000e+00 0.0000000e+00 9.5000000e+00 
0.0000000e+00 0.0000000e+00 9.7500000e+00 
0.0000000e+00 0.0000000e+00 1.0000000e+01 
0.0000000e+00 0.0000000e+00 1.0250000e+01 
0.0000000e+00 0.0000000e+00 1.0500000e+01 
0.0000000e+00 0.0000000e+00 1.0750000e+01 
0.0000000e+00 0.0000000e+00 1.1000000e+01 
0.0000000e+00 0.0000000e+00 1.1250000e+01 
0.0000000e+00 0.0000000e+00 1.1500000e+01 
0.0000000e+00 0.0000000e+00 1.1750000e+01 
0.0000000e+00 0.0000000e+00 1.2000000e+01 
0.0000000e+00 0.0000000e+00 1.2250000e+01 
0.0000000e+00 0.0000000e+00 1.2500000e+01 
0.0000000e+00 0.0000000e+00 1.2750000e+01 
0.0000000e+00 0.0000000e+00 1.3000000e+01 
0.0000000e+00 0.0000000e+00 1.3250000e+01 
0.0000000e+00 0.0000000e+00 1.3500000e+01 
0.0000000e+00 0.0000000e+00 1.3750000e+01 
0.0000000e+00 0.0000000e+00 1.4000000e+01 
0.0000000e+00 0.0000000e+00 1.4250000e+01 
0.0000000e+00 0.0000000e+00 1.4500000e+01 
0.0000000e+00 0.0000000e+00 1.4750000e+01 
0.0000000e+00 0.0000000e+00 1.5000000e+01 
0.0000000e+00 0.0000000e+00 1.5250000e+01 
0.0000000e+00 0.0000000e+00 1.5500000e+01 
0.0000000e+00 0.0000000e+00 1.5750000e+01 
0.0000000e+00 0.0000000e+00 1.6000000e+01 
0.0000000e+00 0.0000000e+00 1.6250000e+01 
0.0000000e+00 0.0000000e+00 1.6500000e+01 
0.0000000e+00 0.0000000e+00 1.6750000e+01 
0.0000000e+00 0.0000000e+00 1.7000000e+01 
0.0000000e+00 0.0000000e+00 1.7250000e+01 
0.0000000e+00 0.0000000e+00 1.7500000e+01 
0.0000000e+00 0.0000000e+00 1.7750000e+01 
0.0000000e+00 0.0000000e+00 1.8000000e+01 
5.0000000e-01 0.0000000e+00 3.0000000e+00 
5.0000000e-01 0.0000000e+00 6.0000000e+00 
5.0000000e-01 0.0000000e+00 9.0000000e+00 
5.0000000e-01 0.0000000e+00 1.2000000e+01 
5.0000000e-01 0.0000000e+00 1.5000000e+01 
5.0000000e-01 0.0000000e+00 1.8000000e+01 
1.0000000e+00 0.0000000e+00 3.0000000e+00 
1.0000000e+00 0.0000000e+00 6.0000000e+00 
1.0000000e+00 0.0000000e+00 9.0000000e+00 
1.0000000e+00 0.0000000e+00 1.2000000e+01 
1.0000000e+00 0.0000000e+00 1.5000000e+01 
1.0000000e+00 0.0000000e+00 1.8000000e+01 
1.5000000e+00 0.0000000e+00 3.0000000e+00 
1.5000000e+00 0.0000000e+00 6.0000000e+00 
1.5000000e+00 0.0000000e+00 9.0000000e+00 
1.5000000e+00 0.0000000e+00 1.2000000e+01 
1.5000000e+00 0.0000000e+00 1.5000000e+01 
1.5000000e+00 0.0000000e+00 1.8000000e+01 
2.0000000e+00 0.0000000e+00 3.0000000e+00 
2.0000000e+00 0.0000000e+00 6.0000000e+00 
2.0000000e+00 0.0000000e+00 9.0000000e+00 
2.0000000e+00 0.0000000e+00 1.2000000e+01 
2.0000000e+00 0.0000000e+00 1.5000000e+01 
2.0000000e+00 0.0000000e+00 1.8000000e+01 
2.5000000e+00 0.0000000e+00 3.0000000e+00 
2.5000000e+00 0.0000000e+00 6.0000000e+00 
2.5000000e+00 0.0000000e+00 9.0000000e+00 
2.5000000e+00 0.0000000e+00 1.2000000e+01 
2.5000000e+00 0.0000000e+00 1.5000000e+01 
2.5000000e+00 0.0000000e+00 1.8000000e+01 
3.0000000e+00 0.0000000e+00 3.0000000e+00 
3.0000000e+00 0.0000000e+00 6.0000000e+00 
3.0000000e+00 0.0000000e+00 9.0000000e+00 
3.0000000e+00 0.0000000e+00 1.2000000e+01 
3.0000000e+00 0.0000000e+00 1.5000000e+01 
3.0000000e+00 0.0000000e+00 1.8000000e+01 
3.5000000e+00 0.0000000e+00 3.0000000e+00 
3.5000000e+00 0.0000000e+00 6.0000000e+00 
3.5000000e+00 0.0000000e+00 9.0000000e+00 
3.5000000e+00 0.0000000e+00 1.2000000e+01 
3.5000000e+00 0.0000000e+00 1.5000000e+01 
3.5000000e+00 0.0000000e+00 1.8000000e+01 
4.0000000e+00 0.0000000e+00 3.0000000e+00 
4.0000000e+00 0.0000000e+00 6.0000000e+00 
4.0000000e+00 0.0000000e+00 9.0000000e+00 
4.0000000e+00 0.0000000e+00 1.2000000e+01 
4.0000000e+00 0.0000000e+00 1.5000000e+01 
4.0000000e+00 0.0000000e+00 1.8000000e+01 
4.5000000e+00 0.0000000e+00 3.0000000e+00 
4.5000000e+00 0.0000000e+00 6.0000000e+00 
4.5000000e+00 0.0000000e+00 9.0000000e+00 
4.5000000e+00 0.0000000e+00 1.2000000e+01 
4.5000000e+00 0.0000000e+00 1.5000000e+01 
4.5000000e+00 0.0000000e+00 1.8000000e+01 
5.0000000e+00 0.0000000e+00 3.0000000e+00 
5.0000000e+00 0.0000000e+00 6.0000000e+00 
5.0000000e+00 0.0000000e+00 9.0000000e+00 
5.0000000e+00 0.0000000e+00 1.2000000e+01 
5.0000000e+00 0.0000000e+00 1.5000000e+01 
5.0000000e+00 0.0000000e+00 1.8000000e+01 
5.5000000e+00 0.0000000e+00 3.0000000e+00 
5.5000000e+00 0.0000000e+00 6.0000000e+00 
5.5000000e+00 0.0000000e+00 9.0000000e+00 
5.5000000e+00 0.0000000e+00 1.2000000e+01 
5.5000000e+00 0.0000000e+00 1.5000000e+01 
5.5000000e+00 0.0000000e+00 1.8000000e+01 
6.0000000e+00 0.0000000e+00 0.0000000e+00 
6.0000000e+00 0.0000000e+00 2.5000000e-01 
6.0000000e+00 0.0000000e+00 5.0000000e-01 
6.0000000e+00 0.0000000e+00 7.5000000e-01 
6.0000000e+00 0.0000000e+00 1.0000000e+00 
6.0000000e+00 0.0000000e+00 1.2500000e+00 
6.0000000e+00 0.0000000e+00 1.5000000e+00 
6.0000000e+00 0.0000000e+00 1.7500000e+00 
6.0000000e+00 0.0000000e+00 2.0000000e+00 
6.0000000e+00 0.0000000e+00 2.2500000e+00 
6.0000000e+00 0.0000000e+00 2.5000000e+00 
6.0000000e+00 0.0000000e+00 2.7500000e+00 
6.0000000e+00 0.0000000e+00 3.0000000e+00 
6.0000000e+00 0.0000000e+00 3.2500000e+00 
6.0000000e+00 0.0000000e+00 3.5000000e+00 
6.0000000e+00 0.0000000e+00 3.7500000e+00 
6.0000000e+00 0.0000000e+00 4.0000000e+00 
6.0000000e+00 0.0000000e+00 4.2500000e+00 
6.0000000e+00 0.0000000e+00 4.5000000e+00 
6.0000000e+00 0.0000000e+00 4.7500000e+00 
6.0000000e+00 0.0000000e+00 5.0000000e+00 
6.0000000e+00 0.0000000e+00 5.2500000e+00 
6.0000000e+00 0.0000000e+00 5.5000000e+00 
6.0000000e+00 0.0000000e+00 5.7500000e+00 
6.0000000e+00 0.0000000e+00 6.0000000e+00 
6.0000000e+00 0.0000000e+00 6.2500000e+00 
6.0000000e+00 0.0000000e+00 6.5000000e+00 
6.0000000e+00 0.0000000e+00 6.7500000e+00 
6.0000000e+00 0.0000000e+00 7.0000000e+00 
6.0000000e+00 0.0000000e+00 7.2500000e+00 
6.0000000e+00 0.0000000e+00 7.5000000e+00 
6.0000000e+00 0.0000000e+00 7.7500000e+00 
6.0000000e+00 0.0000000e+00 8.0000000e+00 
6.0000000e+00 0.0000000e+00 8.2500000e+00 
6.0000000e+00 0.0000000e+00 8.5000000e+00 
6.0000000e+00 0.0000000e+00 8.7500000e+00 
6.0000000e+00 0.0000000e+00 9.0000000e+00 
6.0000000e+00 0.0000000e+00 9.2500000e+00 
6.0000000e+00 0.0000000e+00 9.5000000e+00 
6.0000000e+00 0.0000000e+00 9.7500000e+00 
6.0000000e+00 0.0000000e+00 1.0000000e+01 
6.0000000e+00 0.0000000e+00 1.0250000e+01 
6.0000000e+00 0.0000000e+00 1.0500000e+01 
6.0000000e+00 0.0000000e+00 1.0750000e+01 
6.0000000e+00 0.0000000e+00 1.1000000e+01 
6.0000000e+00 0.0000000e+00 1.1250000e+01 
6.0000000e+00 0.0000000e+00 1.1500000e+01 
6.0000000e+00 0.0000000e+00 1.1750000e+01 
6.0000000e+00 0.0000000e+00 1.2000000e+01 
6.0000000e+00 0.0000000e+00 1.2250000e+01 
6.0000000e+00 0.0000000e+00 1.2500000e+01 
6.0000000e+00 0.0000000e+00 1.2750000e+01 
6.0000000e+00 0.0000000e+00 1.3000000e+01 
6.0000000e+00 0.0000000e+00 1.3250000e+01 
6.0000000e+00 0.0000000e+00 1.3500000e+01 
6.0000000e+00 0.0000000e+00 1.3750000e+01 
6.0000000e+00 0.0000000e+00 1.4000000e+01 
6.0000000e+00 0.0000000e+00 1.4250000e+01 
6.0000000e+00 0.0000000e+00 1.4500000e+01 
6.0000000e+00 0.0000000e+00 1.4750000e+01 
6.0000000e+00 0.0000000e+00 1.5000000e+01 
6.0000000e+00 0.0000000e+00 1.5250000e+01 
6.0000000e+00 0.0000000e+00 1.5500000e+01 
6.0000000e+00 0.0000000e+00 1.5750000e+01 
6.0000000e+00 0.0000000e+00 1.6000000e+01 
6.0000000e+00 0.0000000e+00 1.6250000e+01 
6.0000000e+00 0.0000000e+00 1.6500000e+01 
6.0000000e+00 0.0000000e+00 1.6750000e+01 
6.0000000e+00 0.0000000e+00 1.7000000e+01 
6.0000000e+00 0.0000000e+00 1.7250000e+01 
6.0000000e+00 0.0000000e+00 1.7500000e+01 
6.0000000e+00 0.0000000e+00 1.7750000e+01 
6.0000000e+00 0.0000000e+00 1.8000000e+01 

CELLS 216 648
2 0 1
2 1 2
2 2 3
2 3 4
2 4 5
2 5 6
2 6 7
2 7 8
2 8 9
2 9 10
2 10 11
2 11 12
2 12 13
2 13 14
2 14 15
2 15 16
2 16 17
2 17 18
2 18 19
2 19 20
2 20 21
2 21 22
2 22 23
2 23 24
2 24 25
2 25 26
2 26 27
2 27 28
2 28 29
2 29 30
2 30 31
2 31 32
2 32 33
2 33 34
2 34 35
2 35 36
2 36 37
2 37 38
2 38 39
2 39 40
2 40 41
2 41 42
2 42 43
2 43 44
2 44 45
2 45 46
2 46 47
2 47 48
2 48 49
2 49 50
2 50 51
2 51 52
2 52 53
2 53 54
2 54 55
2 55 56
2 56 57
2 57 58
2 58 59
2 59 60
2 60 61
2 61 62
2 62 63
2 63 64
2 64 65
2 65 66
2 66 67
2 67 68
2 68 69
2 69 70
2 70 71
2 71 72
2 139 140
2 140 141
2 141 142
2 142 143
2 143 144
2 144 145
2 145 146
2 146 147
2 147 148
2 148 149
2 149 150
2 150 151
2 151 152
2 152 153
2 153 154
2 154 155
2 155 156
2 156 157
2 157 158
2 158 159
2 159 160
2 160 161
2 161 162
2 162 163
2 163 164
2 164 165
2 165 166
2 166 167
2 167 168
2 168 169
2 169 170
2 170 171
2 171 172
2 172 173
2 173 174
2 174 175
2 175 176
2 176 177
2 177 178
2 178 179
2 179 180
2 180 181
2 181 182
2 182 183
2 183 184
2 184 185
2 185 186
2 186 187
2 187 188
2 188 189
2 189 190
2 190 191
2 191 192
2 192 193
2 193 194
2 194 195
2 195 196
2 196 197
2 197 198
2 198 199
2 199 200
2 200 201
2 201 202
2 202 203
2 203 204
2 204 205
2 205 206
2 206 207
2 207 208
2 208 209
2 209 210
2 210 211
2 12 73
2 73 79
2 79 85
2 85 91
2 91 97
2 97 103
2 103 109
2 109 115
2 115 121
2 121 127
2 127 133
2 133 151
2 24 74
2 74 80
2 80 86
2 86 92
2 92 98
2 98 104
2 104 110
2 110 116
2 116 122
2 122 128
2 128 134
2 134 163
2 36 75
2 75 81
2 81 87
2 87 93
2 93 99
2 99 105
2 105 111
2 111 117
2 117 123
2 123 129
2 129 135
2 135 175
2 48 76
2 76 82
2 82 88
2 88 94
2 94 100
2 100 106
2 106 112
2 112 118
2 118 124
2 124 130
2 130 136
2 136 187
2 60 77
2 77 83
2 83 89
2 89 95
2 95 101
2 101 107
2 107 113
2 113 119
2 119 125
2 125 131
2 131 137
2 137 199
2 72 78
2 78 84
2 84 90
2 90 96
2 96 102
2 102 108
2 108 114
2 114 120
2 120 126
2 126 132
2 132 138
2 138 211

CELL_TYPES 216
3
3
3
3
3
3
3
3
3
3
3
3
3
3
3
3
3
3
3
3
3
3
3
3
3
3
3
3
3
3
3
3
3
3
3
3
3
3
3
3
3
3
3
3
3
3
3
3
3
3
3
3
3
3
3
3
3
3
3
3
3
3
3
3
3
3
3
3
3
3
3
3
3
3
3
3
3
3
3
3
3
3
3
3
3
3
3
3
3
3
3
3
3
3
3
3
3
3
3
3
3
3
3
3
3
3
3
3
3
3
3
3
3
3
3
3
3
3
3
3
3
3
3
3
3
3
3
3
3
3
3
3
3
3
3
3
3
3
3
3
3
3
3
3
3
3
3
3
3
3
3
3
3
3
3
3
3
3
3
3
3
3
3
3
3
3
3
3
3
3
3
3
3
3
3
3
3
3
3
3
3
3
3
3
3
3
3
3
3
3
3
3
3
3
3
3
3
3
3
3
3
3
3
3
3
3
3
3
3
3
3
3
3
3
3
3
POINT_DATA 212
FIELD FieldData 3
ADJOINT_DISPLACEMENT 3 212  float
0.0000000e+00 0.0000000e+00 0.0000000e+00 
-1.0332991e-04 0.0000000e+00 -2.3960327e-18 
-2.0229815e-04 0.0000000e+00 -4.7920653e-18 
-2.9254303e-04 0.0000000e+00 -7.1880978e-18 
-3.6970293e-04 0.0000000e+00 -9.5841306e-18 
-4.2941610e-04 0.0000000e+00 -1.1980164e-17 
-4.6732090e-04 0.0000000e+00 -1.4376196e-17 
-4.7905568e-04 0.0000000e+00 -1.6772228e-17 
-4.6025874e-04 0.0000000e+00 -1.9168261e-17 
-4.0656840e-04 0.0000000e+00 -2.1564294e-17 
-3.1362302e-04 0.0000000e+00 -2.3960327e-17 
-1.7706091e-04 0.0000000e+00 -2.6356360e-17 
7.4796239e-06 0.0000000e+00 -2.8752391e-17 
2.4799013e-04 0.0000000e+00 -3.1030910e-17 
5.3198461e-04 0.0000000e+00 -3.3301332e-17 
8.3310826e-04 0.0000000e+00 -3.5576515e-17 
1.1250064e-03 0.0000000e+00 -3.7850405e-17 
1.3813240e-03 0.0000000e+00 -4.0129417e-17 
1.5757066e-03 0.0000000e+00 -4.2406013e-17 
1.6817994e-03 0.0000000e+00 -4.4681524e-17 
1.6732474e-03 0.0000000e+00 -4.6957134e-17 
1.5236961e-03 0.0000000e+00 -4.9232698e-17 
1.2067906e-03 0.0000000e+00 -5.1508183e-17 
6.9617614e-04 0.0000000e+00 -5.3783697e-17 
-3.4502023e-05 0.0000000e+00 -5.6059195e-17 
-1.0233795e-03 0.0000000e+00 -5.8352252e-17 
-2.2141326e-03 0.0000000e+00 -6.0667107e-17 
-3.4914273e-03 0.0000000e+00 -6.3036483e-17 
-4.7399295e-03 0.0000000e+00 -6.5377259e-17 
-5.8443048e-03 0.0000000e+00 -6.7713270e-17 
-6.6892197e-03 0.0000000e+00 -7.0052523e-17 
-7.1593397e-03 0.0000000e+00 -7.2393888e-17 
-7.1393312e-03 0.0000000e+00 -7.4735431e-17 
-6.5138591e-03 0.0000000e+00 -7.7077272e-17 
-5.1675905e-03 0.0000000e+00 -7.9419616e-17 
-2.9851908e-03 0.0000000e+00 -8.1762118e-17 
1.4867421e-04 0.0000000e+00 -8.4104919e-17 
4.3995804e-03 0.0000000e+00 -8.6329922e-17 
9.5260665e-03 0.0000000e+00 -8.8669871e-17 
1.5032907e-02 0.0000000e+00 -9.0778063e-17 
2.0424880e-02 0.0000000e+00 -9.3079656e-17 
2.5206760e-02 0.0000000e+00 -9.5377723e-17 
2.8883325e-02 0.0000000e+00 -9.7567369e-17 
3.0959349e-02 0.0000000e+00 -9.9709820e-17 
3.0939613e-02 0.0000000e+00 -1.0184845e-16 
2.8328886e-02 0.0000000e+00 -1.0398564e-16 
2.2631951e-02 0.0000000e+00 -1.0612351e-16 
1.3353582e-02 0.0000000e+00 -1.0826465e-16 
-1.4466711e-06 0.0000000e+00 -1.1040703e-16 
-1.3367301e-02 0.0000000e+00 -1.1333875e-16 
-2.2674188e-02 0.0000000e+00 -1.1583129e-16 
-2.8411394e-02 0.0000000e+00 -1.2001803e-16 
-3.1068197e-02 0.0000000e+00 -1.2120229e-16 
-3.1133883e-02 0.0000000e+00 -1.2109057e-16 
-2.9097732e-02 0.0000000e+00 -1.2120070e-16 
-2.5449028e-02 0.0000000e+00 -1.2183398e-16 
-2.0677056e-02 0.0000000e+00 -1.2221273e-16 
-1.5271096e-02 0.0000000e+00 -1.2263849e-16 
-9.7204307e-03 0.0000000e+00 -1.2306364e-16 
-4.5143436e-03 0.0000000e+00 -1.2348412e-16 
-1.4211694e-04 0.0000000e+00 -1.2390718e-16 
3.1622460e-03 0.0000000e+00 -1.2366051e-16 
5.5538290e-03 0.0000000e+00 -1.2353921e-16 
7.1269781e-03 0.0000000e+00 -1.2368963e-16 
7.9760402e-03 0.0000000e+00 -1.2392227e-16 
8.1953621e-03 0.0000000e+00 -1.2409716e-16 
7.8792889e-03 0.0000000e+00 -1.2429759e-16 
7.1221679e-03 0.0000000e+00 -1.2449224e-16 
6.0183462e-03 0.0000000e+00 -1.2467932e-16 
4.6621691e-03 0.0000000e+00 -1.2486923e-16 
3.1479839e-03 0.0000000e+00 -1.2505882e-16 
1.5701366e-03 0.0000000e+00 -1.2524789e-16 
2.2973887e-05 0.0000000e+00 -1.2543711e-16 
6.2330196e-06 0.0000000e+00 -3.8496999e-04 
-2.8751685e-05 0.0000000e+00 1.5574074e-03 
1.2389518e-04 0.0000000e+00 -6.6880775e-03 
-1.2055593e-06 0.0000000e+00 4.9357124e-02 
-1.1843078e-04 0.0000000e+00 -6.9523701e-03 
1.9144907e-05 0.0000000e+00 2.7506815e-03 
4.9864157e-06 0.0000000e+00 -6.9994543e-04 
-2.3001348e-05 0.0000000e+00 2.8316497e-03 
9.9116143e-05 0.0000000e+00 -1.2160141e-02 
-9.6444739e-07 0.0000000e+00 1.3519478e-01 
-9.4744631e-05 0.0000000e+00 -1.2640673e-02 
1.5315925e-05 0.0000000e+00 5.0012390e-03 
3.7398120e-06 0.0000000e+00 -9.4492629e-04 
-1.7251012e-05 0.0000000e+00 3.8227274e-03 
7.4337106e-05 0.0000000e+00 -1.6416190e-02 
-7.2333557e-07 0.0000000e+00 2.5751293e-01 
-7.1058472e-05 0.0000000e+00 -1.7064909e-02 
1.1486944e-05 0.0000000e+00 6.7516724e-03 
2.4932078e-06 0.0000000e+00 -1.1199126e-03 
-1.1500674e-05 0.0000000e+00 4.5306399e-03 
4.9558072e-05 0.0000000e+00 -1.9456226e-02 
-4.8222370e-07 0.0000000e+00 4.1631162e-01 
-4.7372316e-05 0.0000000e+00 -2.0225076e-02 
7.6579627e-06 0.0000000e+00 8.0019822e-03 
1.2466039e-06 0.0000000e+00 -1.2249044e-03 
-5.7503371e-06 0.0000000e+00 4.9553872e-03 
2.4779036e-05 0.0000000e+00 -2.1280246e-02 
-2.4111188e-07 0.0000000e+00 6.1159086e-01 
-2.3686158e-05 0.0000000e+00 -2.2121178e-02 
3.8289813e-06 0.0000000e+00 8.7521682e-03 
-5.3828469e-15 0.0000000e+00 -1.2599017e-03 
-7.2574156e-15 0.0000000e+00 5.0969697e-03 
-3.7734958e-15 0.0000000e+00 -2.1888254e-02 
-6.9591765e-15 0.0000000e+00 8.4335059e-01 
-2.3054714e-14 0.0000000e+00 -2.2753211e-02 
-3.3393613e-14 0.0000000e+00 9.0022301e-03 
-1.2466039e-06 0.0000000e+00 -1.2249044e-03 
5.7503371e-06 0.0000000e+00 4.9553872e-03 
-2.4779036e-05 0.0000000e+00 -2.1280246e-02 
2.4111185e-07 0.0000000e+00 6.1159086e-01 
2.3686158e-05 0.0000000e+00 -2.2121178e-02 
-3.8289813e-06 0.0000000e+00 8.7521682e-03 
-2.4932078e-06 0.0000000e+00 -1.1199126e-03 
1.1500674e-05 0.0000000e+00 4.5306399e-03 
-4.9558072e-05 0.0000000e+00 -1.9456226e-02 
4.8222370e-07 0.0000000e+00 4.1631162e-01 
4.7372316e-05 0.0000000e+00 -2.0225076e-02 
-7.6579627e-06 0.0000000e+00 8.0019822e-03 
-3.7398120e-06 0.0000000e+00 -9.4492629e-04 
1.7251012e-05 0.0000000e+00 3.8227274e-03 
-7.4337106e-05 0.0000000e+00 -1.6416190e-02 
7.2333557e-07 0.0000000e+00 2.5751293e-01 
7.1058472e-05 0.0000000e+00 -1.7064909e-02 
-1.1486944e-05 0.0000000e+00 6.7516724e-03 
-4.9864157e-06 0.0000000e+00 -6.9994543e-04 
2.3001348e-05 0.0000000e+00 2.8316497e-03 
-9.9116143e-05 0.0000000e+00 -1.2160141e-02 
9.6444739e-07 0.0000000e+00 1.3519478e-01 
9.4744631e-05 0.0000000e+00 -1.2640673e-02 
-1.5315925e-05 0.0000000e+00 5.0012390e-03 
-6.2330200e-06 0.0000000e+00 -3.8496999e-04 
2.8751685e-05 0.0000000e+00 1.5574074e-03 
-1.2389518e-04 0.0000000e+00 -6.6880775e-03 
1.2055593e-06 0.0000000e+00 4.9357124e-02 
1.1843078e-04 0.0000000e+00 -6.9523701e-03 
-1.9144907e-05 0.0000000e+00 2.7506815e-03 
0.0000000e+00 0.0000000e+00 0.0000000e+00 
1.0332991e-04 0.0000000e+00 1.9839089e-18 
2.0229815e-04 0.0000000e+00 3.9678138e-18 
2.9254303e-04 0.0000000e+00 5.9517134e-18 
3.6970293e-04 0.0000000e+00 7.9356151e-18 
4.2941610e-04 0.0000000e+00 9.9195491e-18 
4.6732090e-04 0.0000000e+00 1.1903498e-17 
4.7905568e-04 0.0000000e+00 1.3887434e-17 
4.6025874e-04 0.0000000e+00 1.5871366e-17 
4.0656840e-04 0.0000000e+00 1.7855175e-17 
3.1362302e-04 0.0000000e+00 1.9839141e-17 
1.7706091e-04 0.0000000e+00 2.1823144e-17 
-7.4796239e-06 0.0000000e+00 2.3807072e-17 
-2.4799013e-04 0.0000000e+00 2.5694304e-17 
-5.3198461e-04 0.0000000e+00 2.7581510e-17 
-8.3310826e-04 0.0000000e+00 2.9468726e-17 
-1.1250064e-03 0.0000000e+00 3.1355932e-17 
-1.3813240e-03 0.0000000e+00 3.3242907e-17 
-1.5757066e-03 0.0000000e+00 3.5130000e-17 
-1.6817994e-03 0.0000000e+00 3.7017001e-17 
-1.6732474e-03 0.0000000e+00 3.8904051e-17 
-1.5236961e-03 0.0000000e+00 4.0791069e-17 
-1.2067906e-03 0.0000000e+00 4.2678010e-17 
-6.9617614e-04 0.0000000e+00 4.4564981e-17 
3.4502023e-05 0.0000000e+00 4.6452054e-17 
1.0233795e-03 0.0000000e+00 4.8355761e-17 
2.2141326e-03 0.0000000e+00 5.0259160e-17 
3.4914273e-03 0.0000000e+00 5.2162377e-17 
4.7399295e-03 0.0000000e+00 5.4066103e-17 
5.8443048e-03 0.0000000e+00 5.5969370e-17 
6.6892197e-03 0.0000000e+00 5.7872851e-17 
7.1593397e-03 0.0000000e+00 5.9776068e-17 
7.1393312e-03 0.0000000e+00 6.1679411e-17 
6.5138591e-03 0.0000000e+00 6.3582700e-17 
5.1675905e-03 0.0000000e+00 6.5485937e-17 
2.9851908e-03 0.0000000e+00 6.7389167e-17 
-1.4867421e-04 0.0000000e+00 6.9292417e-17 
-4.3995804e-03 0.0000000e+00 7.1438838e-17 
-9.5260665e-03 0.0000000e+00 7.3588356e-17 
-1.5032907e-02 0.0000000e+00 7.5738953e-17 
-2.0424880e-02 0.0000000e+00 7.7892217e-17 
-2.5206760e-02 0.0000000e+00 8.0046989e-17 
-2.8883325e-02 0.0000000e+00 8.2203753e-17 
-3.0959349e-02 0.0000000e+00 8.4359452e-17 
-3.0939613e-02 0.0000000e+00 8.6514972e-17 
-2.8328886e-02 0.0000000e+00 8.8671108e-17 
-2.2631951e-02 0.0000000e+00 9.0827270e-17 
-1.3353582e-02 0.0000000e+00 9.2983432e-17 
1.4466711e-06 0.0000000e+00 9.5139608e-17 
1.3367301e-02 0.0000000e+00 9.5756400e-17 
2.2674188e-02 0.0000000e+00 9.6381047e-17 
2.8411394e-02 0.0000000e+00 9.6998461e-17 
3.1068197e-02 0.0000000e+00 9.7616795e-17 
3.1133883e-02 0.0000000e+00 9.8234659e-17 
2.9097732e-02 0.0000000e+00 9.8852040e-17 
2.5449028e-02 0.0000000e+00 9.9467820e-17 
2.0677056e-02 0.0000000e+00 1.0008302e-16 
1.5271096e-02 0.0000000e+00 1.0069775e-16 
9.7204307e-03 0.0000000e+00 1.0131252e-16 
4.5143436e-03 0.0000000e+00 1.0192730e-16 
1.4211694e-04 0.0000000e+00 1.0254209e-16 
-3.1622460e-03 0.0000000e+00 1.0275486e-16 
-5.5538290e-03 0.0000000e+00 1.0296710e-16 
-7.1269781e-03 0.0000000e+00 1.0317894e-16 
-7.9760402e-03 0.0000000e+00 1.0338981e-16 
-8.1953621e-03 0.0000000e+00 1.0360063e-16 
-7.8792889e-03 0.0000000e+00 1.0381105e-16 
-7.1221679e-03 0.0000000e+00 1.0402165e-16 
-6.0183462e-03 0.0000000e+00 1.0423231e-16 
-4.6621691e-03 0.0000000e+00 1.0444301e-16 
-3.1479839e-03 0.0000000e+00 1.0465375e-16 
-1.5701366e-03 0.0000000e+00 1.0486448e-16 
-2.2973887e-05 0.0000000e+00 1.0507521e-16 
ADJOINT_ROTATION 3 212  float
0.0000000e+00 -4.1622744e-04 0.0000000e+00 
0.0000000e+00 -4.0750409e-04 0.0000000e+00 
0.0000000e+00 -3.8133404e-04 0.0000000e+00 
0.0000000e+00 -3.3771733e-04 0.0000000e+00 
0.0000000e+00 -2.7665388e-04 0.0000000e+00 
0.0000000e+00 -1.9814377e-04 0.0000000e+00 
0.0000000e+00 -1.0218695e-04 0.0000000e+00 
0.0000000e+00 1.1216554e-05 0.0000000e+00 
0.0000000e+00 1.4206675e-04 0.0000000e+00 
0.0000000e+00 2.9036365e-04 0.0000000e+00 
0.0000000e+00 4.5610723e-04 0.0000000e+00 
0.0000000e+00 6.3929753e-04 0.0000000e+00 
0.0000000e+00 8.3993451e-04 0.0000000e+00 
0.0000000e+00 1.0665798e-03 0.0000000e+00 
0.0000000e+00 1.1878061e-03 0.0000000e+00 
0.0000000e+00 1.2036132e-03 0.0000000e+00 
0.0000000e+00 1.1140014e-03 0.0000000e+00 
0.0000000e+00 9.1897050e-04 0.0000000e+00 
0.0000000e+00 6.1852048e-04 0.0000000e+00 
0.0000000e+00 2.1265144e-04 0.0000000e+00 
0.0000000e+00 -2.9863667e-04 0.0000000e+00 
0.0000000e+00 -9.1534387e-04 0.0000000e+00 
0.0000000e+00 -1.6374701e-03 0.0000000e+00 
0.0000000e+00 -2.4650155e-03 0.0000000e+00 
0.0000000e+00 -3.3979798e-03 0.0000000e+00 
0.0000000e+00 -4.4361507e-03 0.0000000e+00 
0.0000000e+00 -5.0129849e-03 0.0000000e+00 
0.0000000e+00 -5.1284828e-03 0.0000000e+00 
0.0000000e+00 -4.7826446e-03 0.0000000e+00 
0.0000000e+00 -3.9754701e-03 0.0000000e+00 
0.0000000e+00 -2.7069591e-03 0.0000000e+00 
0.0000000e+00 -9.7711198e-04 0.0000000e+00 
0.0000000e+00 1.2140716e-03 0.0000000e+00 
0.0000000e+00 3.8665915e-03 0.0000000e+00 
0.0000000e+00 6.9804476e-03 0.0000000e+00 
0.0000000e+00 1.0555640e-02 0.0000000e+00 
0.0000000e+00 1.4592169e-02 0.0000000e+00 
0.0000000e+00 1.9084932e-02 0.0000000e+00 
0.0000000e+00 2.1596802e-02 0.0000000e+00 
0.0000000e+00 2.2127775e-02 0.0000000e+00 
0.0000000e+00 2.0677855e-02 0.0000000e+00 
0.0000000e+00 1.7247040e-02 0.0000000e+00 
0.0000000e+00 1.1835329e-02 0.0000000e+00 
0.0000000e+00 4.4427235e-03 0.0000000e+00 
0.0000000e+00 -4.9307770e-03 0.0000000e+00 
0.0000000e+00 -1.6285172e-02 0.0000000e+00 
0.0000000e+00 -2.9620461e-02 0.0000000e+00 
0.0000000e+00 -4.4936646e-02 0.0000000e+00 
0.0000000e+00 -6.2233727e-02 0.0000000e+00 
0.0000000e+00 -4.5019295e-02 0.0000000e+00 
0.0000000e+00 -2.9761996e-02 0.0000000e+00 
0.0000000e+00 -1.6461827e-02 0.0000000e+00 
0.0000000e+00 -5.1187892e-03 0.0000000e+00 
0.0000000e+00 4.2671179e-03 0.0000000e+00 
0.0000000e+00 1.1695894e-02 0.0000000e+00 
0.0000000e+00 1.7167540e-02 0.0000000e+00 
0.0000000e+00 2.0682056e-02 0.0000000e+00 
0.0000000e+00 2.2239439e-02 0.0000000e+00 
0.0000000e+00 2.1839693e-02 0.0000000e+00 
0.0000000e+00 1.9482816e-02 0.0000000e+00 
0.0000000e+00 1.5168807e-02 0.0000000e+00 
0.0000000e+00 1.1328994e-02 0.0000000e+00 
0.0000000e+00 7.8665670e-03 0.0000000e+00 
0.0000000e+00 4.7815251e-03 0.0000000e+00 
0.0000000e+00 2.0738693e-03 0.0000000e+00 
0.0000000e+00 -2.5640070e-04 0.0000000e+00 
0.0000000e+00 -2.2092848e-03 0.0000000e+00 
0.0000000e+00 -3.7847830e-03 0.0000000e+00 
0.0000000e+00 -4.9828952e-03 0.0000000e+00 
0.0000000e+00 -5.8036218e-03 0.0000000e+00 
0.0000000e+00 -6.2469626e-03 0.0000000e+00 
0.0000000e+00 -6.3129175e-03 0.0000000e+00 
0.0000000e+00 -6.0014864e-03 0.0000000e+00 
0.0000000e+00 6.9994543e-04 0.0000000e+00 
0.0000000e+00 -2.8316497e-03 0.0000000e+00 
0.0000000e+00 1.2160141e-02 0.0000000e+00 
0.0000000e+00 -1.3519478e-01 0.0000000e+00 
0.0000000e+00 1.2640673e-02 0.0000000e+00 
0.0000000e+00 -5.0012390e-03 0.0000000e+00 
0.0000000e+00 5.5995630e-04 0.0000000e+00 
0.0000000e+00 -2.2653199e-03 0.0000000e+00 
0.0000000e+00 9.7281132e-03 0.0000000e+00 
0.0000000e+00 -2.0815581e-01 0.0000000e+00 
0.0000000e+00 1.0112538e-02 0.0000000e+00 
0.0000000e+00 -4.0009911e-03 0.0000000e+00 
0.0000000e+00 4.1996725e-04 0.0000000e+00 
0.0000000e+00 -1.6989899e-03 0.0000000e+00 
0.0000000e+00 7.2960844e-03 0.0000000e+00 
0.0000000e+00 -2.8111687e-01 0.0000000e+00 
0.0000000e+00 7.5844037e-03 0.0000000e+00 
0.0000000e+00 -3.0007432e-03 0.0000000e+00 
0.0000000e+00 2.7997815e-04 0.0000000e+00 
0.0000000e+00 -1.1326600e-03 0.0000000e+00 
0.0000000e+00 4.8640566e-03 0.0000000e+00 
0.0000000e+00 -3.5407791e-01 0.0000000e+00 
0.0000000e+00 5.0562690e-03 0.0000000e+00 
0.0000000e+00 -2.0004956e-03 0.0000000e+00 
0.0000000e+00 1.3998908e-04 0.0000000e+00 
0.0000000e+00 -5.6632998e-04 0.0000000e+00 
0.0000000e+00 2.4320283e-03 0.0000000e+00 
0.0000000e+00 -4.2703897e-01 0.0000000e+00 
0.0000000e+00 2.5281345e-03 0.0000000e+00 
0.0000000e+00 -1.0002478e-03 0.0000000e+00 
0.0000000e+00 4.5359393e-16 0.0000000e+00 
0.0000000e+00 -1.7426207e-16 0.0000000e+00 
0.0000000e+00 -2.8701987e-16 0.0000000e+00 
0.0000000e+00 -5.0000000e-01 0.0000000e+00 
0.0000000e+00 1.7084517e-15 0.0000000e+00 
0.0000000e+00 7.1026698e-16 0.0000000e+00 
0.0000000e+00 -1.3998908e-04 0.0000000e+00 
0.0000000e+00 5.6632998e-04 0.0000000e+00 
0.0000000e+00 -2.4320283e-03 0.0000000e+00 
0.0000000e+00 4.2703897e-01 0.0000000e+00 
0.0000000e+00 -2.5281345e-03 0.0000000e+00 
0.0000000e+00 1.0002478e-03 0.0000000e+00 
0.0000000e+00 -2.7997815e-04 0.0000000e+00 
0.0000000e+00 1.1326600e-03 0.0000000e+00 
0.0000000e+00 -4.8640566e-03 0.0000000e+00 
0.0000000e+00 3.5407791e-01 0.0000000e+00 
0.0000000e+00 -5.0562690e-03 0.0000000e+00 
0.0000000e+00 2.0004956e-03 0.0000000e+00 
0.0000000e+00 -4.1996725e-04 0.0000000e+00 
0.0000000e+00 1.6989899e-03 0.0000000e+00 
0.0000000e+00 -7.2960844e-03 0.0000000e+00 
0.0000000e+00 2.8111687e-01 0.0000000e+00 
0.0000000e+00 -7.5844037e-03 0.0000000e+00 
0.0000000e+00 3.0007432e-03 0.0000000e+00 
0.0000000e+00 -5.5995630e-04 0.0000000e+00 
0.0000000e+00 2.2653199e-03 0.0000000e+00 
0.0000000e+00 -9.7281132e-03 0.0000000e+00 
0.0000000e+00 2.0815581e-01 0.0000000e+00 
0.0000000e+00 -1.0112538e-02 0.0000000e+00 
0.0000000e+00 4.0009911e-03 0.0000000e+00 
0.0000000e+00 -6.9994543e-04 0.0000000e+00 
0.0000000e+00 2.8316497e-03 0.0000000e+00 
0.0000000e+00 -1.2160141e-02 0.0000000e+00 
0.0000000e+00 1.3519478e-01 0.0000000e+00 
0.0000000e+00 -1.2640673e-02 0.0000000e+00 
0.0000000e+00 5.0012390e-03 0.0000000e+00 
0.0000000e+00 4.1622744e-04 0.0000000e+00 
0.0000000e+00 4.0750409e-04 0.0000000e+00 
0.0000000e+00 3.8133404e-04 0.0000000e+00 
0.0000000e+00 3.3771733e-04 0.0000000e+00 
0.0000000e+00 2.7665388e-04 0.0000000e+00 
0.0000000e+00 1.9814377e-04 0.0000000e+00 
0.0000000e+00 1.0218695e-04 0.0000000e+00 
0.0000000e+00 -1.1216554e-05 0.0000000e+00 
0.0000000e+00 -1.4206675e-04 0.0000000e+00 
0.0000000e+00 -2.9036365e-04 0.0000000e+00 
0.0000000e+00 -4.5610723e-04 0.0000000e+00 
0.0000000e+00 -6.3929753e-04 0.0000000e+00 
0.0000000e+00 -8.3993451e-04 0.0000000e+00 
0.0000000e+00 -1.0665798e-03 0.0000000e+00 
0.0000000e+00 -1.1878061e-03 0.0000000e+00 
0.0000000e+00 -1.2036132e-03 0.0000000e+00 
0.0000000e+00 -1.1140014e-03 0.0000000e+00 
0.0000000e+00 -9.1897050e-04 0.0000000e+00 
0.0000000e+00 -6.1852048e-04 0.0000000e+00 
0.0000000e+00 -2.1265144e-04 0.0000000e+00 
0.0000000e+00 2.9863667e-04 0.0000000e+00 
0.0000000e+00 9.1534387e-04 0.0000000e+00 
0.0000000e+00 1.6374701e-03 0.0000000e+00 
0.0000000e+00 2.4650155e-03 0.0000000e+00 
0.0000000e+00 3.3979798e-03 0.0000000e+00 
0.0000000e+00 4.4361507e-03 0.0000000e+00 
0.0000000e+00 5.0129849e-03 0.0000000e+00 
0.0000000e+00 5.1284828e-03 0.0000000e+00 
0.0000000e+00 4.7826446e-03 0.0000000e+00 
0.0000000e+00 3.9754701e-03 0.0000000e+00 
0.0000000e+00 2.7069591e-03 0.0000000e+00 
0.0000000e+00 9.7711198e-04 0.0000000e+00 
0.0000000e+00 -1.2140716e-03 0.0000000e+00 
0.0000000e+00 -3.8665915e-03 0.0000000e+00 
0.0000000e+00 -6.9804476e-03 0.0000000e+00 
0.0000000e+00 -1.0555640e-02 0.0000000e+00 
0.0000000e+00 -1.4592169e-02 0.0000000e+00 
0.0000000e+00 -1.9084932e-02 0.0000000e+00 
0.0000000e+00 -2.1596802e-02 0.0000000e+00 
0.0000000e+00 -2.2127775e-02 0.0000000e+00 
0.0000000e+00 -2.0677855e-02 0.0000000e+00 
0.0000000e+00 -1.7247040e-02 0.0000000e+00 
0.0000000e+00 -1.1835329e-02 0.0000000e+00 
0.0000000e+00 -4.4427235e-03 0.0000000e+00 
0.0000000e+00 4.9307770e-03 0.0000000e+00 
0.0000000e+00 1.6285172e-02 0.0000000e+00 
0.0000000e+00 2.9620461e-02 0.0000000e+00 
0.0000000e+00 4.4936646e-02 0.0000000e+00 
0.0000000e+00 6.2233727e-02 0.0000000e+00 
0.0000000e+00 4.5019295e-02 0.0000000e+00 
0.0000000e+00 2.9761996e-02 0.0000000e+00 
0.0000000e+00 1.6461827e-02 0.0000000e+00 
0.0000000e+00 5.1187892e-03 0.0000000e+00 
0.0000000e+00 -4.2671179e-03 0.0000000e+00 
0.0000000e+00 -1.1695894e-02 0.0000000e+00 
0.0000000e+00 -1.7167540e-02 0.0000000e+00 
0.0000000e+00 -2.0682056e-02 0.0000000e+00 
0.0000000e+00 -2.2239439e-02 0.0000000e+00 
0.0000000e+00 -2.1839693e-02 0.0000000e+00 
0.0000000e+00 -1.9482816e-02 0.0000000e+00 
0.0000000e+00 -1.5168807e-02 0.0000000e+00 
0.0000000e+00 -1.1328994e-02 0.0000000e+00 
0.0000000e+00 -7.8665670e-03 0.0000000e+00 
0.0000000e+00 -4.7815251e-03 0.0000000e+00 
0.0000000e+00 -2.0738693e-03 0.0000000e+00 
0.0000000e+00 2.5640070e-04 0.0000000e+00 
0.0000000e+00 2.2092848e-03 0.0000000e+00 