# vtk DataFile Version 4.0
vtk output
ASCII
DATASET UNSTRUCTURED_GRID
POINTS 212 float
0.0000000e+00 0.0000000e+00 0.0000000e+00 
0.0000000e+00 0.0000000e+00 2.5000000e-01 
0.0000000e+00 0.0000000e+00 5.0000000e-01 
0.0000000e+00 0.0000000e+00 7.5000000e-01 
0.0000000e+00 0.0000000e+00 1.0000000e+00 
0.0000000e+00 0.0000000e+00 1.2500000e+00 
0.0000000e+00 0.0000000e+00 1.5000000e+00 
0.0000000e+00 0.0000000e+00 1.7500000e+00 
0.0000000e+00 0.0000000e+00 2.0000000e+00 
0.0000000e+00 0.0000000e+00 2.2500000e+00 
0.0000000e+00 0.0000000e+00 2.5000000e+00 
0.0000000e+00 0.0000000e+00 2.7500000e+00 
0.0000000e+00 0.0000000e+00 3.0000000e+00 
0.0000000e+00 0.0000000e+00 3.2500000e+00 
0.0000000e+00 0.0000000e+00 3.5000000e+00 
0.0000000e+00 0.0000000e+00 3.7500000e+00 
0.0000000e+00 0.0000000e+00 4.0000000e+00 
0.0000000e+00 0.0000000e+00 4.2500000e+00 
0.0000000e+00 0.0000000e+00 4.5000000e+00 
0.0000000e+00 0.0000000e+00 4.7500000e+00 
0.0000000e+00 0.0000000e+00 5.0000000e+00 
0.0000000e+00 0.0000000e+00 5.2500000e+00 
0.0000000e+00 0.0000000e+00 5.5000000e+00 
0.0000000e+00 0.0000000e+00 5.7500000e+00 
0.0000000e+00 0.0000000e+00 6.0000000e+00 
0.0000000e+00 0.0000000e+00 6.2500000e+00 
0.0000000e+00 0.0000000e+00 6.5000000e+00 
0.0000000e+00 0.0000000e+00 6.7500000e+00 
0.0000000e+00 0.0000000e+00 7.0000000e+00 
0.0000000e+00 0.0000000e+00 7.2500000e+00 
0.0000000e+00 0.0000000e+00 7.5000000e+00 
0.0000000e+00 0.0000000e+00 7.7500000e+00 
0.0000000e+00 0.0000000e+00 8.0000000e+00 
0.0000000e+00 0.0000000e+00 8.2500000e+00 
0.0000000e+00 0.0000000e+00 8.5000000e+00 
0.0000000e+00 0.0000000e+00 8.7500000e+00 
0.0000000e+00 0.0000000e+00 9.0000000e+00 
0.0000000e+00 0.0000000e+00 9.2500000e+00 
0.0000000e+00 0.0000000e+00 9.5000000e+00 
0.0000000e+00 0.0000000e+00 9.7500000e+00 
0.0000000e+00 0.0000000e+00 1.0000000e+01 
0.0000000e+00 0.0000000e+00 1.0250000e+01 
0.0000000e+00 0.0000000e+00 1.0500000e+01 
0.0000000e+00 0.0000000e+00 1.0750000e+01 
0.0000000e+00 0.0000000e+00 1.1000000e+01 
0.0000000e+00 0.0000000e+00 1.1250000e+01 
0.0000000e+00 0.0000000e+00 1.1500000e+01 
0.0000000e+00 0.0000000e+00 1.1750000e+01 
0.0000000e+00 0.0000000e+00 1.2000000e+01 
0.0000000e+00 0.0000000e+00 1.2250000e+01 
0.0000000e+00 0.0000000e+00 1.2500000e+01 
0.0000000e+00 0.0000000e+00 1.2750000e+01 
0.0000000e+00 0.0000000e+00 1.3000000e+01 
0.0000000e+00 0.0000000e+00 1.3250000e+01 
0.0000000e+00 0.0000000e+00 1.3500000e+01 
0.0000000e+00 0.0000000e+00 1.3750000e+01 
0.0000000e+00 0.0000000e+00 1.4000000e+01 
0.0000000e+00 0.0000000e+00 1.4250000e+01 
0.0000000e+00 0.0000000e+00 1.4500000e+01 
0.0000000e+00 0.0000000e+00 1.4750000e+01 
0.0000000e+00 0.0000000e+00 1.5000000e+01 
0.0000000e+00 0.0000000e+00 1.5250000e+01 
0.0000000e+00 0.0000000e+00 1.5500000e+01 
0.0000000e+00 0.0000000e+00 1.5750000e+01 
0.0000000e+00 0.0000000e+00 1.6000000e+01 
0.0000000e+00 0.0000000e+00 1.6250000e+01 
0.0000000e+00 0.0000000e+00 1.6500000e+01 
0.0000000e+00 0.0000000e+00 1.6750000e+01 
0.0000000e+00 0.0000000e+00 1.7000000e+01 
0.0000000e+00 0.0000000e+00 1.7250000e+01 
0.0000000e+00 0.0000000e+00 1.7500000e+01 
0.0000000e+00 0.0000000e+00 1.7750000e+01 
0.0000000e+00 0.0000000e+00 1.8000000e+01 
5.0000000e-01 0.0000000e+00 3.0000000e+00 
5.0000000e-01 0.0000000e+00 6.0000000e+00 
5.0000000e-01 0.0000000e+00 9.0000000e+00 
5.0000000e-01 0.0000000e+00 1.2000000e+01 
5.0000000e-01 0.0000000e+00 1.5000000e+01 
5.0000000e-01 0.0000000e+00 1.8000000e+01 
1.0000000e+00 0.0000000e+00 3.0000000e+00 
1.0000000e+00 0.0000000e+00 6.0000000e+00 
1.0000000e+00 0.0000000e+00 9.0000000e+00 
1.0000000e+00 0.0000000e+00 1.2000000e+01 
1.0000000e+00 0.0000000e+00 1.5000000e+01 
1.0000000e+00 0.0000000e+00 1.8000000e+01 
1.5000000e+00 0.0000000e+00 3.0000000e+00 
1.5000000e+00 0.0000000e+00 6.0000000e+00 
1.5000000e+00 0.0000000e+00 9.0000000e+00 
1.5000000e+00 0.0000000e+00 1.2000000e+01 
1.5000000e+00 0.0000000e+00 1.5000000e+01 
1.5000000e+00 0.0000000e+00 1.8000000e+01 
2.0000000e+00 0.0000000e+00 3.0000000e+00 
2.0000000e+00 0.0000000e+00 6.0000000e+00 
2.0000000e+00 0.0000000e+00 9.0000000e+00 
2.0000000e+00 0.0000000e+00 1.2000000e+01 
2.0000000e+00 0.0000000e+00 1.5000000e+01 
2.0000000e+00 0.0000000e+00 1.8000000e+01 
2.5000000e+00 0.0000000e+00 3.0000000e+00 
2.5000000e+00 0.0000000e+00 6.0000000e+00 
2.5000000e+00 0.0000000e+00 9.0000000e+00 
2.5000000e+00 0.0000000e+00 1.2000000e+01 
2.5000000e+00 0.0000000e+00 1.5000000e+01 
2.5000000e+00 0.0000000e+00 1.8000000e+01 
3.0000000e+00 0.0000000e+00 3.0000000e+00 
3.0000000e+00 0.0000000e+00 6.0000000e+00 
3.0000000e+00 0.0000000e+00 9.0000000e+00 
3.0000000e+00 0.0000000e+00 1.2000000e+01 
3.0000000e+00 0.0000000e+00 1.5000000e+01 
3.0000000e+00 0.0000000e+00 1.8000000e+01 
3.5000000e+00 0.0000000e+00 3.0000000e+00 
3.5000000e+00 0.0000000e+00 6.0000000e+00 
3.5000000e+00 0.0000000e+00 9.0000000e+00 
3.5000000e+00 0.0000000e+00 1.2000000e+01 
3.5000000e+00 0.0000000e+00 1.5000000e+01 
3.5000000e+00 0.0000000e+00 1.8000000e+01 
4.0000000e+00 0.0000000e+00 3.0000000e+00 
4.0000000e+00 0.0000000e+00 6.0000000e+00 
4.0000000e+00 0.0000000e+00 9.0000000e+00 
4.0000000e+00 0.0000000e+00 1.2000000e+01 
4.0000000e+00 0.0000000e+00 1.5000000e+01 
4.0000000e+00 0.0000000e+00 1.8000000e+01 
4.5000000e+00 0.0000000e+00 3.0000000e+00 
4.5000000e+00 0.0000000e+00 6.0000000e+00 
4.5000000e+00 0.0000000e+00 9.0000000e+00 
4.5000000e+00 0.0000000e+00 1.2000000e+01 
4.5000000e+00 0.0000000e+00 1.5000000e+01 
4.5000000e+00 0.0000000e+00 1.8000000e+01 
5.0000000e+00 0.0000000e+00 3.0000000e+00 
5.0000000e+00 0.0000000e+00 6.0000000e+00 
5.0000000e+00 0.0000000e+00 9.0000000e+00 
5.0000000e+00 0.0000000e+00 1.2000000e+01 
5.0000000e+00 0.0000000e+00 1.5000000e+01 
5.0000000e+00 0.0000000e+00 1.8000000e+01 
5.5000000e+00 0.0000000e+00 3.0000000e+00 
5.5000000e+00 0.0000000e+00 6.0000000e+00 
5.5000000e+00 0.0000000e+00 9.0000000e+00 
5.5000000e+00 0.0000000e+00 1.2000000e+01 
5.5000000e+00 0.0000000e+00 1.5000000e+01 
5.5000000e+00 0.0000000e+00 1.8000000e+01 
6.0000000e+00 0.0000000e+00 0.0000000e+00 
6.0000000e+00 0.0000000e+00 2.5000000e-01 
6.0000000e+00 0.0000000e+00 5.0000000e-01 
6.0000000e+00 0.0000000e+00 7.5000000e-01 
6.0000000e+00 0.0000000e+00 1.0000000e+00 
6.0000000e+00 0.0000000e+00 1.2500000e+00 
6.0000000e+00 0.0000000e+00 1.5000000e+00 
6.0000000e+00 0.0000000e+00 1.7500000e+00 
6.0000000e+00 0.0000000e+00 2.0000000e+00 
6.0000000e+00 0.0000000e+00 2.2500000e+00 
6.0000000e+00 0.0000000e+00 2.5000000e+00 
6.0000000e+00 0.0000000e+00 2.7500000e+00 
6.0000000e+00 0.0000000e+00 3.0000000e+00 
6.0000000e+00 0.0000000e+00 3.2500000e+00 
6.0000000e+00 0.0000000e+00 3.5000000e+00 
6.0000000e+00 0.0000000e+00 3.7500000e+00 
6.0000000e+00 0.0000000e+00 4.0000000e+00 
6.0000000e+00 0.0000000e+00 4.2500000e+00 
6.0000000e+00 0.0000000e+00 4.5000000e+00 
6.0000000e+00 0.0000000e+00 4.7500000e+00 
6.0000000e+00 0.0000000e+00 5.0000000e+00 
6.0000000e+00 0.0000000e+00 5.2500000e+00 
6.0000000e+00 0.0000000e+00 5.5000000e+00 
6.0000000e+00 0.0000000e+00 5.7500000e+00 
6.0000000e+00 0.0000000e+00 6.0000000e+00 
6.0000000e+00 0.0000000e+00 6.2500000e+00 
6.0000000e+00 0.0000000e+00 6.5000000e+00 
6.0000000e+00 0.0000000e+00 6.7500000e+00 
6.0000000e+00 0.0000000e+00 7.0000000e+00 
6.0000000e+00 0.0000000e+00 7.2500000e+00 
6.0000000e+00 0.0000000e+00 7.5000000e+00 
6.0000000e+00 0.0000000e+00 7.7500000e+00 
6.0000000e+00 0.0000000e+00 8.0000000e+00 
6.0000000e+00 0.0000000e+00 8.2500000e+00 
6.0000000e+00 0.0000000e+00 8.5000000e+00 
6.0000000e+00 0.0000000e+00 8.7500000e+00 
6.0000000e+00 0.0000000e+00 9.0000000e+00 
6.0000000e+00 0.0000000e+00 9.2500000e+00 
6.0000000e+00 0.0000000e+00 9.5000000e+00 
6.0000000e+00 0.0000000e+00 9.7500000e+00 
6.0000000e+00 0.0000000e+00 1.0000000e+01 
6.0000000e+00 0.0000000e+00 1.0250000e+01 
6.0000000e+00 0.0000000e+00 1.0500000e+01 
6.0000000e+00 0.0000000e+00 1.0750000e+01 
6.0000000e+00 0.0000000e+00 1.1000000e+01 
6.0000000e+00 0.0000000e+00 1.1250000e+01 
6.0000000e+00 0.0000000e+00 1.1500000e+01 
6.0000000e+00 0.0000000e+00 1.1750000e+01 
6.0000000e+00 0.0000000e+00 1.2000000e+01 
6.0000000e+00 0.0000000e+00 1.2250000e+01 
6.0000000e+00 0.0000000e+00 1.2500000e+01 
6.0000000e+00 0.0000000e+00 1.2750000e+01 
6.0000000e+00 0.0000000e+00 1.3000000e+01 
6.0000000e+00 0.0000000e+00 1.3250000e+01 
6.0000000e+00 0.0000000e+00 1.3500000e+01 
6.0000000e+00 0.0000000e+00 1.3750000e+01 
6.0000000e+00 0.0000000e+00 1.4000000e+01 
6.0000000e+00 0.0000000e+00 1.4250000e+01 
6.0000000e+00 0.0000000e+00 1.4500000e+01 
6.0000000e+00 0.0000000e+00 1.4750000e+01 
6.0000000e+00 0.0000000e+00 1.5000000e+01 
6.0000000e+00 0.0000000e+00 1.5250000e+01 
6.0000000e+00 0.0000000e+00 1.5500000e+01 
6.0000000e+00 0.0000000e+00 1.5750000e+01 
6.0000000e+00 0.0000000e+00 1.6000000e+01 
6.0000000e+00 0.0000000e+00 1.6250000e+01 
6.0000000e+00 0.0000000e+00 1.6500000e+01 
6.0000000e+00 0.0000000e+00 1.6750000e+01 
6.0000000e+00 0.0000000e+00 1.7000000e+01 
6.0000000e+00 0.0000000e+00 1.7250000e+01 
6.0000000e+00 0.0000000e+00 1.7500000e+01 
6.0000000e+00 0.0000000e+00 1.7750000e+01 
6.0000000e+00 0.0000000e+00 1.8000000e+01 

CELLS 216 648
2 0 1
2 1 2
2 2 3
2 3 4
2 4 5
2 5 6
2 6 7
2 7 8
2 8 9
2 9 10
2 10 11
2 11 12
2 12 13
2 13 14
2 14 15
2 15 16
2 16 17
2 17 18
2 18 19
2 19 20
2 20 21
2 21 22
2 22 23
2 23 24
2 24 25
2 25 26
2 26 27
2 27 28
2 28 29
2 29 30
2 30 31
2 31 32
2 32 33
2 33 34
2 34 35
2 35 36
2 36 37
2 37 38
2 38 39
2 39 40
2 40 41
2 41 42
2 42 43
2 43 44
2 44 45
2 45 46
2 46 47
2 47 48
2 48 49
2 49 50
2 50 51
2 51 52
2 52 53
2 53 54
2 54 55
2 55 56
2 56 57
2 57 58
2 58 59
2 59 60
2 60 61
2 61 62
2 62 63
2 63 64
2 64 65
2 65 66
2 66 67
2 67 68
2 68 69
2 69 70
2 70 71
2 71 72
2 139 140
2 140 141
2 141 142
2 142 143
2 143 144
2 144 145
2 145 146
2 146 147
2 147 148
2 148 149
2 149 150
2 150 151
2 151 152
2 152 153
2 153 154
2 154 155
2 155 156
2 156 157
2 157 158
2 158 159
2 159 160
2 160 161
2 161 162
2 162 163
2 163 164
2 164 165
2 165 166
2 166 167
2 167 168
2 168 169
2 169 170
2 170 171
2 171 172
2 172 173
2 173 174
2 174 175
2 175 176
2 176 177
2 177 178
2 178 179
2 179 180
2 180 181
2 181 182
2 182 183
2 183 184
2 184 185
2 185 186
2 186 187
2 187 188
2 188 189
2 189 190
2 190 191
2 191 192
2 192 193
2 193 194
2 194 195
2 195 196
2 196 197
2 197 198
2 198 199
2 199 200
2 200 201
2 201 202
2 202 203
2 203 204
2 204 205
2 205 206
2 206 207
2 207 208
2 208 209
2 209 210
2 210 211
2 12 73
2 73 79
2 79 85
2 85 91
2 91 97
2 97 103
2 103 109
2 109 115
2 115 121
2 121 127
2 127 133
2 133 151
2 24 74
2 74 80
2 80 86
2 86 92
2 92 98
2 98 104
2 104 110
2 110 116
2 116 122
2 122 128
2 128 134
2 134 163
2 36 75
2 75 81
2 81 87
2 87 93
2 93 99
2 99 105
2 105 111
2 111 117
2 117 123
2 123 129
2 129 135
2 135 175
2 48 76
2 76 82
2 82 88
2 88 94
2 94 100
2 100 106
2 106 112
2 112 118
2 118 124
2 124 130
2 130 136
2 136 187
2 60 77
2 77 83
2 83 89
2 89 95
2 95 101
2 101 107
2 107 113
2 113 119
2 119 125
2 125 131
2 131 137
2 137 199
2 72 78
2 78 84
2 84 90
2 90 96
2 96 102
2 102 108
2 108 114
2 114 120
2 120 126
2 126 132
2 132 138
2 138 211

CELL_TYPES 216
3
3
3
3
3
3
3
3
3
3
3
3
3
3
3
3
3
3
3
3
3
3
3
3
3
3
3
3
3
3
3
3
3
3
3
3
3
3
3
3
3
3
3
3
3
3
3
3
3
3
3
3
3
3
3
3
3
3
3
3
3
3
3
3
3
3
3
3
3
3
3
3
3
3
3
3
3
3
3
3
3
3
3
3
3
3
3
3
3
3
3
3
3
3
3
3
3
3
3
3
3
3
3
3
3
3
3
3
3
3
3
3
3
3
3
3
3
3
3
3
3
3
3
3
3
3
3
3
3
3
3
3
3
3
3
3
3
3
3
3
3
3
3
3
3
3
3
3
3
3
3
3
3
3
3
3
3
3
3
3
3
3
3
3
3
3
3
3
3
3
3
3
3
3
3
3
3
3
3
3
3
3
3
3
3
3
3
3
3
3
3
3
3
3
3
3
3
3
3
3
3
3
3
3
3
3
3
3
3
3
3
3
3
3
3
3
POINT_DATA 212
FIELD FieldData 3
ADJOINT_DISPLACEMENT 3 212  float
0.0000000e+00 0.0000000e+00 0.0000000e+00 
-7.0548791e-04 0.0000000e+00 -3.1520584e-17 
-1.4065321e-03 0.0000000e+00 -6.3041168e-17 
-2.0986891e-03 0.0000000e+00 -9.4561752e-17 
-2.7775154e-03 0.0000000e+00 -1.2608234e-16 
-3.4385670e-03 0.0000000e+00 -1.5760292e-16 
-4.0774005e-03 0.0000000e+00 -1.8912350e-16 
-4.6895724e-03 0.0000000e+00 -2.2064409e-16 
-5.2706385e-03 0.0000000e+00 -2.5216467e-16 
-5.8161560e-03 0.0000000e+00 -2.8368526e-16 
-6.3216807e-03 0.0000000e+00 -3.1520584e-16 
-6.7827692e-03 0.0000000e+00 -3.4672643e-16 
-7.1949782e-03 0.0000000e+00 -3.7824701e-16 
-7.6251258e-03 0.0000000e+00 5.3704987e-08 
-8.1607942e-03 0.0000000e+00 1.0740997e-07 
-8.8286847e-03 0.0000000e+00 1.6111495e-07 
-9.6554989e-03 0.0000000e+00 2.1481995e-07 
-1.0667938e-02 0.0000000e+00 2.6852493e-07 
-1.1892702e-02 0.0000000e+00 3.2222991e-07 
-1.3356495e-02 0.0000000e+00 3.7593489e-07 
-1.5086015e-02 0.0000000e+00 4.2963990e-07 
-1.7107964e-02 0.0000000e+00 4.8334488e-07 
-1.9449046e-02 0.0000000e+00 5.3704986e-07 
-2.2135958e-02 0.0000000e+00 5.9075484e-07 
-2.5195405e-02 0.0000000e+00 6.4445982e-07 
-2.8965831e-02 0.0000000e+00 9.1298955e-07 
-3.3690587e-02 0.0000000e+00 1.1815193e-06 
-3.9253730e-02 0.0000000e+00 1.4500490e-06 
-4.5539308e-02 0.0000000e+00 1.7185788e-06 
-5.2431379e-02 0.0000000e+00 1.9871086e-06 
-5.9813995e-02 0.0000000e+00 2.2556383e-06 
-6.7571215e-02 0.0000000e+00 2.5241679e-06 
-7.5587086e-02 0.0000000e+00 2.7926978e-06 
-8.3745666e-02 0.0000000e+00 3.0612275e-06 
-9.1931008e-02 0.0000000e+00 3.3297572e-06 
-1.0002717e-01 0.0000000e+00 3.5982869e-06 
-1.0791819e-01 0.0000000e+00 3.8668168e-06 
-1.1686258e-01 0.0000000e+00 5.1557845e-06 
-1.2852652e-01 0.0000000e+00 6.4447522e-06 
-1.4340562e-01 0.0000000e+00 7.7337199e-06 
-1.6199546e-01 0.0000000e+00 9.0226877e-06 
-1.8479167e-01 0.0000000e+00 1.0311655e-05 
-2.1228984e-01 0.0000000e+00 1.1600623e-05 
-2.4498557e-01 0.0000000e+00 1.2889591e-05 
-2.8337446e-01 0.0000000e+00 1.4178559e-05 
-3.2795215e-01 0.0000000e+00 1.5467527e-05 
-3.7921420e-01 0.0000000e+00 1.6756494e-05 
-4.3765619e-01 0.0000000e+00 1.8045463e-05 
-5.0377381e-01 0.0000000e+00 1.9334429e-05 
-5.6990647e-01 0.0000000e+00 1.8048289e-05 
-6.2838960e-01 0.0000000e+00 1.6762147e-05 
-6.7971271e-01 0.0000000e+00 1.5476006e-05 
-7.2436541e-01 0.0000000e+00 1.4189864e-05 
-7.6283723e-01 0.0000000e+00 1.2903723e-05 
-7.9561764e-01 0.0000000e+00 1.1617582e-05 
-8.2319623e-01 0.0000000e+00 1.0331441e-05 
-8.4606254e-01 0.0000000e+00 9.0452995e-06 
-8.6470610e-01 0.0000000e+00 7.7591585e-06 
-8.7961638e-01 0.0000000e+00 6.4730166e-06 
-8.9128304e-01 0.0000000e+00 5.1868756e-06 
-9.0019548e-01 0.0000000e+00 3.9007341e-06 
-9.0802425e-01 0.0000000e+00 3.6435106e-06 
-9.1605031e-01 0.0000000e+00 3.3862868e-06 
-9.2417890e-01 0.0000000e+00 3.1290633e-06 
-9.3231541e-01 0.0000000e+00 2.8718396e-06 
-9.4036514e-01 0.0000000e+00 2.6146158e-06 
-9.4823343e-01 0.0000000e+00 2.3573923e-06 
-9.5582557e-01 0.0000000e+00 2.1001686e-06 
-9.6304691e-01 0.0000000e+00 1.8429449e-06 
-9.6980286e-01 0.0000000e+00 1.5857213e-06 
-9.7599858e-01 0.0000000e+00 1.3284977e-06 
-9.8153955e-01 0.0000000e+00 1.0712740e-06 
-9.8633099e-01 0.0000000e+00 8.1405034e-07 
-7.1952459e-03 0.0000000e+00 5.2494742e-04 
-2.5194177e-02 0.0000000e+00 5.2344245e-03 
-1.0792345e-01 0.0000000e+00 1.0729977e-02 
-5.0377375e-01 0.0000000e+00 1.7208220e-01 
-9.0019047e-01 0.0000000e+00 1.0607157e-02 
-9.8633182e-01 0.0000000e+00 7.1625742e-03 
-7.1955137e-03 0.0000000e+00 6.2127464e-04 
-2.5192952e-02 0.0000000e+00 8.1838584e-03 
-1.0792871e-01 0.0000000e+00 1.3175170e-02 
-5.0377369e-01 0.0000000e+00 4.0459338e-01 
-9.0018547e-01 0.0000000e+00 1.2899227e-02 
-9.8633260e-01 0.0000000e+00 1.1426406e-02 
-7.1957815e-03 0.0000000e+00 3.8893422e-04 
-2.5191724e-02 0.0000000e+00 9.2487643e-03 
-1.0793396e-01 0.0000000e+00 9.2386259e-03 
-5.0377363e-01 0.0000000e+00 1.9276021e-01 
-9.0018046e-01 0.0000000e+00 8.7950705e-03 
-9.8633343e-01 0.0000000e+00 1.3271039e-02 
-7.1960492e-03 0.0000000e+00 -7.2121249e-05 
-2.5190499e-02 0.0000000e+00 8.8289622e-03 
-1.0793922e-01 0.0000000e+00 8.1952405e-04 
-5.0377357e-01 0.0000000e+00 3.1790078e-02 
-9.0017539e-01 0.0000000e+00 2.0964988e-04 
-9.8633426e-01 0.0000000e+00 1.3175204e-02 
-7.1963170e-03 0.0000000e+00 -6.6193927e-04 
-2.5189273e-02 0.0000000e+00 7.3242714e-03 
-1.0794448e-01 0.0000000e+00 -1.0182956e-02 
-5.0377357e-01 0.0000000e+00 -8.3109684e-02 
-9.0017039e-01 0.0000000e+00 -1.0942074e-02 
-9.8633504e-01 0.0000000e+00 1.1617630e-02 
-7.1965847e-03 0.0000000e+00 -1.2805671e-03 
-2.5188046e-02 0.0000000e+00 5.1345103e-03 
-1.0794973e-01 0.0000000e+00 -2.1869637e-02 
-5.0377351e-01 0.0000000e+00 -1.5673171e-01 
-9.0016538e-01 0.0000000e+00 -2.2745140e-02 
-9.8633587e-01 0.0000000e+00 9.0770451e-03 
-7.1968525e-03 0.0000000e+00 -1.8280525e-03 
-2.5186820e-02 0.0000000e+00 2.6594989e-03 
-1.0795499e-01 0.0000000e+00 -3.2341339e-02 
-5.0377345e-01 0.0000000e+00 -1.9386864e-01 
-9.0016037e-01 0.0000000e+00 -3.3284586e-02 
-9.8633671e-01 0.0000000e+00 6.0321800e-03 
-7.1971202e-03 0.0000000e+00 -2.2044426e-03 
-2.5185594e-02 0.0000000e+00 2.9905626e-04 
-1.0796025e-01 0.0000000e+00 -3.9698880e-02 
-5.0377339e-01 0.0000000e+00 -1.9931312e-01 
-9.0015531e-01 0.0000000e+00 -4.0645454e-02 
-9.8633748e-01 0.0000000e+00 2.9617646e-03 
-7.1973880e-03 0.0000000e+00 -2.3097850e-03 
-2.5184367e-02 0.0000000e+00 -1.5469986e-03 
-1.0796551e-01 0.0000000e+00 -4.2043082e-02 
-5.0377333e-01 0.0000000e+00 -1.7785779e-01 
-9.0015030e-01 0.0000000e+00 -4.2912778e-02 
-9.8633832e-01 0.0000000e+00 3.4452791e-04 
-7.1976557e-03 0.0000000e+00 -2.0441271e-03 
-2.5183141e-02 0.0000000e+00 -2.4788466e-03 
-1.0797077e-01 0.0000000e+00 -3.7474766e-02 
-5.0377327e-01 0.0000000e+00 -1.3429528e-01 
-9.0014529e-01 0.0000000e+00 -3.8171604e-02 
-9.8633915e-01 0.0000000e+00 -1.3408005e-03 
-7.1979235e-03 0.0000000e+00 -1.3075162e-03 
-2.5181914e-02 0.0000000e+00 -2.0966684e-03 
-1.0797602e-01 0.0000000e+00 -2.4094755e-02 
-5.0377321e-01 0.0000000e+00 -7.3418252e-02 
-9.0014029e-01 0.0000000e+00 -2.4506964e-02 
-9.8633993e-01 0.0000000e+00 -1.6154910e-03 
0.0000000e+00 0.0000000e+00 0.0000000e+00 
-4.9394288e-04 0.0000000e+00 1.6007722e-17 
-9.9232933e-04 0.0000000e+00 3.2015139e-17 
-1.4996032e-03 0.0000000e+00 4.8024081e-17 
-2.0202077e-03 0.0000000e+00 6.4031277e-17 
-2.5585869e-03 0.0000000e+00 8.0040014e-17 
-3.1191842e-03 0.0000000e+00 9.6045920e-17 
-3.7064431e-03 0.0000000e+00 1.1205147e-16 
-4.3248073e-03 0.0000000e+00 1.2805704e-16 
-4.9787206e-03 0.0000000e+00 1.4406380e-16 
-5.6726267e-03 0.0000000e+00 1.6006937e-16 
-6.4109690e-03 0.0000000e+00 1.7607646e-16 
-7.1981912e-03 0.0000000e+00 1.9208247e-16 
-8.1174029e-03 0.0000000e+00 -5.3704987e-08 
-9.2309518e-03 0.0000000e+00 -1.0740997e-07 
-1.0512136e-02 0.0000000e+00 -1.6111495e-07 
-1.1934255e-02 0.0000000e+00 -2.1481995e-07 
-1.3470607e-02 0.0000000e+00 -2.6852493e-07 
-1.5094490e-02 0.0000000e+00 -3.2222991e-07 
-1.6779203e-02 0.0000000e+00 -3.7593489e-07 
-1.8498046e-02 0.0000000e+00 -4.2963990e-07 
-2.0224318e-02 0.0000000e+00 -4.8334488e-07 
-2.1931317e-02 0.0000000e+00 -5.3704986e-07 
-2.3592340e-02 0.0000000e+00 -5.9075484e-07 
-2.5180688e-02 0.0000000e+00 -6.4445982e-07 
-2.6957642e-02 0.0000000e+00 -9.1298955e-07 
-2.9279580e-02 0.0000000e+00 -1.1815193e-06 
-3.2262452e-02 0.0000000e+00 -1.4500490e-06 
-3.6022197e-02 0.0000000e+00 -1.7185788e-06 
-4.0674768e-02 0.0000000e+00 -1.9871086e-06 
-4.6336111e-02 0.0000000e+00 -2.2556383e-06 
-5.3122167e-02 0.0000000e+00 -2.5241679e-06 
-6.1148882e-02 0.0000000e+00 -2.7926978e-06 
-7.0532203e-02 0.0000000e+00 -3.0612275e-06 
-8.1388079e-02 0.0000000e+00 -3.3297572e-06 
-9.3832456e-02 0.0000000e+00 -3.5982869e-06 
-1.0798128e-01 0.0000000e+00 -3.8668168e-06 
-1.2542483e-01 0.0000000e+00 -5.1557845e-06 
-1.4734568e-01 0.0000000e+00 -6.4447522e-06 
-1.7324822e-01 0.0000000e+00 -7.7337199e-06 
-2.0263687e-01 0.0000000e+00 -9.0226877e-06 
-2.3501600e-01 0.0000000e+00 -1.0311655e-05 
-2.6989004e-01 0.0000000e+00 -1.1600623e-05 
-3.0676335e-01 0.0000000e+00 -1.2889591e-05 
-3.4514037e-01 0.0000000e+00 -1.4178559e-05 
-3.8452545e-01 0.0000000e+00 -1.5467527e-05 
-4.2442301e-01 0.0000000e+00 -1.6756494e-05 
-4.6433747e-01 0.0000000e+00 -1.8045463e-05 
-5.0377315e-01 0.0000000e+00 -1.9334429e-05 
-5.4320174e-01 0.0000000e+00 -1.8048289e-05 
-5.8309877e-01 0.0000000e+00 -1.6762147e-05 
-6.2297463e-01 0.0000000e+00 -1.5476006e-05 
-6.6233993e-01 0.0000000e+00 -1.4189864e-05 
-7.0070505e-01 0.0000000e+00 -1.2903723e-05 
-7.3758048e-01 0.0000000e+00 -1.1617582e-05 
-7.7247667e-01 0.0000000e+00 -1.0331441e-05 
-8.0490410e-01 0.0000000e+00 -9.0452995e-06 
-8.3437318e-01 0.0000000e+00 -7.7591585e-06 
-8.6039442e-01 0.0000000e+00 -6.4730166e-06 
-8.8247830e-01 0.0000000e+00 -5.1868756e-06 
-9.0013522e-01 0.0000000e+00 -3.9007341e-06 
-9.1456723e-01 0.0000000e+00 -3.6435106e-06 
-9.2736584e-01 0.0000000e+00 -3.3862868e-06 
-9.3862563e-01 0.0000000e+00 -3.1290633e-06 
-9.4844139e-01 0.0000000e+00 -2.8718396e-06 
-9.5690769e-01 0.0000000e+00 -2.6146158e-06 
-9.6411926e-01 0.0000000e+00 -2.3573923e-06 
-9.7017074e-01 0.0000000e+00 -2.1001686e-06 
-9.7515684e-01 0.0000000e+00 -1.8429449e-06 
-9.7917223e-01 0.0000000e+00 -1.5857213e-06 
-9.8231155e-01 0.0000000e+00 -1.3284977e-06 
-9.8466951e-01 0.0000000e+00 -1.0712740e-06 
-9.8634076e-01 0.0000000e+00 -8.1405034e-07 
ADJOINT_ROTATION 3 212  float
0.0000000e+00 -2.8249139e-03 0.0000000e+00 
0.0000000e+00 -2.8160268e-03 0.0000000e+00 
0.0000000e+00 -2.7893651e-03 0.0000000e+00 
0.0000000e+00 -2.7449287e-03 0.0000000e+00 
0.0000000e+00 -2.6827180e-03 0.0000000e+00 
0.0000000e+00 -2.6027327e-03 0.0000000e+00 
0.0000000e+00 -2.5049730e-03 0.0000000e+00 
0.0000000e+00 -2.3894387e-03 0.0000000e+00 
0.0000000e+00 -2.2561301e-03 0.0000000e+00 
0.0000000e+00 -2.1050468e-03 0.0000000e+00 
0.0000000e+00 -1.9361890e-03 0.0000000e+00 
0.0000000e+00 -1.7495569e-03 0.0000000e+00 
0.0000000e+00 -1.5451501e-03 0.0000000e+00 
0.0000000e+00 -1.9138313e-03 0.0000000e+00 
0.0000000e+00 -2.3893176e-03 0.0000000e+00 
0.0000000e+00 -2.9716087e-03 0.0000000e+00 
0.0000000e+00 -3.6607049e-03 0.0000000e+00 
0.0000000e+00 -4.4566062e-03 0.0000000e+00 
0.0000000e+00 -5.3593121e-03 0.0000000e+00 
0.0000000e+00 -6.3688233e-03 0.0000000e+00 
0.0000000e+00 -7.4851392e-03 0.0000000e+00 
0.0000000e+00 -8.7082600e-03 0.0000000e+00 
0.0000000e+00 -1.0038186e-02 0.0000000e+00 
0.0000000e+00 -1.1474918e-02 0.0000000e+00 
0.0000000e+00 -1.3018453e-02 0.0000000e+00 
0.0000000e+00 -1.7067665e-02 0.0000000e+00 
0.0000000e+00 -2.0653093e-02 0.0000000e+00 
0.0000000e+00 -2.3774737e-02 0.0000000e+00 
0.0000000e+00 -2.6432598e-02 0.0000000e+00 
0.0000000e+00 -2.8626675e-02 0.0000000e+00 
0.0000000e+00 -3.0356966e-02 0.0000000e+00 
0.0000000e+00 -3.1623475e-02 0.0000000e+00 
0.0000000e+00 -3.2426197e-02 0.0000000e+00 
0.0000000e+00 -3.2765139e-02 0.0000000e+00 
0.0000000e+00 -3.2640297e-02 0.0000000e+00 
0.0000000e+00 -3.2051668e-02 0.0000000e+00 
0.0000000e+00 -3.0999256e-02 0.0000000e+00 
0.0000000e+00 -4.0886253e-02 0.0000000e+00 
0.0000000e+00 -5.2755661e-02 0.0000000e+00 
0.0000000e+00 -6.6607483e-02 0.0000000e+00 
0.0000000e+00 -8.2441710e-02 0.0000000e+00 
0.0000000e+00 -1.0025835e-01 0.0000000e+00 
0.0000000e+00 -1.2005740e-01 0.0000000e+00 
0.0000000e+00 -1.4183886e-01 0.0000000e+00 
0.0000000e+00 -1.6560274e-01 0.0000000e+00 
0.0000000e+00 -1.9134903e-01 0.0000000e+00 
0.0000000e+00 -2.1907772e-01 0.0000000e+00 
0.0000000e+00 -2.4878883e-01 0.0000000e+00 
0.0000000e+00 -2.8048235e-01 0.0000000e+00 
0.0000000e+00 -2.4890520e-01 0.0000000e+00 
0.0000000e+00 -2.1928620e-01 0.0000000e+00 
0.0000000e+00 -1.9162534e-01 0.0000000e+00 
0.0000000e+00 -1.6592264e-01 0.0000000e+00 
0.0000000e+00 -1.4217809e-01 0.0000000e+00 
0.0000000e+00 -1.2039168e-01 0.0000000e+00 
0.0000000e+00 -1.0056342e-01 0.0000000e+00 
0.0000000e+00 -8.2693309e-02 0.0000000e+00 
0.0000000e+00 -6.6781342e-02 0.0000000e+00 
0.0000000e+00 -5.2827526e-02 0.0000000e+00 
0.0000000e+00 -4.0831860e-02 0.0000000e+00 
0.0000000e+00 -3.0794339e-02 0.0000000e+00 
0.0000000e+00 -3.1772692e-02 0.0000000e+00 
0.0000000e+00 -3.2372348e-02 0.0000000e+00 
0.0000000e+00 -3.2593310e-02 0.0000000e+00 
0.0000000e+00 -3.2435570e-02 0.0000000e+00 
0.0000000e+00 -3.1899139e-02 0.0000000e+00 
0.0000000e+00 -3.0984009e-02 0.0000000e+00 
0.0000000e+00 -2.9690182e-02 0.0000000e+00 
0.0000000e+00 -2.8017659e-02 0.0000000e+00 
0.0000000e+00 -2.5966439e-02 0.0000000e+00 
0.0000000e+00 -2.3536524e-02 0.0000000e+00 
0.0000000e+00 -2.0727910e-02 0.0000000e+00 
0.0000000e+00 -1.7540602e-02 0.0000000e+00 
0.0000000e+00 -5.8795710e-04 0.0000000e+00 
0.0000000e+00 -8.0499407e-03 0.0000000e+00 
0.0000000e+00 -1.2538243e-02 0.0000000e+00 
0.0000000e+00 -4.0617159e-01 0.0000000e+00 
0.0000000e+00 -1.2257005e-02 0.0000000e+00 
0.0000000e+00 -1.1266015e-02 0.0000000e+00 
0.0000000e+00 1.6933071e-04 0.0000000e+00 
0.0000000e+00 -3.8810666e-03 0.0000000e+00 
0.0000000e+00 2.1244104e-03 0.0000000e+00 
0.0000000e+00 -5.2227557e-01 0.0000000e+00 
0.0000000e+00 2.4504068e-03 0.0000000e+00 
0.0000000e+00 -5.9488891e-03 0.0000000e+00 
0.0000000e+00 7.2671339e-04 0.0000000e+00 
0.0000000e+00 -5.1183102e-04 0.0000000e+00 
0.0000000e+00 1.2988706e-02 0.0000000e+00 
0.0000000e+00 3.7120575e-01 0.0000000e+00 
0.0000000e+00 1.3327897e-02 0.0000000e+00 
0.0000000e+00 -1.5892218e-03 0.0000000e+00 
0.0000000e+00 1.0841910e-03 0.0000000e+00 
0.0000000e+00 2.0577661e-03 0.0000000e+00 
0.0000000e+00 2.0054642e-02 0.0000000e+00 
0.0000000e+00 2.7427235e-01 0.0000000e+00 
0.0000000e+00 2.0375464e-02 0.0000000e+00 
0.0000000e+00 1.8129866e-03 0.0000000e+00 
0.0000000e+00 1.2417635e-03 0.0000000e+00 
0.0000000e+00 3.8277248e-03 0.0000000e+00 
0.0000000e+00 2.3322221e-02 0.0000000e+00 
0.0000000e+00 1.8692425e-01 0.0000000e+00 
0.0000000e+00 2.3593109e-02 0.0000000e+00 
0.0000000e+00 4.2577358e-03 0.0000000e+00 
0.0000000e+00 1.1994308e-03 0.0000000e+00 
0.0000000e+00 4.7980454e-03 0.0000000e+00 
0.0000000e+00 2.2791440e-02 0.0000000e+00 
0.0000000e+00 1.0916141e-01 0.0000000e+00 
0.0000000e+00 2.2980833e-02 0.0000000e+00 
0.0000000e+00 5.7450258e-03 0.0000000e+00 
0.0000000e+00 9.5719297e-04 0.0000000e+00 
0.0000000e+00 4.9687275e-03 0.0000000e+00 
0.0000000e+00 1.8462302e-02 0.0000000e+00 
0.0000000e+00 4.0983863e-02 0.0000000e+00 
0.0000000e+00 1.8538633e-02 0.0000000e+00 
0.0000000e+00 6.2748571e-03 0.0000000e+00 
0.0000000e+00 5.1505002e-04 0.0000000e+00 
0.0000000e+00 4.3397709e-03 0.0000000e+00 
0.0000000e+00 1.0334804e-02 0.0000000e+00 
0.0000000e+00 -1.7608402e-02 0.0000000e+00 
0.0000000e+00 1.0266514e-02 0.0000000e+00 
0.0000000e+00 5.8472287e-03 0.0000000e+00 
0.0000000e+00 -1.2699803e-04 0.0000000e+00 
0.0000000e+00 2.9111758e-03 0.0000000e+00 
0.0000000e+00 -1.5910522e-03 0.0000000e+00 
0.0000000e+00 -6.6615388e-02 0.0000000e+00 
0.0000000e+00 -1.8355297e-03 0.0000000e+00 
0.0000000e+00 4.4621415e-03 0.0000000e+00 
0.0000000e+00 -9.6895121e-04 0.0000000e+00 
0.0000000e+00 6.8294263e-04 0.0000000e+00 
0.0000000e+00 -1.7315267e-02 0.0000000e+00 
0.0000000e+00 -1.0603708e-01 0.0000000e+00 
0.0000000e+00 -1.7767495e-02 0.0000000e+00 
0.0000000e+00 2.1195954e-03 0.0000000e+00 
0.0000000e+00 -2.0108095e-03 0.0000000e+00 
0.0000000e+00 -2.3449291e-03 0.0000000e+00 
0.0000000e+00 -3.6837839e-02 0.0000000e+00 
0.0000000e+00 -1.3587350e-01 0.0000000e+00 
0.0000000e+00 -3.7529383e-02 0.0000000e+00 
0.0000000e+00 -1.1804099e-03 0.0000000e+00 
0.0000000e+00 -1.9728090e-03 0.0000000e+00 
0.0000000e+00 -1.9816963e-03 0.0000000e+00 
0.0000000e+00 -2.0083580e-03 0.0000000e+00 
0.0000000e+00 -2.0527942e-03 0.0000000e+00 
0.0000000e+00 -2.1150052e-03 0.0000000e+00 
0.0000000e+00 -2.1949904e-03 0.0000000e+00 
0.0000000e+00 -2.2927499e-03 0.0000000e+00 
0.0000000e+00 -2.4082842e-03 0.0000000e+00 
0.0000000e+00 -2.5415930e-03 0.0000000e+00 
0.0000000e+00 -2.6926764e-03 0.0000000e+00 
0.0000000e+00 -2.8615340e-03 0.0000000e+00 
0.0000000e+00 -3.0481662e-03 0.0000000e+00 
0.0000000e+00 -3.2525731e-03 0.0000000e+00 
0.0000000e+00 -4.0833224e-03 0.0000000e+00 
0.0000000e+00 -4.8072669e-03 0.0000000e+00 
0.0000000e+00 -5.4244064e-03 0.0000000e+00 
0.0000000e+00 -5.9347413e-03 0.0000000e+00 
0.0000000e+00 -6.3382708e-03 0.0000000e+00 
0.0000000e+00 -6.6349953e-03 0.0000000e+00 
0.0000000e+00 -6.8249153e-03 0.0000000e+00 
0.0000000e+00 -6.9080298e-03 0.0000000e+00 
0.0000000e+00 -6.8843397e-03 0.0000000e+00 
0.0000000e+00 -6.7538447e-03 0.0000000e+00 
0.0000000e+00 -6.5165441e-03 0.0000000e+00 
0.0000000e+00 -6.1724391e-03 0.0000000e+00 
0.0000000e+00 -8.1204884e-03 0.0000000e+00 
0.0000000e+00 -1.0532321e-02 0.0000000e+00 
0.0000000e+00 -1.3407938e-02 0.0000000e+00 
0.0000000e+00 -1.6747339e-02 0.0000000e+00 
0.0000000e+00 -2.0550525e-02 0.0000000e+00 
0.0000000e+00 -2.4817493e-02 0.0000000e+00 
0.0000000e+00 -2.9548246e-02 0.0000000e+00 
0.0000000e+00 -3.4742784e-02 0.0000000e+00 
0.0000000e+00 -4.0401105e-02 0.0000000e+00 
0.0000000e+00 -4.6523210e-02 0.0000000e+00 
0.0000000e+00 -5.3109098e-02 0.0000000e+00 
0.0000000e+00 -6.0158771e-02 0.0000000e+00 
0.0000000e+00 -7.9059184e-02 0.0000000e+00 
0.0000000e+00 -9.5977187e-02 0.0000000e+00 
0.0000000e+00 -1.1091278e-01 0.0000000e+00 
0.0000000e+00 -1.2386597e-01 0.0000000e+00 
0.0000000e+00 -1.3483673e-01 0.0000000e+00 
0.0000000e+00 -1.4382510e-01 0.0000000e+00 
0.0000000e+00 -1.5083104e-01 0.0000000e+00 
0.0000000e+00 -1.5585458e-01 0.0000000e+00 
0.0000000e+00 -1.5889572e-01 0.0000000e+00 
0.0000000e+00 -1.5995443e-01 0.0000000e+00 
0.0000000e+00 -1.5903074e-01 0.0000000e+00 
0.0000000e+00 -1.5612464e-01 0.0000000e+00 
0.0000000e+00 -1.5897749e-01 0.0000000e+00 
0.0000000e+00 -1.5987220e-01 0.0000000e+00 
0.0000000e+00 -1.5880877e-01 0.0000000e+00 
0.0000000e+00 -1.5578718e-01 0.0000000e+00 
0.0000000e+00 -1.5080746e-01 0.0000000e+00 
0.0000000e+00 -1.4386958e-01 0.0000000e+00 
0.0000000e+00 -1.3497354e-01 0.0000000e+00 
0.0000000e+00 -1.2411937e-01 0.0000000e+00 
0.0000000e+00 -1.1130705e-01 0.0000000e+00 
0.0000000e+00 -9.6536577e-02 0.0000000e+00 
0.0000000e+00 -7.9807959e-02 0.0000000e+00 
0.0000000e+00 -6.1121192e-02 0.0000000e+00 
0.0000000e+00 -5.4398082e-02 0.0000000e+00 
0.0000000e+00 -4.8053674e-02 0.0000000e+00 