# vtk DataFile Version 4.0
vtk output
ASCII
DATASET UNSTRUCTURED_GRID
POINTS 32 float
0.0000000e+00 0.0000000e+00 0.0000000e+00 
0.0000000e+00 0.0000000e+00 1.5000000e+00 
0.0000000e+00 0.0000000e+00 3.0000000e+00 
0.0000000e+00 0.0000000e+00 4.5000000e+00 
0.0000000e+00 0.0000000e+00 6.0000000e+00 
0.0000000e+00 0.0000000e+00 7.5000000e+00 
0.0000000e+00 0.0000000e+00 9.0000000e+00 
0.0000000e+00 0.0000000e+00 1.0500000e+01 
0.0000000e+00 0.0000000e+00 1.2000000e+01 
0.0000000e+00 0.0000000e+00 1.3500000e+01 
0.0000000e+00 0.0000000e+00 1.5000000e+01 
0.0000000e+00 0.0000000e+00 1.6500000e+01 
0.0000000e+00 0.0000000e+00 1.8000000e+01 
3.0000000e+00 0.0000000e+00 3.0000000e+00 
3.0000000e+00 0.0000000e+00 6.0000000e+00 
3.0000000e+00 0.0000000e+00 9.0000000e+00 
3.0000000e+00 0.0000000e+00 1.2000000e+01 
3.0000000e+00 0.0000000e+00 1.5000000e+01 
3.0000000e+00 0.0000000e+00 1.8000000e+01 
6.0000000e+00 0.0000000e+00 0.0000000e+00 
6.0000000e+00 0.0000000e+00 1.5000000e+00 
6.0000000e+00 0.0000000e+00 3.0000000e+00 
6.0000000e+00 0.0000000e+00 4.5000000e+00 
6.0000000e+00 0.0000000e+00 6.0000000e+00 
6.0000000e+00 0.0000000e+00 7.5000000e+00 
6.0000000e+00 0.0000000e+00 9.0000000e+00 
6.0000000e+00 0.0000000e+00 1.0500000e+01 
6.0000000e+00 0.0000000e+00 1.2000000e+01 
6.0000000e+00 0.0000000e+00 1.3500000e+01 
6.0000000e+00 0.0000000e+00 1.5000000e+01 
6.0000000e+00 0.0000000e+00 1.6500000e+01 
6.0000000e+00 0.0000000e+00 1.8000000e+01 

CELLS 36 108
2 0 1
2 1 2
2 2 3
2 3 4
2 4 5
2 5 6
2 6 7
2 7 8
2 8 9
2 9 10
2 10 11
2 11 12
2 19 20
2 20 21
2 21 22
2 22 23
2 23 24
2 24 25
2 25 26
2 26 27
2 27 28
2 28 29
2 29 30
2 30 31
2 2 13
2 13 21
2 4 14
2 14 23
2 6 15
2 15 25
2 8 16
2 16 27
2 10 17
2 17 29
2 12 18
2 18 31

CELL_TYPES 36
3
3
3
3
3
3
3
3
3
3
3
3
3
3
3
3
3
3
3
3
3
3
3
3
3
3
3
3
3
3
3
3
3
3
3
3
POINT_DATA 32
FIELD FieldData 3
ADJOINT_DISPLACEMENT 3 32  float
0.0000000e+00 0.0000000e+00 0.0000000e+00 
-2.2646394e-02 0.0000000e+00 9.1185724e-17 
-6.6280171e-02 0.0000000e+00 1.8237145e-16 
-1.5857692e-01 0.0000000e+00 8.2829167e-05 
-2.2757323e-01 0.0000000e+00 1.6565833e-04 
-2.3510516e-01 0.0000000e+00 5.8001437e-04 
-2.2839241e-01 0.0000000e+00 9.9437044e-04 
-1.6086258e-01 0.0000000e+00 1.0807969e-03 
-7.3111907e-02 0.0000000e+00 1.1672233e-03 
-4.1979413e-02 0.0000000e+00 1.1852189e-03 
-3.7979532e-02 0.0000000e+00 1.2032146e-03 
-3.5008274e-02 0.0000000e+00 1.2068119e-03 
-2.9952195e-02 0.0000000e+00 1.2104092e-03 
-6.5268591e-02 0.0000000e+00 2.8488964e-02 
-2.2844008e-01 0.0000000e+00 -1.1601482e-01 
-2.2927737e-01 0.0000000e+00 1.1573287e-01 
-7.2032459e-02 0.0000000e+00 -2.6863672e-02 
-3.8212944e-02 0.0000000e+00 6.1309943e-03 
-2.9915944e-02 0.0000000e+00 -2.2906011e-03 
0.0000000e+00 0.0000000e+00 0.0000000e+00 
-4.2622201e-02 0.0000000e+00 -9.0700123e-17 
-6.4257018e-02 0.0000000e+00 -1.8141230e-16 
-8.6180307e-02 0.0000000e+00 -8.2829167e-05 
-2.2930692e-01 0.0000000e+00 -1.6565833e-04 
-7.2773081e-01 0.0000000e+00 -5.8001437e-04 
-2.3016235e-01 0.0000000e+00 -9.9437044e-04 
-8.9369833e-02 0.0000000e+00 -1.0807969e-03 
-7.0953004e-02 0.0000000e+00 -1.1672233e-03 
-5.7630707e-02 0.0000000e+00 -1.1852189e-03 
-3.8446352e-02 0.0000000e+00 -1.2032146e-03 
-3.0994635e-02 0.0000000e+00 -1.2068119e-03 
-2.9879691e-02 0.0000000e+00 -1.2104092e-03 
ADJOINT_ROTATION 3 32  float
0.0000000e+00 -1.2765664e-02 0.0000000e+00 
0.0000000e+00 -1.9761458e-02 0.0000000e+00 
0.0000000e+00 -4.0748842e-02 0.0000000e+00 
0.0000000e+00 -6.8038926e-02 0.0000000e+00 
0.0000000e+00 -9.6815815e-03 0.0000000e+00 
0.0000000e+00 -3.1703000e-04 0.0000000e+00 
0.0000000e+00 9.3113380e-03 0.0000000e+00 
0.0000000e+00 6.6244297e-02 0.0000000e+00 
0.0000000e+00 3.6272474e-02 0.0000000e+00 
0.0000000e+00 8.4741553e-03 0.0000000e+00 
0.0000000e+00 9.5654766e-05 0.0000000e+00 
0.0000000e+00 3.2709015e-03 0.0000000e+00 
0.0000000e+00 2.8754158e-03 0.0000000e+00 
0.0000000e+00 1.0878099e-02 0.0000000e+00 
0.0000000e+00 4.3595225e-02 0.0000000e+00 
0.0000000e+00 -4.2736109e-02 0.0000000e+00 
0.0000000e+00 -8.5980678e-03 0.0000000e+00 
0.0000000e+00 -1.4898849e-03 0.0000000e+00 
0.0000000e+00 -6.8969610e-05 0.0000000e+00 
0.0000000e+00 -3.0746732e-02 0.0000000e+00 
0.0000000e+00 -2.3750937e-02 0.0000000e+00 
0.0000000e+00 -2.7635547e-03 0.0000000e+00 
0.0000000e+00 -4.0742066e-02 0.0000000e+00 
0.0000000e+00 -1.6436800e-01 0.0000000e+00 
0.0000000e+00 -5.0024116e-01 0.0000000e+00 
0.0000000e+00 1.6362184e-01 0.0000000e+00 
0.0000000e+00 3.8585652e-02 0.0000000e+00 
0.0000000e+00 4.5424409e-04 0.0000000e+00 
0.0000000e+00 1.4072188e-02 0.0000000e+00 
0.0000000e+00 8.2703140e-03 0.0000000e+00 
0.0000000e+00 2.2604314e-03 0.0000000e+00 
0.0000000e+00 -1.7871908e-04 0.0000000e+00 
SHAPE_SENSITIVITY 3 32  float
0.0000000e+00 0.0000000e+00 0.0000000e+00 
0.0000000e+00 0.0000000e+00 0.0000000e+00 
0.0000000e+00 0.0000000e+00 0.0000000e+00 
0.0000000e+00 0.0000000e+00 0.0000000e+00 
0.0000000e+00 0.0000000e+00 0.0000000e+00 
0.0000000e+00 0.0000000e+00 0.0000000e+00 
0.0000000e+00 0.0000000e+00 0.0000000e+00 
0.0000000e+00 0.0000000e+00 0.0000000e+00 
0.0000000e+00 0.0000000e+00 0.0000000e+00 
0.0000000e+00 0.0000000e+00 0.0000000e+00 
0.0000000e+00 0.0000000e+00 0.0000000e+00 
0.0000000e+00 0.0000000e+00 0.0000000e+00 
0.0000000e+00 0.0000000e+00 0.0000000e+00 
0.0000000e+00 0.0000000e+00 0.0000000e+00 
0.0000000e+00 0.0000000e+00 0.0000000e+00 
0.0000000e+00 0.0000000e+00 0.0000000e+00 
0.0000000e+00 0.0000000e+00 0.0000000e+00 
0.0000000e+00 0.0000000e+00 0.0000000e+00 
0.0000000e+00 0.0000000e+00 0.0000000e+00 
0.0000000e+00 0.0000000e+00 0.0000000e+00 
0.0000000e+00 0.0000000e+00 0.0000000e+00 
0.0000000e+00 0.0000000e+00 0.0000000e+00 
0.0000000e+00 0.0000000e+00 0.0000000e+00 
0.0000000e+00 0.0000000e+00 0.0000000e+00 
0.0000000e+00 0.0000000e+00 0.0000000e+00 
0.0000000e+00 0.0000000e+00 0.0000000e+00 
0.0000000e+00 0.0000000e+00 0.0000000e+00 
0.0000000e+00 0.0000000e+00 0.0000000e+00 
0.0000000e+00 0.0000000e+00 0.0000000e+00 
0.0000000e+00 0.0000000e+00 0.0000000e+00 
0.0000000e+00 0.0000000e+00 0.0000000e+00 
0.0000000e+00 0.0000000e+00 0.0000000e+00 
CELL_DATA 36
FIELD FieldData 1
I22_SENSITIVITY 1 36  float
2.3216650e+04
1.6251656e+05
-3.6839106e+05
-5.2236012e+05
6.1404992e+04
-6.7817203e+04
5.1284616e+05
3.2820766e+05
-2.1858283e+05
2.4986123e+04
2.7617283e+04
1.2040601e+04
2.3216650e+04
1.6251656e+05
2.3574722e+05
-9.7708144e+05
2.2128048e+06
-2.3574335e+06
1.0000016e+06
-1.7762477e+05
-1.1742986e+05
-5.1640547e+04
4.6639676e+04
-2.9039461e+04
-8.0260914e+04
2.0559833e+05
-8.8826762e+05
5.5491844e+05
8.6901650e+05
-5.0381638e+05
9.4700711e+04
-1.8438170e+05
4.0965375e+04
-2.7567244e+04
-5.3975337e+03
-1.1490990e+04
