# vtk DataFile Version 4.0
vtk output
ASCII
DATASET UNSTRUCTURED_GRID
POINTS 212 float
0.0000000e+00 0.0000000e+00 0.0000000e+00 
0.0000000e+00 0.0000000e+00 2.5000000e-01 
0.0000000e+00 0.0000000e+00 5.0000000e-01 
0.0000000e+00 0.0000000e+00 7.5000000e-01 
0.0000000e+00 0.0000000e+00 1.0000000e+00 
0.0000000e+00 0.0000000e+00 1.2500000e+00 
0.0000000e+00 0.0000000e+00 1.5000000e+00 
0.0000000e+00 0.0000000e+00 1.7500000e+00 
0.0000000e+00 0.0000000e+00 2.0000000e+00 
0.0000000e+00 0.0000000e+00 2.2500000e+00 
0.0000000e+00 0.0000000e+00 2.5000000e+00 
0.0000000e+00 0.0000000e+00 2.7500000e+00 
0.0000000e+00 0.0000000e+00 3.0000000e+00 
0.0000000e+00 0.0000000e+00 3.2500000e+00 
0.0000000e+00 0.0000000e+00 3.5000000e+00 
0.0000000e+00 0.0000000e+00 3.7500000e+00 
0.0000000e+00 0.0000000e+00 4.0000000e+00 
0.0000000e+00 0.0000000e+00 4.2500000e+00 
0.0000000e+00 0.0000000e+00 4.5000000e+00 
0.0000000e+00 0.0000000e+00 4.7500000e+00 
0.0000000e+00 0.0000000e+00 5.0000000e+00 
0.0000000e+00 0.0000000e+00 5.2500000e+00 
0.0000000e+00 0.0000000e+00 5.5000000e+00 
0.0000000e+00 0.0000000e+00 5.7500000e+00 
0.0000000e+00 0.0000000e+00 6.0000000e+00 
0.0000000e+00 0.0000000e+00 6.2500000e+00 
0.0000000e+00 0.0000000e+00 6.5000000e+00 
0.0000000e+00 0.0000000e+00 6.7500000e+00 
0.0000000e+00 0.0000000e+00 7.0000000e+00 
0.0000000e+00 0.0000000e+00 7.2500000e+00 
0.0000000e+00 0.0000000e+00 7.5000000e+00 
0.0000000e+00 0.0000000e+00 7.7500000e+00 
0.0000000e+00 0.0000000e+00 8.0000000e+00 
0.0000000e+00 0.0000000e+00 8.2500000e+00 
0.0000000e+00 0.0000000e+00 8.5000000e+00 
0.0000000e+00 0.0000000e+00 8.7500000e+00 
0.0000000e+00 0.0000000e+00 9.0000000e+00 
0.0000000e+00 0.0000000e+00 9.2500000e+00 
0.0000000e+00 0.0000000e+00 9.5000000e+00 
0.0000000e+00 0.0000000e+00 9.7500000e+00 
0.0000000e+00 0.0000000e+00 1.0000000e+01 
0.0000000e+00 0.0000000e+00 1.0250000e+01 
0.0000000e+00 0.0000000e+00 1.0500000e+01 
0.0000000e+00 0.0000000e+00 1.0750000e+01 
0.0000000e+00 0.0000000e+00 1.1000000e+01 
0.0000000e+00 0.0000000e+00 1.1250000e+01 
0.0000000e+00 0.0000000e+00 1.1500000e+01 
0.0000000e+00 0.0000000e+00 1.1750000e+01 
0.0000000e+00 0.0000000e+00 1.2000000e+01 
0.0000000e+00 0.0000000e+00 1.2250000e+01 
0.0000000e+00 0.0000000e+00 1.2500000e+01 
0.0000000e+00 0.0000000e+00 1.2750000e+01 
0.0000000e+00 0.0000000e+00 1.3000000e+01 
0.0000000e+00 0.0000000e+00 1.3250000e+01 
0.0000000e+00 0.0000000e+00 1.3500000e+01 
0.0000000e+00 0.0000000e+00 1.3750000e+01 
0.0000000e+00 0.0000000e+00 1.4000000e+01 
0.0000000e+00 0.0000000e+00 1.4250000e+01 
0.0000000e+00 0.0000000e+00 1.4500000e+01 
0.0000000e+00 0.0000000e+00 1.4750000e+01 
0.0000000e+00 0.0000000e+00 1.5000000e+01 
0.0000000e+00 0.0000000e+00 1.5250000e+01 
0.0000000e+00 0.0000000e+00 1.5500000e+01 
0.0000000e+00 0.0000000e+00 1.5750000e+01 
0.0000000e+00 0.0000000e+00 1.6000000e+01 
0.0000000e+00 0.0000000e+00 1.6250000e+01 
0.0000000e+00 0.0000000e+00 1.6500000e+01 
0.0000000e+00 0.0000000e+00 1.6750000e+01 
0.0000000e+00 0.0000000e+00 1.7000000e+01 
0.0000000e+00 0.0000000e+00 1.7250000e+01 
0.0000000e+00 0.0000000e+00 1.7500000e+01 
0.0000000e+00 0.0000000e+00 1.7750000e+01 
0.0000000e+00 0.0000000e+00 1.8000000e+01 
6.0000000e+00 0.0000000e+00 0.0000000e+00 
6.0000000e+00 0.0000000e+00 2.5000000e-01 
6.0000000e+00 0.0000000e+00 5.0000000e-01 
6.0000000e+00 0.0000000e+00 7.5000000e-01 
6.0000000e+00 0.0000000e+00 1.0000000e+00 
6.0000000e+00 0.0000000e+00 1.2500000e+00 
6.0000000e+00 0.0000000e+00 1.5000000e+00 
6.0000000e+00 0.0000000e+00 1.7500000e+00 
6.0000000e+00 0.0000000e+00 2.0000000e+00 
6.0000000e+00 0.0000000e+00 2.2500000e+00 
6.0000000e+00 0.0000000e+00 2.5000000e+00 
6.0000000e+00 0.0000000e+00 2.7500000e+00 
6.0000000e+00 0.0000000e+00 3.0000000e+00 
6.0000000e+00 0.0000000e+00 3.2500000e+00 
6.0000000e+00 0.0000000e+00 3.5000000e+00 
6.0000000e+00 0.0000000e+00 3.7500000e+00 
6.0000000e+00 0.0000000e+00 4.0000000e+00 
6.0000000e+00 0.0000000e+00 4.2500000e+00 
6.0000000e+00 0.0000000e+00 4.5000000e+00 
6.0000000e+00 0.0000000e+00 4.7500000e+00 
6.0000000e+00 0.0000000e+00 5.0000000e+00 
6.0000000e+00 0.0000000e+00 5.2500000e+00 
6.0000000e+00 0.0000000e+00 5.5000000e+00 
6.0000000e+00 0.0000000e+00 5.7500000e+00 
6.0000000e+00 0.0000000e+00 6.0000000e+00 
6.0000000e+00 0.0000000e+00 6.2500000e+00 
6.0000000e+00 0.0000000e+00 6.5000000e+00 
6.0000000e+00 0.0000000e+00 6.7500000e+00 
6.0000000e+00 0.0000000e+00 7.0000000e+00 
6.0000000e+00 0.0000000e+00 7.2500000e+00 
6.0000000e+00 0.0000000e+00 7.5000000e+00 
6.0000000e+00 0.0000000e+00 7.7500000e+00 
6.0000000e+00 0.0000000e+00 8.0000000e+00 
6.0000000e+00 0.0000000e+00 8.2500000e+00 
6.0000000e+00 0.0000000e+00 8.5000000e+00 
6.0000000e+00 0.0000000e+00 8.7500000e+00 
6.0000000e+00 0.0000000e+00 9.0000000e+00 
6.0000000e+00 0.0000000e+00 9.2500000e+00 
6.0000000e+00 0.0000000e+00 9.5000000e+00 
6.0000000e+00 0.0000000e+00 9.7500000e+00 
6.0000000e+00 0.0000000e+00 1.0000000e+01 
6.0000000e+00 0.0000000e+00 1.0250000e+01 
6.0000000e+00 0.0000000e+00 1.0500000e+01 
6.0000000e+00 0.0000000e+00 1.0750000e+01 
6.0000000e+00 0.0000000e+00 1.1000000e+01 
6.0000000e+00 0.0000000e+00 1.1250000e+01 
6.0000000e+00 0.0000000e+00 1.1500000e+01 
6.0000000e+00 0.0000000e+00 1.1750000e+01 
6.0000000e+00 0.0000000e+00 1.2000000e+01 
6.0000000e+00 0.0000000e+00 1.2250000e+01 
6.0000000e+00 0.0000000e+00 1.2500000e+01 
6.0000000e+00 0.0000000e+00 1.2750000e+01 
6.0000000e+00 0.0000000e+00 1.3000000e+01 
6.0000000e+00 0.0000000e+00 1.3250000e+01 
6.0000000e+00 0.0000000e+00 1.3500000e+01 
6.0000000e+00 0.0000000e+00 1.3750000e+01 
6.0000000e+00 0.0000000e+00 1.4000000e+01 
6.0000000e+00 0.0000000e+00 1.4250000e+01 
6.0000000e+00 0.0000000e+00 1.4500000e+01 
6.0000000e+00 0.0000000e+00 1.4750000e+01 
6.0000000e+00 0.0000000e+00 1.5000000e+01 
6.0000000e+00 0.0000000e+00 1.5250000e+01 
6.0000000e+00 0.0000000e+00 1.5500000e+01 
6.0000000e+00 0.0000000e+00 1.5750000e+01 
6.0000000e+00 0.0000000e+00 1.6000000e+01 
6.0000000e+00 0.0000000e+00 1.6250000e+01 
6.0000000e+00 0.0000000e+00 1.6500000e+01 
6.0000000e+00 0.0000000e+00 1.6750000e+01 
6.0000000e+00 0.0000000e+00 1.7000000e+01 
6.0000000e+00 0.0000000e+00 1.7250000e+01 
6.0000000e+00 0.0000000e+00 1.7500000e+01 
6.0000000e+00 0.0000000e+00 1.7750000e+01 
6.0000000e+00 0.0000000e+00 1.8000000e+01 
5.0000000e-01 0.0000000e+00 3.0000000e+00 
1.0000000e+00 0.0000000e+00 3.0000000e+00 
1.5000000e+00 0.0000000e+00 3.0000000e+00 
2.0000000e+00 0.0000000e+00 3.0000000e+00 
2.5000000e+00 0.0000000e+00 3.0000000e+00 
3.0000000e+00 0.0000000e+00 3.0000000e+00 
3.5000000e+00 0.0000000e+00 3.0000000e+00 
4.0000000e+00 0.0000000e+00 3.0000000e+00 
4.5000000e+00 0.0000000e+00 3.0000000e+00 
5.0000000e+00 0.0000000e+00 3.0000000e+00 
5.5000000e+00 0.0000000e+00 3.0000000e+00 
5.0000000e-01 0.0000000e+00 6.0000000e+00 
1.0000000e+00 0.0000000e+00 6.0000000e+00 
1.5000000e+00 0.0000000e+00 6.0000000e+00 
2.0000000e+00 0.0000000e+00 6.0000000e+00 
2.5000000e+00 0.0000000e+00 6.0000000e+00 
3.0000000e+00 0.0000000e+00 6.0000000e+00 
3.5000000e+00 0.0000000e+00 6.0000000e+00 
4.0000000e+00 0.0000000e+00 6.0000000e+00 
4.5000000e+00 0.0000000e+00 6.0000000e+00 
5.0000000e+00 0.0000000e+00 6.0000000e+00 
5.5000000e+00 0.0000000e+00 6.0000000e+00 
5.0000000e-01 0.0000000e+00 9.0000000e+00 
1.0000000e+00 0.0000000e+00 9.0000000e+00 
1.5000000e+00 0.0000000e+00 9.0000000e+00 
2.0000000e+00 0.0000000e+00 9.0000000e+00 
2.5000000e+00 0.0000000e+00 9.0000000e+00 
3.0000000e+00 0.0000000e+00 9.0000000e+00 
3.5000000e+00 0.0000000e+00 9.0000000e+00 
4.0000000e+00 0.0000000e+00 9.0000000e+00 
4.5000000e+00 0.0000000e+00 9.0000000e+00 
5.0000000e+00 0.0000000e+00 9.0000000e+00 
5.5000000e+00 0.0000000e+00 9.0000000e+00 
5.0000000e-01 0.0000000e+00 1.2000000e+01 
1.0000000e+00 0.0000000e+00 1.2000000e+01 
1.5000000e+00 0.0000000e+00 1.2000000e+01 
2.0000000e+00 0.0000000e+00 1.2000000e+01 
2.5000000e+00 0.0000000e+00 1.2000000e+01 
3.0000000e+00 0.0000000e+00 1.2000000e+01 
3.5000000e+00 0.0000000e+00 1.2000000e+01 
4.0000000e+00 0.0000000e+00 1.2000000e+01 
4.5000000e+00 0.0000000e+00 1.2000000e+01 
5.0000000e+00 0.0000000e+00 1.2000000e+01 
5.5000000e+00 0.0000000e+00 1.2000000e+01 
5.0000000e-01 0.0000000e+00 1.5000000e+01 
1.0000000e+00 0.0000000e+00 1.5000000e+01 
1.5000000e+00 0.0000000e+00 1.5000000e+01 
2.0000000e+00 0.0000000e+00 1.5000000e+01 
2.5000000e+00 0.0000000e+00 1.5000000e+01 
3.0000000e+00 0.0000000e+00 1.5000000e+01 
3.5000000e+00 0.0000000e+00 1.5000000e+01 
4.0000000e+00 0.0000000e+00 1.5000000e+01 
4.5000000e+00 0.0000000e+00 1.5000000e+01 
5.0000000e+00 0.0000000e+00 1.5000000e+01 
5.5000000e+00 0.0000000e+00 1.5000000e+01 
5.0000000e-01 0.0000000e+00 1.8000000e+01 
1.0000000e+00 0.0000000e+00 1.8000000e+01 
1.5000000e+00 0.0000000e+00 1.8000000e+01 
2.0000000e+00 0.0000000e+00 1.8000000e+01 
2.5000000e+00 0.0000000e+00 1.8000000e+01 
3.0000000e+00 0.0000000e+00 1.8000000e+01 
3.5000000e+00 0.0000000e+00 1.8000000e+01 
4.0000000e+00 0.0000000e+00 1.8000000e+01 
4.5000000e+00 0.0000000e+00 1.8000000e+01 
5.0000000e+00 0.0000000e+00 1.8000000e+01 
5.5000000e+00 0.0000000e+00 1.8000000e+01 

CELLS 216 648
2 0 1
2 1 2
2 2 3
2 3 4
2 4 5
2 5 6
2 6 7
2 7 8
2 8 9
2 9 10
2 10 11
2 11 12
2 12 13
2 13 14
2 14 15
2 15 16
2 16 17
2 17 18
2 18 19
2 19 20
2 20 21
2 21 22
2 22 23
2 23 24
2 24 25
2 25 26
2 26 27
2 27 28
2 28 29
2 29 30
2 30 31
2 31 32
2 32 33
2 33 34
2 34 35
2 35 36
2 36 37
2 37 38
2 38 39
2 39 40
2 40 41
2 41 42
2 42 43
2 43 44
2 44 45
2 45 46
2 46 47
2 47 48
2 48 49
2 49 50
2 50 51
2 51 52
2 52 53
2 53 54
2 54 55
2 55 56
2 56 57
2 57 58
2 58 59
2 59 60
2 60 61
2 61 62
2 62 63
2 63 64
2 64 65
2 65 66
2 66 67
2 67 68
2 68 69
2 69 70
2 70 71
2 71 72
2 73 74
2 74 75
2 75 76
2 76 77
2 77 78
2 78 79
2 79 80
2 80 81
2 81 82
2 82 83
2 83 84
2 84 85
2 85 86
2 86 87
2 87 88
2 88 89
2 89 90
2 90 91
2 91 92
2 92 93
2 93 94
2 94 95
2 95 96
2 96 97
2 97 98
2 98 99
2 99 100
2 100 101
2 101 102
2 102 103
2 103 104
2 104 105
2 105 106
2 106 107
2 107 108
2 108 109
2 109 110
2 110 111
2 111 112
2 112 113
2 113 114
2 114 115
2 115 116
2 116 117
2 117 118
2 118 119
2 119 120
2 120 121
2 121 122
2 122 123
2 123 124
2 124 125
2 125 126
2 126 127
2 127 128
2 128 129
2 129 130
2 130 131
2 131 132
2 132 133
2 133 134
2 134 135
2 135 136
2 136 137
2 137 138
2 138 139
2 139 140
2 140 141
2 141 142
2 142 143
2 143 144
2 144 145
2 12 146
2 146 147
2 147 148
2 148 149
2 149 150
2 150 151
2 151 152
2 152 153
2 153 154
2 154 155
2 155 156
2 156 85
2 24 157
2 157 158
2 158 159
2 159 160
2 160 161
2 161 162
2 162 163
2 163 164
2 164 165
2 165 166
2 166 167
2 167 97
2 36 168
2 168 169
2 169 170
2 170 171
2 171 172
2 172 173
2 173 174
2 174 175
2 175 176
2 176 177
2 177 178
2 178 109
2 48 179
2 179 180
2 180 181
2 181 182
2 182 183
2 183 184
2 184 185
2 185 186
2 186 187
2 187 188
2 188 189
2 189 121
2 60 190
2 190 191
2 191 192
2 192 193
2 193 194
2 194 195
2 195 196
2 196 197
2 197 198
2 198 199
2 199 200
2 200 133
2 72 201
2 201 202
2 202 203
2 203 204
2 204 205
2 205 206
2 206 207
2 207 208
2 208 209
2 209 210
2 210 211
2 211 145

CELL_TYPES 216
3
3
3
3
3
3
3
3
3
3
3
3
3
3
3
3
3
3
3
3
3
3
3
3
3
3
3
3
3
3
3
3
3
3
3
3
3
3
3
3
3
3
3
3
3
3
3
3
3
3
3
3
3
3
3
3
3
3
3
3
3
3
3
3
3
3
3
3
3
3
3
3
3
3
3
3
3
3
3
3
3
3
3
3
3
3
3
3
3
3
3
3
3
3
3
3
3
3
3
3
3
3
3
3
3
3
3
3
3
3
3
3
3
3
3
3
3
3
3
3
3
3
3
3
3
3
3
3
3
3
3
3
3
3
3
3
3
3
3
3
3
3
3
3
3
3
3
3
3
3
3
3
3
3
3
3
3
3
3
3
3
3
3
3
3
3
3
3
3
3
3
3
3
3
3
3
3
3
3
3
3
3
3
3
3
3
3
3
3
3
3
3
3
3
3
3
3
3
3
3
3
3
3
3
3
3
3
3
3
3
3
3
3
3
3
3
POINT_DATA 212
FIELD FieldData 7
DISPLACEMENT 3 212  float
0.0000000e+00 0.0000000e+00 0.0000000e+00 
-1.4745220e-04 0.0000000e+00 -6.0263142e-07 
-2.8871855e-04 0.0000000e+00 -1.2052628e-06 
-4.1761319e-04 0.0000000e+00 -1.8078943e-06 
-5.2795029e-04 0.0000000e+00 -2.4105257e-06 
-6.1354402e-04 0.0000000e+00 -3.0131571e-06 
-6.6820846e-04 0.0000000e+00 -3.6157885e-06 
-6.8575784e-04 0.0000000e+00 -4.2184201e-06 
-6.6000625e-04 0.0000000e+00 -4.8210513e-06 
-5.8476790e-04 0.0000000e+00 -5.4236830e-06 
-4.5385686e-04 0.0000000e+00 -6.0263142e-06 
-2.6108735e-04 0.0000000e+00 -6.6289458e-06 
-2.7349614e-07 0.0000000e+00 -7.2315770e-06 
2.3442954e-04 0.0000000e+00 -7.7337700e-06 
3.5836297e-04 0.0000000e+00 -8.2359629e-06 
3.9195726e-04 0.0000000e+00 -8.7381559e-06 
3.5564284e-04 0.0000000e+00 -9.2403488e-06 
2.6985013e-04 0.0000000e+00 -9.7425418e-06 
1.5500961e-04 0.0000000e+00 -1.0244734e-05 
3.1551685e-05 0.0000000e+00 -1.0746927e-05 
-8.0093188e-05 0.0000000e+00 -1.1249120e-05 
-1.5949456e-04 0.0000000e+00 -1.1751313e-05 
-1.8622201e-04 0.0000000e+00 -1.2253506e-05 
-1.3984508e-04 0.0000000e+00 -1.2755699e-05 
6.6666793e-08 0.0000000e+00 -1.3257892e-05 
1.4634115e-04 0.0000000e+00 -1.3659645e-05 
2.0949150e-04 0.0000000e+00 -1.4061400e-05 
2.0647589e-04 0.0000000e+00 -1.4463154e-05 
1.5425256e-04 0.0000000e+00 -1.4864909e-05 
6.9779722e-05 0.0000000e+00 -1.5266663e-05 
-2.9984414e-05 0.0000000e+00 -1.5668416e-05 
-1.2808164e-04 0.0000000e+00 -1.6070171e-05 
-2.0755373e-04 0.0000000e+00 -1.6471926e-05 
-2.5144251e-04 0.0000000e+00 -1.6873681e-05 
-2.4278971e-04 0.0000000e+00 -1.7275433e-05 
-1.6463717e-04 0.0000000e+00 -1.7677188e-05 
-2.6643532e-08 0.0000000e+00 -1.8078943e-05 
1.6204099e-04 0.0000000e+00 -1.8380259e-05 
2.3349002e-04 0.0000000e+00 -1.8681574e-05 
2.3266631e-04 0.0000000e+00 -1.8982890e-05 
1.7791578e-04 0.0000000e+00 -1.9284205e-05 
8.7584303e-05 0.0000000e+00 -1.9585521e-05 
-1.9982193e-05 0.0000000e+00 -1.9886837e-05 
-1.2643784e-04 0.0000000e+00 -2.0188152e-05 
-2.1343671e-04 0.0000000e+00 -2.0489468e-05 
-2.6263294e-04 0.0000000e+00 -2.0790785e-05 
-2.5568058e-04 0.0000000e+00 -2.1092101e-05 
-1.7423381e-04 0.0000000e+00 -2.1393416e-05 
5.3315816e-08 0.0000000e+00 -2.1694732e-05 
1.7942896e-04 0.0000000e+00 -2.1895608e-05 
2.7429004e-04 0.0000000e+00 -2.2096485e-05 
3.0020557e-04 0.0000000e+00 -2.2297363e-05 
2.7274460e-04 0.0000000e+00 -2.2498240e-05 
2.0747617e-04 0.0000000e+00 -2.2699118e-05 
1.1996929e-04 0.0000000e+00 -2.2899994e-05 
2.5793004e-05 0.0000000e+00 -2.3100871e-05 
-5.9483657e-05 0.0000000e+00 -2.3301749e-05 
-1.2029166e-04 0.0000000e+00 -2.3502625e-05 
-1.4106197e-04 0.0000000e+00 -2.3703502e-05 
-1.0622558e-04 0.0000000e+00 -2.3904380e-05 
-2.1342464e-07 0.0000000e+00 -2.4105257e-05 
8.5426531e-05 0.0000000e+00 -2.4205696e-05 
6.6556917e-05 0.0000000e+00 -2.4306135e-05 
-3.0137366e-05 0.0000000e+00 -2.4406572e-05 
-1.7797142e-04 0.0000000e+00 -2.4507011e-05 
-3.5026035e-04 0.0000000e+00 -2.4607451e-05 
-5.2031921e-04 0.0000000e+00 -2.4707888e-05 
-6.6146319e-04 0.0000000e+00 -2.4808327e-05 
-7.4700732e-04 0.0000000e+00 -2.4908766e-05 
-7.5026677e-04 0.0000000e+00 -2.5009203e-05 
-6.4455654e-04 0.0000000e+00 -2.5109643e-05 
-4.0319181e-04 0.0000000e+00 -2.5210082e-05 
5.1235008e-07 0.0000000e+00 -2.5310521e-05 
0.0000000e+00 0.0000000e+00 0.0000000e+00 
1.4745220e-04 0.0000000e+00 -6.0263142e-07 
2.8871855e-04 0.0000000e+00 -1.2052628e-06 
4.1761319e-04 0.0000000e+00 -1.8078943e-06 
5.2795029e-04 0.0000000e+00 -2.4105257e-06 
6.1354402e-04 0.0000000e+00 -3.0131571e-06 
6.6820846e-04 0.0000000e+00 -3.6157885e-06 
6.8575784e-04 0.0000000e+00 -4.2184201e-06 
6.6000625e-04 0.0000000e+00 -4.8210513e-06 
5.8476790e-04 0.0000000e+00 -5.4236830e-06 
4.5385686e-04 0.0000000e+00 -6.0263142e-06 
2.6108735e-04 0.0000000e+00 -6.6289458e-06 
2.7349617e-07 0.0000000e+00 -7.2315770e-06 
-2.3442954e-04 0.0000000e+00 -7.7337700e-06 
-3.5836297e-04 0.0000000e+00 -8.2359629e-06 
-3.9195726e-04 0.0000000e+00 -8.7381559e-06 
-3.5564284e-04 0.0000000e+00 -9.2403488e-06 
-2.6985013e-04 0.0000000e+00 -9.7425418e-06 
-1.5500961e-04 0.0000000e+00 -1.0244734e-05 
-3.1551685e-05 0.0000000e+00 -1.0746927e-05 
8.0093188e-05 0.0000000e+00 -1.1249120e-05 
1.5949456e-04 0.0000000e+00 -1.1751313e-05 
1.8622201e-04 0.0000000e+00 -1.2253506e-05 
1.3984508e-04 0.0000000e+00 -1.2755699e-05 
-6.6666779e-08 0.0000000e+00 -1.3257892e-05 
-1.4634115e-04 0.0000000e+00 -1.3659645e-05 
-2.0949150e-04 0.0000000e+00 -1.4061400e-05 
-2.0647589e-04 0.0000000e+00 -1.4463154e-05 
-1.5425256e-04 0.0000000e+00 -1.4864909e-05 
-6.9779722e-05 0.0000000e+00 -1.5266663e-05 
2.9984414e-05 0.0000000e+00 -1.5668416e-05 
1.2808164e-04 0.0000000e+00 -1.6070171e-05 
2.0755373e-04 0.0000000e+00 -1.6471926e-05 
2.5144251e-04 0.0000000e+00 -1.6873681e-05 
2.4278971e-04 0.0000000e+00 -1.7275433e-05 
1.6463717e-04 0.0000000e+00 -1.7677188e-05 
2.6643548e-08 0.0000000e+00 -1.8078943e-05 
-1.6204099e-04 0.0000000e+00 -1.8380259e-05 
-2.3349002e-04 0.0000000e+00 -1.8681574e-05 
-2.3266631e-04 0.0000000e+00 -1.8982890e-05 
-1.7791578e-04 0.0000000e+00 -1.9284205e-05 
-8.7584303e-05 0.0000000e+00 -1.9585521e-05 
1.9982193e-05 0.0000000e+00 -1.9886837e-05 
1.2643784e-04 0.0000000e+00 -2.0188152e-05 
2.1343671e-04 0.0000000e+00 -2.0489468e-05 
2.6263294e-04 0.0000000e+00 -2.0790785e-05 
2.5568058e-04 0.0000000e+00 -2.1092101e-05 
1.7423381e-04 0.0000000e+00 -2.1393416e-05 
-5.3315798e-08 0.0000000e+00 -2.1694732e-05 
-1.7942896e-04 0.0000000e+00 -2.1895608e-05 
-2.7429004e-04 0.0000000e+00 -2.2096485e-05 
-3.0020557e-04 0.0000000e+00 -2.2297363e-05 
-2.7274460e-04 0.0000000e+00 -2.2498240e-05 
-2.0747617e-04 0.0000000e+00 -2.2699118e-05 
-1.1996929e-04 0.0000000e+00 -2.2899994e-05 
-2.5793004e-05 0.0000000e+00 -2.3100871e-05 
5.9483657e-05 0.0000000e+00 -2.3301749e-05 
1.2029166e-04 0.0000000e+00 -2.3502625e-05 
1.4106197e-04 0.0000000e+00 -2.3703502e-05 
1.0622558e-04 0.0000000e+00 -2.3904380e-05 
2.1342467e-07 0.0000000e+00 -2.4105257e-05 
-8.5426531e-05 0.0000000e+00 -2.4205696e-05 
-6.6556917e-05 0.0000000e+00 -2.4306135e-05 
3.0137366e-05 0.0000000e+00 -2.4406572e-05 
1.7797142e-04 0.0000000e+00 -2.4507011e-05 
3.5026035e-04 0.0000000e+00 -2.4607451e-05 
5.2031921e-04 0.0000000e+00 -2.4707888e-05 
6.6146319e-04 0.0000000e+00 -2.4808327e-05 
7.4700732e-04 0.0000000e+00 -2.4908766e-05 
7.5026677e-04 0.0000000e+00 -2.5009203e-05 
6.4455654e-04 0.0000000e+00 -2.5109643e-05 
4.0319181e-04 0.0000000e+00 -2.5210082e-05 
-5.1235003e-07 0.0000000e+00 -2.5310521e-05 
-2.2791346e-07 0.0000000e+00 -9.4106590e-04 
-1.8233077e-07 0.0000000e+00 -2.2845655e-03 
-1.3674807e-07 0.0000000e+00 -3.6900584e-03 
-9.1165383e-08 0.0000000e+00 -4.8871329e-03 
-4.5582688e-08 0.0000000e+00 -5.6826379e-03 
3.9397743e-15 0.0000000e+00 -5.9606833e-03 
4.5582699e-08 0.0000000e+00 -5.6826379e-03 
9.1165390e-08 0.0000000e+00 -4.8871329e-03 
1.3674808e-07 0.0000000e+00 -3.6900584e-03 
1.8233078e-07 0.0000000e+00 -2.2845655e-03 
2.2791347e-07 0.0000000e+00 -9.4106590e-04 
5.5555663e-08 0.0000000e+00 -7.5750967e-04 
4.4444530e-08 0.0000000e+00 -1.9458962e-03 
3.3333400e-08 0.0000000e+00 -3.2307457e-03 
2.2222268e-08 0.0000000e+00 -4.3416461e-03 
1.1111138e-08 0.0000000e+00 -5.0854469e-03 
6.2098454e-15 0.0000000e+00 -5.3462572e-03 
-1.1111125e-08 0.0000000e+00 -5.0854469e-03 
-2.2222256e-08 0.0000000e+00 -4.3416461e-03 
-3.3333386e-08 0.0000000e+00 -3.2307457e-03 
-4.4444519e-08 0.0000000e+00 -1.9458962e-03 
-5.5555649e-08 0.0000000e+00 -7.5750967e-04 
-2.2202942e-08 0.0000000e+00 -7.9900277e-04 
-1.7762352e-08 0.0000000e+00 -2.0173937e-03 
-1.3321762e-08 0.0000000e+00 -3.3255799e-03 
-8.8811722e-09 0.0000000e+00 -4.4531496e-03 
-4.4405821e-09 0.0000000e+00 -5.2069519e-03 
7.8538216e-15 0.0000000e+00 -5.4710964e-03 
4.4405977e-09 0.0000000e+00 -5.2069519e-03 
8.8811882e-09 0.0000000e+00 -4.4531496e-03 
1.3321777e-08 0.0000000e+00 -3.3255799e-03 
1.7762368e-08 0.0000000e+00 -2.0173937e-03 
2.2202958e-08 0.0000000e+00 -7.9900277e-04 
4.4429850e-08 0.0000000e+00 -8.2705758e-04 
3.5543881e-08 0.0000000e+00 -2.0654441e-03 
2.6657913e-08 0.0000000e+00 -3.3891823e-03 
1.7771946e-08 0.0000000e+00 -4.5278608e-03 
8.8859773e-09 0.0000000e+00 -5.2883280e-03 
9.4070573e-15 0.0000000e+00 -5.5546942e-03 
-8.8859586e-09 0.0000000e+00 -5.2883280e-03 
-1.7771926e-08 0.0000000e+00 -4.5278608e-03 
-2.6657894e-08 0.0000000e+00 -3.3891823e-03 
-3.5543863e-08 0.0000000e+00 -2.0654441e-03 
-4.4429829e-08 0.0000000e+00 -8.2705758e-04 
-1.7785386e-07 0.0000000e+00 -6.8274111e-04 
-1.4228308e-07 0.0000000e+00 -1.8010783e-03 
-1.0671231e-07 0.0000000e+00 -3.0314447e-03 
-7.1141542e-08 0.0000000e+00 -4.1034291e-03 
-3.5570764e-08 0.0000000e+00 -4.8238803e-03 
1.0975573e-14 0.0000000e+00 -5.0769071e-03 
3.5570785e-08 0.0000000e+00 -4.8238803e-03 
7.1141564e-08 0.0000000e+00 -4.1034291e-03 
1.0671233e-07 0.0000000e+00 -3.0314447e-03 
1.4228311e-07 0.0000000e+00 -1.8010783e-03 
1.7785389e-07 0.0000000e+00 -6.8274111e-04 
4.2695839e-07 0.0000000e+00 -1.3200748e-03 
3.4156673e-07 0.0000000e+00 -2.9588807e-03 
2.5617504e-07 0.0000000e+00 -4.5940559e-03 
1.7078337e-07 0.0000000e+00 -5.9551899e-03 
8.5391690e-08 0.0000000e+00 -6.8491301e-03 
1.1672126e-14 0.0000000e+00 -7.1599875e-03 
-8.5391669e-08 0.0000000e+00 -6.8491301e-03 
-1.7078334e-07 0.0000000e+00 -5.9551899e-03 
-2.5617501e-07 0.0000000e+00 -4.5940559e-03 
-3.4156670e-07 0.0000000e+00 -2.9588807e-03 
-4.2695837e-07 0.0000000e+00 -1.3200748e-03 
ROTATION 3 212  float
0.0000000e+00 -5.9393269e-04 0.0000000e+00 
0.0000000e+00 -5.8156101e-04 0.0000000e+00 
0.0000000e+00 -5.4444588e-04 0.0000000e+00 
0.0000000e+00 -4.8258741e-04 0.0000000e+00 
0.0000000e+00 -3.9598552e-04 0.0000000e+00 
0.0000000e+00 -2.8464023e-04 0.0000000e+00 
0.0000000e+00 -1.4855155e-04 0.0000000e+00 
0.0000000e+00 1.2280533e-05 0.0000000e+00 
0.0000000e+00 1.9785602e-04 0.0000000e+00 
0.0000000e+00 4.0817491e-04 0.0000000e+00 
0.0000000e+00 6.4323714e-04 0.0000000e+00 
0.0000000e+00 9.0304285e-04 0.0000000e+00 
0.0000000e+00 1.1875919e-03 0.0000000e+00 
0.0000000e+00 7.0365262e-04 0.0000000e+00 
0.0000000e+00 3.0143515e-04 0.0000000e+00 
0.0000000e+00 -1.9060579e-05 0.0000000e+00 
0.0000000e+00 -2.5783456e-04 0.0000000e+00 
0.0000000e+00 -4.1488674e-04 0.0000000e+00 
0.0000000e+00 -4.9021718e-04 0.0000000e+00 
0.0000000e+00 -4.8382586e-04 0.0000000e+00 
0.0000000e+00 -3.9571279e-04 0.0000000e+00 
0.0000000e+00 -2.2587794e-04 0.0000000e+00 
0.0000000e+00 2.5678675e-05 0.0000000e+00 
0.0000000e+00 3.5895704e-04 0.0000000e+00 
0.0000000e+00 7.7395717e-04 0.0000000e+00 
0.0000000e+00 4.0754417e-04 0.0000000e+00 
0.0000000e+00 1.0896400e-04 0.0000000e+00 
0.0000000e+00 -1.2178333e-04 0.0000000e+00 
0.0000000e+00 -2.8469780e-04 0.0000000e+00 
0.0000000e+00 -3.7977943e-04 0.0000000e+00 
0.0000000e+00 -4.0702822e-04 0.0000000e+00 
0.0000000e+00 -3.6644412e-04 0.0000000e+00 
0.0000000e+00 -2.5802720e-04 0.0000000e+00 
0.0000000e+00 -8.1777427e-05 0.0000000e+00 
0.0000000e+00 1.6230519e-04 0.0000000e+00 
0.0000000e+00 4.7422067e-04 0.0000000e+00 
0.0000000e+00 8.5396902e-04 0.0000000e+00 
0.0000000e+00 4.5480271e-04 0.0000000e+00 
0.0000000e+00 1.2902003e-04 0.0000000e+00 
0.0000000e+00 -1.2337908e-04 0.0000000e+00 
0.0000000e+00 -3.0239459e-04 0.0000000e+00 
0.0000000e+00 -4.0802654e-04 0.0000000e+00 
0.0000000e+00 -4.4027486e-04 0.0000000e+00 
0.0000000e+00 -3.9913962e-04 0.0000000e+00 
0.0000000e+00 -2.8462079e-04 0.0000000e+00 
0.0000000e+00 -9.6718373e-05 0.0000000e+00 
0.0000000e+00 1.6456764e-04 0.0000000e+00 
0.0000000e+00 4.9923721e-04 0.0000000e+00 
0.0000000e+00 9.0729038e-04 0.0000000e+00 
0.0000000e+00 5.3809409e-04 0.0000000e+00 
0.0000000e+00 2.3117386e-04 0.0000000e+00 
0.0000000e+00 -1.3470209e-05 0.0000000e+00 
0.0000000e+00 -1.9583816e-04 0.0000000e+00 
0.0000000e+00 -3.1593000e-04 0.0000000e+00 
0.0000000e+00 -3.7374569e-04 0.0000000e+00 
0.0000000e+00 -3.6928523e-04 0.0000000e+00 
0.0000000e+00 -3.0254869e-04 0.0000000e+00 
0.0000000e+00 -1.7353600e-04 0.0000000e+00 
0.0000000e+00 1.7752813e-05 0.0000000e+00 
0.0000000e+00 2.7131775e-04 0.0000000e+00 
0.0000000e+00 5.8715884e-04 0.0000000e+00 
0.0000000e+00 1.1575075e-04 0.0000000e+00 
0.0000000e+00 -2.4891773e-04 0.0000000e+00 
0.0000000e+00 -5.0684658e-04 0.0000000e+00 
0.0000000e+00 -6.5803586e-04 0.0000000e+00 
0.0000000e+00 -7.0248556e-04 0.0000000e+00 
0.0000000e+00 -6.4019568e-04 0.0000000e+00 
0.0000000e+00 -4.7116616e-04 0.0000000e+00 
0.0000000e+00 -1.9539703e-04 0.0000000e+00 
0.0000000e+00 1.8711165e-04 0.0000000e+00 
0.0000000e+00 6.7635998e-04 0.0000000e+00 
0.0000000e+00 1.2723479e-03 0.0000000e+00 
0.0000000e+00 1.9750753e-03 0.0000000e+00 
0.0000000e+00 5.9393269e-04 0.0000000e+00 
0.0000000e+00 5.8156101e-04 0.0000000e+00 
0.0000000e+00 5.4444588e-04 0.0000000e+00 
0.0000000e+00 4.8258741e-04 0.0000000e+00 
0.0000000e+00 3.9598552e-04 0.0000000e+00 
0.0000000e+00 2.8464023e-04 0.0000000e+00 
0.0000000e+00 1.4855155e-04 0.0000000e+00 
0.0000000e+00 -1.2280533e-05 0.0000000e+00 
0.0000000e+00 -1.9785602e-04 0.0000000e+00 
0.0000000e+00 -4.0817491e-04 0.0000000e+00 
0.0000000e+00 -6.4323714e-04 0.0000000e+00 
0.0000000e+00 -9.0304285e-04 0.0000000e+00 
0.0000000e+00 -1.1875919e-03 0.0000000e+00 
0.0000000e+00 -7.0365262e-04 0.0000000e+00 
0.0000000e+00 -3.0143515e-04 0.0000000e+00 
0.0000000e+00 1.9060579e-05 0.0000000e+00 
0.0000000e+00 2.5783456e-04 0.0000000e+00 
0.0000000e+00 4.1488674e-04 0.0000000e+00 
0.0000000e+00 4.9021718e-04 0.0000000e+00 
0.0000000e+00 4.8382586e-04 0.0000000e+00 
0.0000000e+00 3.9571279e-04 0.0000000e+00 
0.0000000e+00 2.2587794e-04 0.0000000e+00 
0.0000000e+00 -2.5678675e-05 0.0000000e+00 
0.0000000e+00 -3.5895704e-04 0.0000000e+00 
0.0000000e+00 -7.7395717e-04 0.0000000e+00 
0.0000000e+00 -4.0754417e-04 0.0000000e+00 
0.0000000e+00 -1.0896400e-04 0.0000000e+00 
0.0000000e+00 1.2178333e-04 0.0000000e+00 
0.0000000e+00 2.8469780e-04 0.0000000e+00 
0.0000000e+00 3.7977943e-04 0.0000000e+00 
0.0000000e+00 4.0702822e-04 0.0000000e+00 
0.0000000e+00 3.6644412e-04 0.0000000e+00 
0.0000000e+00 2.5802720e-04 0.0000000e+00 
0.0000000e+00 8.1777427e-05 0.0000000e+00 
0.0000000e+00 -1.6230519e-04 0.0000000e+00 
0.0000000e+00 -4.7422067e-04 0.0000000e+00 
0.0000000e+00 -8.5396902e-04 0.0000000e+00 
0.0000000e+00 -4.5480271e-04 0.0000000e+00 
0.0000000e+00 -1.2902003e-04 0.0000000e+00 
0.0000000e+00 1.2337908e-04 0.0000000e+00 
0.0000000e+00 3.0239459e-04 0.0000000e+00 
0.0000000e+00 4.0802654e-04 0.0000000e+00 
0.0000000e+00 4.4027486e-04 0.0000000e+00 
0.0000000e+00 3.9913962e-04 0.0000000e+00 
0.0000000e+00 2.8462079e-04 0.0000000e+00 
0.0000000e+00 9.6718373e-05 0.0000000e+00 
0.0000000e+00 -1.6456764e-04 0.0000000e+00 
0.0000000e+00 -4.9923721e-04 0.0000000e+00 
0.0000000e+00 -9.0729038e-04 0.0000000e+00 
0.0000000e+00 -5.3809409e-04 0.0000000e+00 
0.0000000e+00 -2.3117386e-04 0.0000000e+00 
0.0000000e+00 1.3470209e-05 0.0000000e+00 
0.0000000e+00 1.9583816e-04 0.0000000e+00 
0.0000000e+00 3.1593000e-04 0.0000000e+00 
0.0000000e+00 3.7374569e-04 0.0000000e+00 
0.0000000e+00 3.6928523e-04 0.0000000e+00 
0.0000000e+00 3.0254869e-04 0.0000000e+00 
0.0000000e+00 1.7353600e-04 0.0000000e+00 
0.0000000e+00 -1.7752813e-05 0.0000000e+00 
0.0000000e+00 -2.7131775e-04 0.0000000e+00 
0.0000000e+00 -5.8715884e-04 0.0000000e+00 
0.0000000e+00 -1.1575075e-04 0.0000000e+00 
0.0000000e+00 2.4891773e-04 0.0000000e+00 
0.0000000e+00 5.0684658e-04 0.0000000e+00 
0.0000000e+00 6.5803586e-04 0.0000000e+00 
0.0000000e+00 7.0248556e-04 0.0000000e+00 
0.0000000e+00 6.4019568e-04 0.0000000e+00 
0.0000000e+00 4.7116616e-04 0.0000000e+00 
0.0000000e+00 1.9539703e-04 0.0000000e+00 
0.0000000e+00 -1.8711165e-04 0.0000000e+00 
0.0000000e+00 -6.7635998e-04 0.0000000e+00 
0.0000000e+00 -1.2723479e-03 0.0000000e+00 
0.0000000e+00 -1.9750753e-03 0.0000000e+00 
0.0000000e+00 2.4061012e-03 0.0000000e+00 
0.0000000e+00 2.8520063e-03 0.0000000e+00 
0.0000000e+00 2.6798279e-03 0.0000000e+00 
0.0000000e+00 2.0440866e-03 0.0000000e+00 
0.0000000e+00 1.0993038e-03 0.0000000e+00 
0.0000000e+00 -3.4863963e-16 0.0000000e+00 
0.0000000e+00 -1.0993038e-03 0.0000000e+00 
0.0000000e+00 -2.0440866e-03 0.0000000e+00 
0.0000000e+00 -2.6798279e-03 0.0000000e+00 
0.0000000e+00 -2.8520063e-03 0.0000000e+00 
0.0000000e+00 -2.4061012e-03 0.0000000e+00 
0.0000000e+00 2.0614057e-03 0.0000000e+00 
0.0000000e+00 2.5762499e-03 0.0000000e+00 
0.0000000e+00 2.4730104e-03 0.0000000e+00 
0.0000000e+00 1.9062085e-03 0.0000000e+00 
0.0000000e+00 1.0303647e-03 0.0000000e+00 
0.0000000e+00 -2.6981676e-16 0.0000000e+00 
0.0000000e+00 -1.0303647e-03 0.0000000e+00 
0.0000000e+00 -1.9062085e-03 0.0000000e+00 
0.0000000e+00 -2.4730104e-03 0.0000000e+00 
0.0000000e+00 -2.5762499e-03 0.0000000e+00 
0.0000000e+00 -2.0614057e-03 0.0000000e+00 
0.0000000e+00 2.1280823e-03 0.0000000e+00 
0.0000000e+00 2.6295912e-03 0.0000000e+00 
0.0000000e+00 2.5130163e-03 0.0000000e+00 
0.0000000e+00 1.9328791e-03 0.0000000e+00 
0.0000000e+00 1.0436999e-03 0.0000000e+00 
0.0000000e+00 -2.5769016e-16 0.0000000e+00 
0.0000000e+00 -1.0436999e-03 0.0000000e+00 
0.0000000e+00 -1.9328791e-03 0.0000000e+00 
0.0000000e+00 -2.5130163e-03 0.0000000e+00 
0.0000000e+00 -2.6295912e-03 0.0000000e+00 
0.0000000e+00 -2.1280823e-03 0.0000000e+00 
0.0000000e+00 2.1725167e-03 0.0000000e+00 
0.0000000e+00 2.6651386e-03 0.0000000e+00 
0.0000000e+00 2.5396771e-03 0.0000000e+00 
0.0000000e+00 1.9506528e-03 0.0000000e+00 
0.0000000e+00 1.0525868e-03 0.0000000e+00 
0.0000000e+00 -1.8493059e-16 0.0000000e+00 
0.0000000e+00 -1.0525868e-03 0.0000000e+00 
0.0000000e+00 -1.9506528e-03 0.0000000e+00 
0.0000000e+00 -2.5396771e-03 0.0000000e+00 
0.0000000e+00 -2.6651386e-03 0.0000000e+00 
0.0000000e+00 -2.1725167e-03 0.0000000e+00 
0.0000000e+00 1.9057404e-03 0.0000000e+00 
0.0000000e+00 2.4517176e-03 0.0000000e+00 
0.0000000e+00 2.3796114e-03 0.0000000e+00 
0.0000000e+00 1.8439423e-03 0.0000000e+00 
0.0000000e+00 9.9923159e-04 0.0000000e+00 
0.0000000e+00 -1.9705719e-16 0.0000000e+00 
0.0000000e+00 -9.9923159e-04 0.0000000e+00 
0.0000000e+00 -1.8439423e-03 0.0000000e+00 
0.0000000e+00 -2.3796114e-03 0.0000000e+00 
0.0000000e+00 -2.4517176e-03 0.0000000e+00 
0.0000000e+00 -1.9057404e-03 0.0000000e+00 
0.0000000e+00 3.0623374e-03 0.0000000e+00 
0.0000000e+00 3.3769952e-03 0.0000000e+00 
0.0000000e+00 3.0735696e-03 0.0000000e+00 