# vtk DataFile Version 4.0
vtk output
ASCII
DATASET UNSTRUCTURED_GRID
POINTS 212 float
0.0000000e+00 0.0000000e+00 0.0000000e+00 
0.0000000e+00 0.0000000e+00 2.5000000e-01 
0.0000000e+00 0.0000000e+00 5.0000000e-01 
0.0000000e+00 0.0000000e+00 7.5000000e-01 
0.0000000e+00 0.0000000e+00 1.0000000e+00 
0.0000000e+00 0.0000000e+00 1.2500000e+00 
0.0000000e+00 0.0000000e+00 1.5000000e+00 
0.0000000e+00 0.0000000e+00 1.7500000e+00 
0.0000000e+00 0.0000000e+00 2.0000000e+00 
0.0000000e+00 0.0000000e+00 2.2500000e+00 
0.0000000e+00 0.0000000e+00 2.5000000e+00 
0.0000000e+00 0.0000000e+00 2.7500000e+00 
0.0000000e+00 0.0000000e+00 3.0000000e+00 
0.0000000e+00 0.0000000e+00 3.2500000e+00 
0.0000000e+00 0.0000000e+00 3.5000000e+00 
0.0000000e+00 0.0000000e+00 3.7500000e+00 
0.0000000e+00 0.0000000e+00 4.0000000e+00 
0.0000000e+00 0.0000000e+00 4.2500000e+00 
0.0000000e+00 0.0000000e+00 4.5000000e+00 
0.0000000e+00 0.0000000e+00 4.7500000e+00 
0.0000000e+00 0.0000000e+00 5.0000000e+00 
0.0000000e+00 0.0000000e+00 5.2500000e+00 
0.0000000e+00 0.0000000e+00 5.5000000e+00 
0.0000000e+00 0.0000000e+00 5.7500000e+00 
0.0000000e+00 0.0000000e+00 6.0000000e+00 
0.0000000e+00 0.0000000e+00 6.2500000e+00 
0.0000000e+00 0.0000000e+00 6.5000000e+00 
0.0000000e+00 0.0000000e+00 6.7500000e+00 
0.0000000e+00 0.0000000e+00 7.0000000e+00 
0.0000000e+00 0.0000000e+00 7.2500000e+00 
0.0000000e+00 0.0000000e+00 7.5000000e+00 
0.0000000e+00 0.0000000e+00 7.7500000e+00 
0.0000000e+00 0.0000000e+00 8.0000000e+00 
0.0000000e+00 0.0000000e+00 8.2500000e+00 
0.0000000e+00 0.0000000e+00 8.5000000e+00 
0.0000000e+00 0.0000000e+00 8.7500000e+00 
0.0000000e+00 0.0000000e+00 9.0000000e+00 
0.0000000e+00 0.0000000e+00 9.2500000e+00 
0.0000000e+00 0.0000000e+00 9.5000000e+00 
0.0000000e+00 0.0000000e+00 9.7500000e+00 
0.0000000e+00 0.0000000e+00 1.0000000e+01 
0.0000000e+00 0.0000000e+00 1.0250000e+01 
0.0000000e+00 0.0000000e+00 1.0500000e+01 
0.0000000e+00 0.0000000e+00 1.0750000e+01 
0.0000000e+00 0.0000000e+00 1.1000000e+01 
0.0000000e+00 0.0000000e+00 1.1250000e+01 
0.0000000e+00 0.0000000e+00 1.1500000e+01 
0.0000000e+00 0.0000000e+00 1.1750000e+01 
0.0000000e+00 0.0000000e+00 1.2000000e+01 
0.0000000e+00 0.0000000e+00 1.2250000e+01 
0.0000000e+00 0.0000000e+00 1.2500000e+01 
0.0000000e+00 0.0000000e+00 1.2750000e+01 
0.0000000e+00 0.0000000e+00 1.3000000e+01 
0.0000000e+00 0.0000000e+00 1.3250000e+01 
0.0000000e+00 0.0000000e+00 1.3500000e+01 
0.0000000e+00 0.0000000e+00 1.3750000e+01 
0.0000000e+00 0.0000000e+00 1.4000000e+01 
0.0000000e+00 0.0000000e+00 1.4250000e+01 
0.0000000e+00 0.0000000e+00 1.4500000e+01 
0.0000000e+00 0.0000000e+00 1.4750000e+01 
0.0000000e+00 0.0000000e+00 1.5000000e+01 
0.0000000e+00 0.0000000e+00 1.5250000e+01 
0.0000000e+00 0.0000000e+00 1.5500000e+01 
0.0000000e+00 0.0000000e+00 1.5750000e+01 
0.0000000e+00 0.0000000e+00 1.6000000e+01 
0.0000000e+00 0.0000000e+00 1.6250000e+01 
0.0000000e+00 0.0000000e+00 1.6500000e+01 
0.0000000e+00 0.0000000e+00 1.6750000e+01 
0.0000000e+00 0.0000000e+00 1.7000000e+01 
0.0000000e+00 0.0000000e+00 1.7250000e+01 
0.0000000e+00 0.0000000e+00 1.7500000e+01 
0.0000000e+00 0.0000000e+00 1.7750000e+01 
0.0000000e+00 0.0000000e+00 1.8000000e+01 
5.0000000e-01 0.0000000e+00 3.0000000e+00 
5.0000000e-01 0.0000000e+00 6.0000000e+00 
5.0000000e-01 0.0000000e+00 9.0000000e+00 
5.0000000e-01 0.0000000e+00 1.2000000e+01 
5.0000000e-01 0.0000000e+00 1.5000000e+01 
5.0000000e-01 0.0000000e+00 1.8000000e+01 
1.0000000e+00 0.0000000e+00 3.0000000e+00 
1.0000000e+00 0.0000000e+00 6.0000000e+00 
1.0000000e+00 0.0000000e+00 9.0000000e+00 
1.0000000e+00 0.0000000e+00 1.2000000e+01 
1.0000000e+00 0.0000000e+00 1.5000000e+01 
1.0000000e+00 0.0000000e+00 1.8000000e+01 
1.5000000e+00 0.0000000e+00 3.0000000e+00 
1.5000000e+00 0.0000000e+00 6.0000000e+00 
1.5000000e+00 0.0000000e+00 9.0000000e+00 
1.5000000e+00 0.0000000e+00 1.2000000e+01 
1.5000000e+00 0.0000000e+00 1.5000000e+01 
1.5000000e+00 0.0000000e+00 1.8000000e+01 
2.0000000e+00 0.0000000e+00 3.0000000e+00 
2.0000000e+00 0.0000000e+00 6.0000000e+00 
2.0000000e+00 0.0000000e+00 9.0000000e+00 
2.0000000e+00 0.0000000e+00 1.2000000e+01 
2.0000000e+00 0.0000000e+00 1.5000000e+01 
2.0000000e+00 0.0000000e+00 1.8000000e+01 
2.5000000e+00 0.0000000e+00 3.0000000e+00 
2.5000000e+00 0.0000000e+00 6.0000000e+00 
2.5000000e+00 0.0000000e+00 9.0000000e+00 
2.5000000e+00 0.0000000e+00 1.2000000e+01 
2.5000000e+00 0.0000000e+00 1.5000000e+01 
2.5000000e+00 0.0000000e+00 1.8000000e+01 
3.0000000e+00 0.0000000e+00 3.0000000e+00 
3.0000000e+00 0.0000000e+00 6.0000000e+00 
3.0000000e+00 0.0000000e+00 9.0000000e+00 
3.0000000e+00 0.0000000e+00 1.2000000e+01 
3.0000000e+00 0.0000000e+00 1.5000000e+01 
3.0000000e+00 0.0000000e+00 1.8000000e+01 
3.5000000e+00 0.0000000e+00 3.0000000e+00 
3.5000000e+00 0.0000000e+00 6.0000000e+00 
3.5000000e+00 0.0000000e+00 9.0000000e+00 
3.5000000e+00 0.0000000e+00 1.2000000e+01 
3.5000000e+00 0.0000000e+00 1.5000000e+01 
3.5000000e+00 0.0000000e+00 1.8000000e+01 
4.0000000e+00 0.0000000e+00 3.0000000e+00 
4.0000000e+00 0.0000000e+00 6.0000000e+00 
4.0000000e+00 0.0000000e+00 9.0000000e+00 
4.0000000e+00 0.0000000e+00 1.2000000e+01 
4.0000000e+00 0.0000000e+00 1.5000000e+01 
4.0000000e+00 0.0000000e+00 1.8000000e+01 
4.5000000e+00 0.0000000e+00 3.0000000e+00 
4.5000000e+00 0.0000000e+00 6.0000000e+00 
4.5000000e+00 0.0000000e+00 9.0000000e+00 
4.5000000e+00 0.0000000e+00 1.2000000e+01 
4.5000000e+00 0.0000000e+00 1.5000000e+01 
4.5000000e+00 0.0000000e+00 1.8000000e+01 
5.0000000e+00 0.0000000e+00 3.0000000e+00 
5.0000000e+00 0.0000000e+00 6.0000000e+00 
5.0000000e+00 0.0000000e+00 9.0000000e+00 
5.0000000e+00 0.0000000e+00 1.2000000e+01 
5.0000000e+00 0.0000000e+00 1.5000000e+01 
5.0000000e+00 0.0000000e+00 1.8000000e+01 
5.5000000e+00 0.0000000e+00 3.0000000e+00 
5.5000000e+00 0.0000000e+00 6.0000000e+00 
5.5000000e+00 0.0000000e+00 9.0000000e+00 
5.5000000e+00 0.0000000e+00 1.2000000e+01 
5.5000000e+00 0.0000000e+00 1.5000000e+01 
5.5000000e+00 0.0000000e+00 1.8000000e+01 
6.0000000e+00 0.0000000e+00 0.0000000e+00 
6.0000000e+00 0.0000000e+00 2.5000000e-01 
6.0000000e+00 0.0000000e+00 5.0000000e-01 
6.0000000e+00 0.0000000e+00 7.5000000e-01 
6.0000000e+00 0.0000000e+00 1.0000000e+00 
6.0000000e+00 0.0000000e+00 1.2500000e+00 
6.0000000e+00 0.0000000e+00 1.5000000e+00 
6.0000000e+00 0.0000000e+00 1.7500000e+00 
6.0000000e+00 0.0000000e+00 2.0000000e+00 
6.0000000e+00 0.0000000e+00 2.2500000e+00 
6.0000000e+00 0.0000000e+00 2.5000000e+00 
6.0000000e+00 0.0000000e+00 2.7500000e+00 
6.0000000e+00 0.0000000e+00 3.0000000e+00 
6.0000000e+00 0.0000000e+00 3.2500000e+00 
6.0000000e+00 0.0000000e+00 3.5000000e+00 
6.0000000e+00 0.0000000e+00 3.7500000e+00 
6.0000000e+00 0.0000000e+00 4.0000000e+00 
6.0000000e+00 0.0000000e+00 4.2500000e+00 
6.0000000e+00 0.0000000e+00 4.5000000e+00 
6.0000000e+00 0.0000000e+00 4.7500000e+00 
6.0000000e+00 0.0000000e+00 5.0000000e+00 
6.0000000e+00 0.0000000e+00 5.2500000e+00 
6.0000000e+00 0.0000000e+00 5.5000000e+00 
6.0000000e+00 0.0000000e+00 5.7500000e+00 
6.0000000e+00 0.0000000e+00 6.0000000e+00 
6.0000000e+00 0.0000000e+00 6.2500000e+00 
6.0000000e+00 0.0000000e+00 6.5000000e+00 
6.0000000e+00 0.0000000e+00 6.7500000e+00 
6.0000000e+00 0.0000000e+00 7.0000000e+00 
6.0000000e+00 0.0000000e+00 7.2500000e+00 
6.0000000e+00 0.0000000e+00 7.5000000e+00 
6.0000000e+00 0.0000000e+00 7.7500000e+00 
6.0000000e+00 0.0000000e+00 8.0000000e+00 
6.0000000e+00 0.0000000e+00 8.2500000e+00 
6.0000000e+00 0.0000000e+00 8.5000000e+00 
6.0000000e+00 0.0000000e+00 8.7500000e+00 
6.0000000e+00 0.0000000e+00 9.0000000e+00 
6.0000000e+00 0.0000000e+00 9.2500000e+00 
6.0000000e+00 0.0000000e+00 9.5000000e+00 
6.0000000e+00 0.0000000e+00 9.7500000e+00 
6.0000000e+00 0.0000000e+00 1.0000000e+01 
6.0000000e+00 0.0000000e+00 1.0250000e+01 
6.0000000e+00 0.0000000e+00 1.0500000e+01 
6.0000000e+00 0.0000000e+00 1.0750000e+01 
6.0000000e+00 0.0000000e+00 1.1000000e+01 
6.0000000e+00 0.0000000e+00 1.1250000e+01 
6.0000000e+00 0.0000000e+00 1.1500000e+01 
6.0000000e+00 0.0000000e+00 1.1750000e+01 
6.0000000e+00 0.0000000e+00 1.2000000e+01 
6.0000000e+00 0.0000000e+00 1.2250000e+01 
6.0000000e+00 0.0000000e+00 1.2500000e+01 
6.0000000e+00 0.0000000e+00 1.2750000e+01 
6.0000000e+00 0.0000000e+00 1.3000000e+01 
6.0000000e+00 0.0000000e+00 1.3250000e+01 
6.0000000e+00 0.0000000e+00 1.3500000e+01 
6.0000000e+00 0.0000000e+00 1.3750000e+01 
6.0000000e+00 0.0000000e+00 1.4000000e+01 
6.0000000e+00 0.0000000e+00 1.4250000e+01 
6.0000000e+00 0.0000000e+00 1.4500000e+01 
6.0000000e+00 0.0000000e+00 1.4750000e+01 
6.0000000e+00 0.0000000e+00 1.5000000e+01 
6.0000000e+00 0.0000000e+00 1.5250000e+01 
6.0000000e+00 0.0000000e+00 1.5500000e+01 
6.0000000e+00 0.0000000e+00 1.5750000e+01 
6.0000000e+00 0.0000000e+00 1.6000000e+01 
6.0000000e+00 0.0000000e+00 1.6250000e+01 
6.0000000e+00 0.0000000e+00 1.6500000e+01 
6.0000000e+00 0.0000000e+00 1.6750000e+01 
6.0000000e+00 0.0000000e+00 1.7000000e+01 
6.0000000e+00 0.0000000e+00 1.7250000e+01 
6.0000000e+00 0.0000000e+00 1.7500000e+01 
6.0000000e+00 0.0000000e+00 1.7750000e+01 
6.0000000e+00 0.0000000e+00 1.8000000e+01 

CELLS 216 648
2 0 1
2 1 2
2 2 3
2 3 4
2 4 5
2 5 6
2 6 7
2 7 8
2 8 9
2 9 10
2 10 11
2 11 12
2 12 13
2 13 14
2 14 15
2 15 16
2 16 17
2 17 18
2 18 19
2 19 20
2 20 21
2 21 22
2 22 23
2 23 24
2 24 25
2 25 26
2 26 27
2 27 28
2 28 29
2 29 30
2 30 31
2 31 32
2 32 33
2 33 34
2 34 35
2 35 36
2 36 37
2 37 38
2 38 39
2 39 40
2 40 41
2 41 42
2 42 43
2 43 44
2 44 45
2 45 46
2 46 47
2 47 48
2 48 49
2 49 50
2 50 51
2 51 52
2 52 53
2 53 54
2 54 55
2 55 56
2 56 57
2 57 58
2 58 59
2 59 60
2 60 61
2 61 62
2 62 63
2 63 64
2 64 65
2 65 66
2 66 67
2 67 68
2 68 69
2 69 70
2 70 71
2 71 72
2 139 140
2 140 141
2 141 142
2 142 143
2 143 144
2 144 145
2 145 146
2 146 147
2 147 148
2 148 149
2 149 150
2 150 151
2 151 152
2 152 153
2 153 154
2 154 155
2 155 156
2 156 157
2 157 158
2 158 159
2 159 160
2 160 161
2 161 162
2 162 163
2 163 164
2 164 165
2 165 166
2 166 167
2 167 168
2 168 169
2 169 170
2 170 171
2 171 172
2 172 173
2 173 174
2 174 175
2 175 176
2 176 177
2 177 178
2 178 179
2 179 180
2 180 181
2 181 182
2 182 183
2 183 184
2 184 185
2 185 186
2 186 187
2 187 188
2 188 189
2 189 190
2 190 191
2 191 192
2 192 193
2 193 194
2 194 195
2 195 196
2 196 197
2 197 198
2 198 199
2 199 200
2 200 201
2 201 202
2 202 203
2 203 204
2 204 205
2 205 206
2 206 207
2 207 208
2 208 209
2 209 210
2 210 211
2 12 73
2 73 79
2 79 85
2 85 91
2 91 97
2 97 103
2 103 109
2 109 115
2 115 121
2 121 127
2 127 133
2 133 151
2 24 74
2 74 80
2 80 86
2 86 92
2 92 98
2 98 104
2 104 110
2 110 116
2 116 122
2 122 128
2 128 134
2 134 163
2 36 75
2 75 81
2 81 87
2 87 93
2 93 99
2 99 105
2 105 111
2 111 117
2 117 123
2 123 129
2 129 135
2 135 175
2 48 76
2 76 82
2 82 88
2 88 94
2 94 100
2 100 106
2 106 112
2 112 118
2 118 124
2 124 130
2 130 136
2 136 187
2 60 77
2 77 83
2 83 89
2 89 95
2 95 101
2 101 107
2 107 113
2 113 119
2 119 125
2 125 131
2 131 137
2 137 199
2 72 78
2 78 84
2 84 90
2 90 96
2 96 102
2 102 108
2 108 114
2 114 120
2 120 126
2 126 132
2 132 138
2 138 211

CELL_TYPES 216
3
3
3
3
3
3
3
3
3
3
3
3
3
3
3
3
3
3
3
3
3
3
3
3
3
3
3
3
3
3
3
3
3
3
3
3
3
3
3
3
3
3
3
3
3
3
3
3
3
3
3
3
3
3
3
3
3
3
3
3
3
3
3
3
3
3
3
3
3
3
3
3
3
3
3
3
3
3
3
3
3
3
3
3
3
3
3
3
3
3
3
3
3
3
3
3
3
3
3
3
3
3
3
3
3
3
3
3
3
3
3
3
3
3
3
3
3
3
3
3
3
3
3
3
3
3
3
3
3
3
3
3
3
3
3
3
3
3
3
3
3
3
3
3
3
3
3
3
3
3
3
3
3
3
3
3
3
3
3
3
3
3
3
3
3
3
3
3
3
3
3
3
3
3
3
3
3
3
3
3
3
3
3
3
3
3
3
3
3
3
3
3
3
3
3
3
3
3
3
3
3
3
3
3
3
3
3
3
3
3
3
3
3
3
3
3
POINT_DATA 212
FIELD FieldData 3
ADJOINT_DISPLACEMENT 3 212  float
0.0000000e+00 0.0000000e+00 0.0000000e+00 
1.5277598e-03 0.0000000e+00 1.9016713e-16 
3.1363152e-03 0.0000000e+00 3.8033426e-16 
4.9064611e-03 0.0000000e+00 5.7050141e-16 
6.9189933e-03 0.0000000e+00 7.6066852e-16 
9.2547070e-03 0.0000000e+00 9.5083567e-16 
1.1994398e-02 0.0000000e+00 1.1410028e-15 
1.5218862e-02 0.0000000e+00 1.3311699e-15 
1.9008894e-02 0.0000000e+00 1.5213370e-15 
2.3445288e-02 0.0000000e+00 1.7115042e-15 
2.8608842e-02 0.0000000e+00 1.9016713e-15 
3.4580350e-02 0.0000000e+00 2.0918385e-15 
4.1440606e-02 0.0000000e+00 2.2820057e-15 
4.9768101e-02 0.0000000e+00 -1.6424692e-06 
5.9763391e-02 0.0000000e+00 -3.2849384e-06 
7.0940353e-02 0.0000000e+00 -4.9274076e-06 
8.2812876e-02 0.0000000e+00 -6.5698769e-06 
9.4894841e-02 0.0000000e+00 -8.2123461e-06 
1.0670013e-01 0.0000000e+00 -9.8548153e-06 
1.1774263e-01 0.0000000e+00 -1.1497285e-05 
1.2753622e-01 0.0000000e+00 -1.3139754e-05 
1.3559479e-01 0.0000000e+00 -1.4782223e-05 
1.4143221e-01 0.0000000e+00 -1.6424692e-05 
1.4456238e-01 0.0000000e+00 -1.8067161e-05 
1.4449918e-01 0.0000000e+00 -1.9709631e-05 
1.4443012e-01 0.0000000e+00 -1.7976770e-05 
1.4753619e-01 0.0000000e+00 -1.6243912e-05 
1.5332147e-01 0.0000000e+00 -1.4511053e-05 
1.6129012e-01 0.0000000e+00 -1.2778194e-05 
1.7094620e-01 0.0000000e+00 -1.1045335e-05 
1.8179384e-01 0.0000000e+00 -9.3124763e-06 
1.9333713e-01 0.0000000e+00 -7.5796170e-06 
2.0508018e-01 0.0000000e+00 -5.8467581e-06 
2.1652710e-01 0.0000000e+00 -4.1138992e-06 
2.2718200e-01 0.0000000e+00 -2.3810401e-06 
2.3654898e-01 0.0000000e+00 -6.4818101e-07 
2.4413213e-01 0.0000000e+00 1.0846780e-06 
2.5004876e-01 0.0000000e+00 1.4462805e-06 
2.5482363e-01 0.0000000e+00 1.8078830e-06 
2.5857222e-01 0.0000000e+00 2.1694855e-06 
2.6140997e-01 0.0000000e+00 2.5310881e-06 
2.6345229e-01 0.0000000e+00 2.8926904e-06 
2.6481467e-01 0.0000000e+00 3.2542930e-06 
2.6561251e-01 0.0000000e+00 3.6158954e-06 
2.6596126e-01 0.0000000e+00 3.9774977e-06 
2.6597637e-01 0.0000000e+00 4.3391005e-06 
2.6577327e-01 0.0000000e+00 4.7007029e-06 
2.6546741e-01 0.0000000e+00 5.0623053e-06 
2.6517421e-01 0.0000000e+00 5.4239081e-06 
2.6502508e-01 0.0000000e+00 5.4992338e-06 
2.6505679e-01 0.0000000e+00 5.5745600e-06 
2.6524279e-01 0.0000000e+00 5.6498861e-06 
2.6555660e-01 0.0000000e+00 5.7252123e-06 
2.6597172e-01 0.0000000e+00 5.8005380e-06 
2.6646161e-01 0.0000000e+00 5.8758642e-06 
2.6699984e-01 0.0000000e+00 5.9511904e-06 
2.6755983e-01 0.0000000e+00 6.0265165e-06 
2.6811510e-01 0.0000000e+00 6.1018422e-06 
2.6863918e-01 0.0000000e+00 6.1771684e-06 
2.6910552e-01 0.0000000e+00 6.2524946e-06 
2.6948762e-01 0.0000000e+00 6.3278208e-06 
2.6978856e-01 0.0000000e+00 6.3428843e-06 
2.7003244e-01 0.0000000e+00 6.3579482e-06 
2.7022433e-01 0.0000000e+00 6.3730117e-06 
2.7036932e-01 0.0000000e+00 6.3880757e-06 
2.7047250e-01 0.0000000e+00 6.4031397e-06 
2.7053896e-01 0.0000000e+00 6.4182032e-06 
2.7057374e-01 0.0000000e+00 6.4332671e-06 
2.7058196e-01 0.0000000e+00 6.4483306e-06 
2.7056870e-01 0.0000000e+00 6.4633946e-06 
2.7053905e-01 0.0000000e+00 6.4784581e-06 
2.7049804e-01 0.0000000e+00 6.4935221e-06 
2.7045080e-01 0.0000000e+00 6.5085860e-06 
4.1414622e-02 0.0000000e+00 -1.2389968e-02 
1.4449874e-01 0.0000000e+00 1.8521560e-02 
2.4416016e-01 0.0000000e+00 -1.1085536e-02 
2.6516771e-01 0.0000000e+00 6.4391934e-04 
2.6948908e-01 0.0000000e+00 -5.6231447e-04 
2.7045059e-01 0.0000000e+00 1.0526439e-04 
4.1388642e-02 0.0000000e+00 -2.0615887e-02 
1.4449829e-01 0.0000000e+00 6.7643233e-02 
2.4418817e-01 0.0000000e+00 -1.8560719e-02 
2.6516119e-01 0.0000000e+00 1.4992980e-03 
2.6949051e-01 0.0000000e+00 -9.5763226e-04 
2.7045035e-01 0.0000000e+00 2.0339696e-04 
4.1362658e-02 0.0000000e+00 -2.5251152e-02 
1.4449784e-01 0.0000000e+00 1.4852366e-01 
2.4421619e-01 0.0000000e+00 -2.2903182e-02 
2.6515469e-01 0.0000000e+00 2.4716188e-03 
2.6949197e-01 0.0000000e+00 -1.2006635e-03 
2.7045012e-01 0.0000000e+00 2.9564742e-04 
4.1336678e-02 0.0000000e+00 -2.6869165e-02 
1.4449739e-01 0.0000000e+00 2.6234117e-01 
2.4424422e-01 0.0000000e+00 -2.4591640e-02 
2.6514819e-01 0.0000000e+00 3.4609402e-03 
2.6949340e-01 0.0000000e+00 -1.3124463e-03 
2.7044988e-01 0.0000000e+00 3.7675691e-04 
4.1310694e-02 0.0000000e+00 -2.6043322e-02 
1.4449695e-01 0.0000000e+00 4.1027418e-01 
2.4427223e-01 0.0000000e+00 -2.4104808e-02 
2.6514170e-01 0.0000000e+00 4.3673208e-03 
2.6949486e-01 0.0000000e+00 -1.3140186e-03 
2.7044964e-01 0.0000000e+00 4.4146652e-04 
4.1284714e-02 0.0000000e+00 -2.3347024e-02 
1.4449649e-01 0.0000000e+00 5.9350097e-01 
2.4430025e-01 0.0000000e+00 -2.1921406e-02 
2.6513517e-01 0.0000000e+00 5.0908197e-03 
2.6949632e-01 0.0000000e+00 -1.2264187e-03 
2.7044943e-01 0.0000000e+00 4.8451737e-04 
4.1258730e-02 0.0000000e+00 -1.9353669e-02 
1.4449604e-01 0.0000000e+00 8.1319994e-01 
2.4432826e-01 0.0000000e+00 -1.8520145e-02 
2.6512867e-01 0.0000000e+00 5.5314950e-03 
2.6949775e-01 0.0000000e+00 -1.0706842e-03 
2.7044919e-01 0.0000000e+00 5.0065061e-04 
4.1232746e-02 0.0000000e+00 -1.4636657e-02 
1.4449559e-01 0.0000000e+00 5.7054943e-01 
2.4435629e-01 0.0000000e+00 -1.4379747e-02 
2.6512218e-01 0.0000000e+00 5.5894060e-03 
2.6949921e-01 0.0000000e+00 -8.6785347e-04 
2.7044895e-01 0.0000000e+00 4.8460730e-04 
4.1206766e-02 0.0000000e+00 -9.7693847e-03 
1.4449514e-01 0.0000000e+00 3.6672783e-01 
2.4438430e-01 0.0000000e+00 -9.9789258e-03 
2.6511565e-01 0.0000000e+00 5.1646107e-03 
2.6950064e-01 0.0000000e+00 -6.3896441e-04 
2.7044871e-01 0.0000000e+00 4.3112863e-04 
4.1180782e-02 0.0000000e+00 -5.3252522e-03 
1.4449470e-01 0.0000000e+00 2.0291342e-01 
2.4441232e-01 0.0000000e+00 -5.7963966e-03 
2.6510915e-01 0.0000000e+00 4.1571683e-03 
2.6950210e-01 0.0000000e+00 -4.0505509e-04 
2.7044848e-01 0.0000000e+00 3.3495566e-04 
4.1154802e-02 0.0000000e+00 -1.8776576e-03 
1.4449425e-01 0.0000000e+00 8.0284595e-02 
2.4444033e-01 0.0000000e+00 -2.3108779e-03 
2.6510265e-01 0.0000000e+00 2.4671373e-03 
2.6950353e-01 0.0000000e+00 -1.8716356e-04 
2.7044827e-01 0.0000000e+00 1.9082955e-04 
0.0000000e+00 0.0000000e+00 0.0000000e+00 
5.3530256e-03 0.0000000e+00 -1.7778478e-16 
1.0625255e-02 0.0000000e+00 -3.5555447e-16 
1.5735894e-02 0.0000000e+00 -5.3332561e-16 
2.0604149e-02 0.0000000e+00 -7.1108479e-16 
2.5149219e-02 0.0000000e+00 -8.8884366e-16 
2.9290313e-02 0.0000000e+00 -1.0665999e-15 
3.2946635e-02 0.0000000e+00 -1.2443526e-15 
3.6037389e-02 0.0000000e+00 -1.4221120e-15 
3.8481779e-02 0.0000000e+00 -1.5998539e-15 
4.0199012e-02 0.0000000e+00 -1.7776058e-15 
4.1108292e-02 0.0000000e+00 -1.9553641e-15 
4.1128818e-02 0.0000000e+00 -2.1331214e-15 
4.0542204e-02 0.0000000e+00 1.6424692e-06 
4.0007997e-02 0.0000000e+00 3.2849384e-06 
4.0012307e-02 0.0000000e+00 4.9274076e-06 
4.1041259e-02 0.0000000e+00 6.5698769e-06 
4.3580964e-02 0.0000000e+00 8.2123461e-06 
4.8117541e-02 0.0000000e+00 9.8548153e-06 
5.5137105e-02 0.0000000e+00 1.1497285e-05 
6.5125771e-02 0.0000000e+00 1.3139754e-05 
7.8569658e-02 0.0000000e+00 1.4782223e-05 
9.5954880e-02 0.0000000e+00 1.6424692e-05 
1.1776756e-01 0.0000000e+00 1.8067161e-05 
1.4449380e-01 0.0000000e+00 1.9709631e-05 
1.7117858e-01 0.0000000e+00 1.7976770e-05 
1.9287336e-01 0.0000000e+00 1.6243912e-05 
2.1007404e-01 0.0000000e+00 1.4511053e-05 
2.2327653e-01 0.0000000e+00 1.2778194e-05 
2.3297669e-01 0.0000000e+00 1.1045335e-05 
2.3967046e-01 0.0000000e+00 9.3124763e-06 
2.4385369e-01 0.0000000e+00 7.5796170e-06 
2.4602230e-01 0.0000000e+00 5.8467581e-06 
2.4667217e-01 0.0000000e+00 4.1138992e-06 
2.4629921e-01 0.0000000e+00 2.3810401e-06 
2.4539931e-01 0.0000000e+00 6.4818101e-07 
2.4446836e-01 0.0000000e+00 -1.0846780e-06 
2.4410717e-01 0.0000000e+00 -1.4462805e-06 
2.4450898e-01 0.0000000e+00 -1.8078830e-06 
2.4555838e-01 0.0000000e+00 -2.1694855e-06 
2.4713992e-01 0.0000000e+00 -2.5310881e-06 
2.4913815e-01 0.0000000e+00 -2.8926904e-06 
2.5143763e-01 0.0000000e+00 -3.2542930e-06 
2.5392291e-01 0.0000000e+00 -3.6158954e-06 
2.5647858e-01 0.0000000e+00 -3.9774977e-06 
2.5898919e-01 0.0000000e+00 -4.3391005e-06 
2.6133928e-01 0.0000000e+00 -4.7007029e-06 
2.6341340e-01 0.0000000e+00 -5.0623053e-06 
2.6509616e-01 0.0000000e+00 -5.4239076e-06 
2.6640603e-01 0.0000000e+00 -5.4992338e-06 
2.6745620e-01 0.0000000e+00 -5.5745600e-06 
2.6827317e-01 0.0000000e+00 -5.6498861e-06 
2.6888344e-01 0.0000000e+00 -5.7252123e-06 
2.6931351e-01 0.0000000e+00 -5.8005380e-06 
2.6958990e-01 0.0000000e+00 -5.8758642e-06 
2.6973909e-01 0.0000000e+00 -5.9511904e-06 
2.6978761e-01 0.0000000e+00 -6.0265165e-06 
2.6976195e-01 0.0000000e+00 -6.1018422e-06 
2.6968864e-01 0.0000000e+00 -6.1771684e-06 
2.6959416e-01 0.0000000e+00 -6.2524946e-06 
2.6950499e-01 0.0000000e+00 -6.3278208e-06 
2.6944968e-01 0.0000000e+00 -6.3428843e-06 
2.6943567e-01 0.0000000e+00 -6.3579482e-06 
2.6945785e-01 0.0000000e+00 -6.3730117e-06 
2.6951113e-01 0.0000000e+00 -6.3880757e-06 
2.6959047e-01 0.0000000e+00 -6.4031397e-06 
2.6969075e-01 0.0000000e+00 -6.4182032e-06 
2.6980692e-01 0.0000000e+00 -6.4332671e-06 
2.6993388e-01 0.0000000e+00 -6.4483306e-06 
2.7006656e-01 0.0000000e+00 -6.4633946e-06 
2.7019987e-01 0.0000000e+00 -6.4784581e-06 
2.7032870e-01 0.0000000e+00 -6.4935221e-06 
2.7044803e-01 0.0000000e+00 -6.5085860e-06 
ADJOINT_ROTATION 3 212  float
0.0000000e+00 6.0571758e-03 0.0000000e+00 
0.0000000e+00 6.2187668e-03 0.0000000e+00 
0.0000000e+00 6.7035393e-03 0.0000000e+00 
0.0000000e+00 7.5114933e-03 0.0000000e+00 
0.0000000e+00 8.6426288e-03 0.0000000e+00 
0.0000000e+00 1.0096947e-02 0.0000000e+00 
0.0000000e+00 1.1874446e-02 0.0000000e+00 
0.0000000e+00 1.3975126e-02 0.0000000e+00 
0.0000000e+00 1.6398989e-02 0.0000000e+00 
0.0000000e+00 1.9146033e-02 0.0000000e+00 
0.0000000e+00 2.2216259e-02 0.0000000e+00 
0.0000000e+00 2.5609665e-02 0.0000000e+00 
0.0000000e+00 2.9326255e-02 0.0000000e+00 
0.0000000e+00 3.6969651e-02 0.0000000e+00 
0.0000000e+00 4.2668581e-02 0.0000000e+00 
0.0000000e+00 4.6423048e-02 0.0000000e+00 
0.0000000e+00 4.8233047e-02 0.0000000e+00 
0.0000000e+00 4.8098583e-02 0.0000000e+00 
0.0000000e+00 4.6019651e-02 0.0000000e+00 
0.0000000e+00 4.1996256e-02 0.0000000e+00 
0.0000000e+00 3.6028393e-02 0.0000000e+00 
0.0000000e+00 2.8116066e-02 0.0000000e+00 
0.0000000e+00 1.8259274e-02 0.0000000e+00 
0.0000000e+00 6.4580161e-03 0.0000000e+00 
0.0000000e+00 -7.2877072e-03 0.0000000e+00 
0.0000000e+00 6.4045954e-03 0.0000000e+00 
0.0000000e+00 1.8113321e-02 0.0000000e+00 
0.0000000e+00 2.7838469e-02 0.0000000e+00 
0.0000000e+00 3.5580039e-02 0.0000000e+00 
0.0000000e+00 4.1338034e-02 0.0000000e+00 
0.0000000e+00 4.5112450e-02 0.0000000e+00 
0.0000000e+00 4.6903290e-02 0.0000000e+00 
0.0000000e+00 4.6710551e-02 0.0000000e+00 
0.0000000e+00 4.4534232e-02 0.0000000e+00 
0.0000000e+00 4.0374342e-02 0.0000000e+00 
0.0000000e+00 3.4230869e-02 0.0000000e+00 
0.0000000e+00 2.6103823e-02 0.0000000e+00 
0.0000000e+00 2.1306021e-02 0.0000000e+00 
0.0000000e+00 1.6969983e-02 0.0000000e+00 
0.0000000e+00 1.3095707e-02 0.0000000e+00 
0.0000000e+00 9.6831918e-03 0.0000000e+00 
0.0000000e+00 6.7324401e-03 0.0000000e+00 
0.0000000e+00 4.2434502e-03 0.0000000e+00 
0.0000000e+00 2.2162227e-03 0.0000000e+00 
0.0000000e+00 6.5075763e-04 0.0000000e+00 
0.0000000e+00 -4.5294521e-04 0.0000000e+00 
0.0000000e+00 -1.0948858e-03 0.0000000e+00 
0.0000000e+00 -1.2750640e-03 0.0000000e+00 
0.0000000e+00 -9.9347997e-04 0.0000000e+00 
0.0000000e+00 -2.1719951e-04 0.0000000e+00 
0.0000000e+00 4.5306195e-04 0.0000000e+00 
0.0000000e+00 1.0173045e-03 0.0000000e+00 
0.0000000e+00 1.4755280e-03 0.0000000e+00 
0.0000000e+00 1.8277327e-03 0.0000000e+00 
0.0000000e+00 2.0739182e-03 0.0000000e+00 
0.0000000e+00 2.2140851e-03 0.0000000e+00 
0.0000000e+00 2.2482327e-03 0.0000000e+00 
0.0000000e+00 2.1763616e-03 0.0000000e+00 
0.0000000e+00 1.9984716e-03 0.0000000e+00 
0.0000000e+00 1.7145625e-03 0.0000000e+00 
0.0000000e+00 1.3246345e-03 0.0000000e+00 
0.0000000e+00 1.0862238e-03 0.0000000e+00 
0.0000000e+00 8.6814119e-04 0.0000000e+00 
0.0000000e+00 6.7038694e-04 0.0000000e+00 
0.0000000e+00 4.9296103e-04 0.0000000e+00 
0.0000000e+00 3.3586330e-04 0.0000000e+00 
0.0000000e+00 1.9909389e-04 0.0000000e+00 
0.0000000e+00 8.2652747e-05 0.0000000e+00 
0.0000000e+00 -1.3460132e-05 0.0000000e+00 
0.0000000e+00 -8.9244735e-05 0.0000000e+00 
0.0000000e+00 -1.4470107e-04 0.0000000e+00 
0.0000000e+00 -1.7982913e-04 0.0000000e+00 
0.0000000e+00 -1.9462891e-04 0.0000000e+00 
0.0000000e+00 2.0424753e-02 0.0000000e+00 
0.0000000e+00 -6.7270152e-02 0.0000000e+00 
0.0000000e+00 1.8402232e-02 0.0000000e+00 
0.0000000e+00 -1.5271879e-03 0.0000000e+00 
0.0000000e+00 9.5694739e-04 0.0000000e+00 
0.0000000e+00 -1.9864134e-04 0.0000000e+00 
0.0000000e+00 1.2670050e-02 0.0000000e+00 
0.0000000e+00 -1.2960932e-01 0.0000000e+00 
0.0000000e+00 1.1658073e-02 0.0000000e+00 
0.0000000e+00 -1.8610132e-03 0.0000000e+00 
0.0000000e+00 6.3133636e-04 0.0000000e+00 
0.0000000e+00 -1.9213601e-04 0.0000000e+00 
0.0000000e+00 6.0621453e-03 0.0000000e+00 
0.0000000e+00 -1.9430517e-01 0.0000000e+00 
0.0000000e+00 5.8713476e-03 0.0000000e+00 
0.0000000e+00 -1.9949558e-03 0.0000000e+00 
0.0000000e+00 3.4780137e-04 0.0000000e+00 
0.0000000e+00 -1.7511290e-04 0.0000000e+00 
0.0000000e+00 6.0103746e-04 0.0000000e+00 
0.0000000e+00 -2.6135775e-01 0.0000000e+00 
0.0000000e+00 1.0420542e-03 0.0000000e+00 
0.0000000e+00 -1.9290160e-03 0.0000000e+00 
0.0000000e+00 1.0634247e-04 0.0000000e+00 
0.0000000e+00 -1.4757205e-04 0.0000000e+00 
0.0000000e+00 -3.7132727e-03 0.0000000e+00 
0.0000000e+00 -3.3076701e-01 0.0000000e+00 
0.0000000e+00 -2.8298064e-03 0.0000000e+00 
0.0000000e+00 -1.6631933e-03 0.0000000e+00 
0.0000000e+00 -9.3040362e-05 0.0000000e+00 
0.0000000e+00 -1.0951342e-04 0.0000000e+00 
0.0000000e+00 -6.8807853e-03 0.0000000e+00 
0.0000000e+00 -4.0253299e-01 0.0000000e+00 
0.0000000e+00 -5.7442342e-03 0.0000000e+00 
0.0000000e+00 -1.1974880e-03 0.0000000e+00 
0.0000000e+00 -2.5034713e-04 0.0000000e+00 
0.0000000e+00 -6.0937040e-05 0.0000000e+00 
0.0000000e+00 -8.9015001e-03 0.0000000e+00 
0.0000000e+00 -4.7665569e-01 0.0000000e+00 
0.0000000e+00 -7.7012298e-03 0.0000000e+00 
0.0000000e+00 -5.3190003e-04 0.0000000e+00 
0.0000000e+00 -3.6557784e-04 0.0000000e+00 
0.0000000e+00 -1.8428956e-06 0.0000000e+00 
0.0000000e+00 -9.7754179e-03 0.0000000e+00 
0.0000000e+00 4.4686493e-01 0.0000000e+00 
0.0000000e+00 -8.7007927e-03 0.0000000e+00 
0.0000000e+00 3.3357061e-04 0.0000000e+00 
0.0000000e+00 -4.3873247e-04 0.0000000e+00 
0.0000000e+00 6.7769011e-05 0.0000000e+00 
0.0000000e+00 -9.5025375e-03 0.0000000e+00 
0.0000000e+00 3.6802882e-01 0.0000000e+00 
0.0000000e+00 -8.7429220e-03 0.0000000e+00 
0.0000000e+00 1.3989239e-03 0.0000000e+00 
0.0000000e+00 -4.6981103e-04 0.0000000e+00 
0.0000000e+00 1.4789868e-04 0.0000000e+00 
0.0000000e+00 -8.0828601e-03 0.0000000e+00 
0.0000000e+00 2.8683600e-01 0.0000000e+00 
0.0000000e+00 -7.8276200e-03 0.0000000e+00 
0.0000000e+00 2.6641598e-03 0.0000000e+00 
0.0000000e+00 -4.5881353e-04 0.0000000e+00 
0.0000000e+00 2.3854611e-04 0.0000000e+00 
0.0000000e+00 -5.5163852e-03 0.0000000e+00 
0.0000000e+00 2.0328650e-01 0.0000000e+00 
0.0000000e+00 -5.9548845e-03 0.0000000e+00 
0.0000000e+00 4.1292785e-03 0.0000000e+00 
0.0000000e+00 -4.0573996e-04 0.0000000e+00 
0.0000000e+00 3.3971129e-04 0.0000000e+00 
0.0000000e+00 2.1465966e-02 0.0000000e+00 
0.0000000e+00 2.1304375e-02 0.0000000e+00 
0.0000000e+00 2.0819603e-02 0.0000000e+00 
0.0000000e+00 2.0011649e-02 0.0000000e+00 
0.0000000e+00 1.8880513e-02 0.0000000e+00 
0.0000000e+00 1.7426195e-02 0.0000000e+00 
0.0000000e+00 1.5648697e-02 0.0000000e+00 
0.0000000e+00 1.3548016e-02 0.0000000e+00 
0.0000000e+00 1.1124154e-02 0.0000000e+00 
0.0000000e+00 8.3771097e-03 0.0000000e+00 
0.0000000e+00 5.3068837e-03 0.0000000e+00 
0.0000000e+00 1.9134765e-03 0.0000000e+00 
0.0000000e+00 -1.8031123e-03 0.0000000e+00 
0.0000000e+00 -2.5657236e-03 0.0000000e+00 
0.0000000e+00 -1.3838692e-03 0.0000000e+00 
0.0000000e+00 1.7424505e-03 0.0000000e+00 
0.0000000e+00 6.8132356e-03 0.0000000e+00 
0.0000000e+00 1.3828486e-02 0.0000000e+00 
0.0000000e+00 2.2788202e-02 0.0000000e+00 
0.0000000e+00 3.3692382e-02 0.0000000e+00 
0.0000000e+00 4.6541031e-02 0.0000000e+00 
0.0000000e+00 6.1334144e-02 0.0000000e+00 
0.0000000e+00 7.8071721e-02 0.0000000e+00 
0.0000000e+00 9.6753761e-02 0.0000000e+00 
0.0000000e+00 1.1738028e-01 0.0000000e+00 
0.0000000e+00 9.6428514e-02 0.0000000e+00 
0.0000000e+00 7.7460334e-02 0.0000000e+00 
0.0000000e+00 6.0475733e-02 0.0000000e+00 
0.0000000e+00 4.5474708e-02 0.0000000e+00 
0.0000000e+00 3.2457259e-02 0.0000000e+00 
0.0000000e+00 2.1423386e-02 0.0000000e+00 
0.0000000e+00 1.2373094e-02 0.0000000e+00 
0.0000000e+00 5.3063766e-03 0.0000000e+00 
0.0000000e+00 2.2323756e-04 0.0000000e+00 
0.0000000e+00 -2.8763243e-03 0.0000000e+00 
0.0000000e+00 -3.9923089e-03 0.0000000e+00 
0.0000000e+00 -3.1247162e-03 0.0000000e+00 
0.0000000e+00 1.5822604e-04 0.0000000e+00 
0.0000000e+00 2.9794062e-03 0.0000000e+00 
0.0000000e+00 5.3388239e-03 0.0000000e+00 
0.0000000e+00 7.2364793e-03 0.0000000e+00 
0.0000000e+00 8.6723724e-03 0.0000000e+00 
0.0000000e+00 9.6465033e-03 0.0000000e+00 
0.0000000e+00 1.0158871e-02 0.0000000e+00 
0.0000000e+00 1.0209478e-02 0.0000000e+00 
0.0000000e+00 9.7983219e-03 0.0000000e+00 
0.0000000e+00 8.9254035e-03 0.0000000e+00 
0.0000000e+00 7.5907228e-03 0.0000000e+00 
0.0000000e+00 5.7942797e-03 0.0000000e+00 
0.0000000e+00 4.7024363e-03 0.0000000e+00 
0.0000000e+00 3.7166120e-03 0.0000000e+00 
0.0000000e+00 2.8368065e-03 0.0000000e+00 
0.0000000e+00 2.0630199e-03 0.0000000e+00 
0.0000000e+00 1.3952523e-03 0.0000000e+00 
0.0000000e+00 8.3350367e-04 0.0000000e+00 
0.0000000e+00 3.7777395e-04 0.0000000e+00 
0.0000000e+00 2.8063199e-05 0.0000000e+00 
0.0000000e+00 -2.1562861e-04 0.0000000e+00 
0.0000000e+00 -3.5330147e-04 0.0000000e+00 
0.0000000e+00 -3.8495538e-04 0.0000000e+00 
0.0000000e+00 -3.1059032e-04 0.0000000e+00 
0.0000000e+00 -1.3528611e-04 0.0000000e+00 
0.0000000e+00 1.9689818e-05 0.0000000e+00 
0.0000000e+00 1.5433748e-04 0.0000000e+00 
0.0000000e+00 2.6865688e-04 0.0000000e+00 
0.0000000e+00 3.6264799e-04 0.0000000e+00 
0.0000000e+00 4.3631086e-04 0.0000000e+00 
0.0000000e+00 4.8964540e-04 0.0000000e+00 
0.0000000e+00 5.2265171e-04 0.0000000e+00 
0.0000000e+00 5.3532975e-04 0.0000000e+00 