# vtk DataFile Version 4.0
vtk output
ASCII
DATASET UNSTRUCTURED_GRID
POINTS 212 float
0.0000000e+00 0.0000000e+00 0.0000000e+00 
0.0000000e+00 0.0000000e+00 2.5000000e-01 
0.0000000e+00 0.0000000e+00 5.0000000e-01 
0.0000000e+00 0.0000000e+00 7.5000000e-01 
0.0000000e+00 0.0000000e+00 1.0000000e+00 
0.0000000e+00 0.0000000e+00 1.2500000e+00 
0.0000000e+00 0.0000000e+00 1.5000000e+00 
0.0000000e+00 0.0000000e+00 1.7500000e+00 
0.0000000e+00 0.0000000e+00 2.0000000e+00 
0.0000000e+00 0.0000000e+00 2.2500000e+00 
0.0000000e+00 0.0000000e+00 2.5000000e+00 
0.0000000e+00 0.0000000e+00 2.7500000e+00 
0.0000000e+00 0.0000000e+00 3.0000000e+00 
0.0000000e+00 0.0000000e+00 3.2500000e+00 
0.0000000e+00 0.0000000e+00 3.5000000e+00 
0.0000000e+00 0.0000000e+00 3.7500000e+00 
0.0000000e+00 0.0000000e+00 4.0000000e+00 
0.0000000e+00 0.0000000e+00 4.2500000e+00 
0.0000000e+00 0.0000000e+00 4.5000000e+00 
0.0000000e+00 0.0000000e+00 4.7500000e+00 
0.0000000e+00 0.0000000e+00 5.0000000e+00 
0.0000000e+00 0.0000000e+00 5.2500000e+00 
0.0000000e+00 0.0000000e+00 5.5000000e+00 
0.0000000e+00 0.0000000e+00 5.7500000e+00 
0.0000000e+00 0.0000000e+00 6.0000000e+00 
0.0000000e+00 0.0000000e+00 6.2500000e+00 
0.0000000e+00 0.0000000e+00 6.5000000e+00 
0.0000000e+00 0.0000000e+00 6.7500000e+00 
0.0000000e+00 0.0000000e+00 7.0000000e+00 
0.0000000e+00 0.0000000e+00 7.2500000e+00 
0.0000000e+00 0.0000000e+00 7.5000000e+00 
0.0000000e+00 0.0000000e+00 7.7500000e+00 
0.0000000e+00 0.0000000e+00 8.0000000e+00 
0.0000000e+00 0.0000000e+00 8.2500000e+00 
0.0000000e+00 0.0000000e+00 8.5000000e+00 
0.0000000e+00 0.0000000e+00 8.7500000e+00 
0.0000000e+00 0.0000000e+00 9.0000000e+00 
0.0000000e+00 0.0000000e+00 9.2500000e+00 
0.0000000e+00 0.0000000e+00 9.5000000e+00 
0.0000000e+00 0.0000000e+00 9.7500000e+00 
0.0000000e+00 0.0000000e+00 1.0000000e+01 
0.0000000e+00 0.0000000e+00 1.0250000e+01 
0.0000000e+00 0.0000000e+00 1.0500000e+01 
0.0000000e+00 0.0000000e+00 1.0750000e+01 
0.0000000e+00 0.0000000e+00 1.1000000e+01 
0.0000000e+00 0.0000000e+00 1.1250000e+01 
0.0000000e+00 0.0000000e+00 1.1500000e+01 
0.0000000e+00 0.0000000e+00 1.1750000e+01 
0.0000000e+00 0.0000000e+00 1.2000000e+01 
0.0000000e+00 0.0000000e+00 1.2250000e+01 
0.0000000e+00 0.0000000e+00 1.2500000e+01 
0.0000000e+00 0.0000000e+00 1.2750000e+01 
0.0000000e+00 0.0000000e+00 1.3000000e+01 
0.0000000e+00 0.0000000e+00 1.3250000e+01 
0.0000000e+00 0.0000000e+00 1.3500000e+01 
0.0000000e+00 0.0000000e+00 1.3750000e+01 
0.0000000e+00 0.0000000e+00 1.4000000e+01 
0.0000000e+00 0.0000000e+00 1.4250000e+01 
0.0000000e+00 0.0000000e+00 1.4500000e+01 
0.0000000e+00 0.0000000e+00 1.4750000e+01 
0.0000000e+00 0.0000000e+00 1.5000000e+01 
0.0000000e+00 0.0000000e+00 1.5250000e+01 
0.0000000e+00 0.0000000e+00 1.5500000e+01 
0.0000000e+00 0.0000000e+00 1.5750000e+01 
0.0000000e+00 0.0000000e+00 1.6000000e+01 
0.0000000e+00 0.0000000e+00 1.6250000e+01 
0.0000000e+00 0.0000000e+00 1.6500000e+01 
0.0000000e+00 0.0000000e+00 1.6750000e+01 
0.0000000e+00 0.0000000e+00 1.7000000e+01 
0.0000000e+00 0.0000000e+00 1.7250000e+01 
0.0000000e+00 0.0000000e+00 1.7500000e+01 
0.0000000e+00 0.0000000e+00 1.7750000e+01 
0.0000000e+00 0.0000000e+00 1.8000000e+01 
5.0000000e-01 0.0000000e+00 3.0000000e+00 
5.0000000e-01 0.0000000e+00 6.0000000e+00 
5.0000000e-01 0.0000000e+00 9.0000000e+00 
5.0000000e-01 0.0000000e+00 1.2000000e+01 
5.0000000e-01 0.0000000e+00 1.5000000e+01 
5.0000000e-01 0.0000000e+00 1.8000000e+01 
1.0000000e+00 0.0000000e+00 3.0000000e+00 
1.0000000e+00 0.0000000e+00 6.0000000e+00 
1.0000000e+00 0.0000000e+00 9.0000000e+00 
1.0000000e+00 0.0000000e+00 1.2000000e+01 
1.0000000e+00 0.0000000e+00 1.5000000e+01 
1.0000000e+00 0.0000000e+00 1.8000000e+01 
1.5000000e+00 0.0000000e+00 3.0000000e+00 
1.5000000e+00 0.0000000e+00 6.0000000e+00 
1.5000000e+00 0.0000000e+00 9.0000000e+00 
1.5000000e+00 0.0000000e+00 1.2000000e+01 
1.5000000e+00 0.0000000e+00 1.5000000e+01 
1.5000000e+00 0.0000000e+00 1.8000000e+01 
2.0000000e+00 0.0000000e+00 3.0000000e+00 
2.0000000e+00 0.0000000e+00 6.0000000e+00 
2.0000000e+00 0.0000000e+00 9.0000000e+00 
2.0000000e+00 0.0000000e+00 1.2000000e+01 
2.0000000e+00 0.0000000e+00 1.5000000e+01 
2.0000000e+00 0.0000000e+00 1.8000000e+01 
2.5000000e+00 0.0000000e+00 3.0000000e+00 
2.5000000e+00 0.0000000e+00 6.0000000e+00 
2.5000000e+00 0.0000000e+00 9.0000000e+00 
2.5000000e+00 0.0000000e+00 1.2000000e+01 
2.5000000e+00 0.0000000e+00 1.5000000e+01 
2.5000000e+00 0.0000000e+00 1.8000000e+01 
3.0000000e+00 0.0000000e+00 3.0000000e+00 
3.0000000e+00 0.0000000e+00 6.0000000e+00 
3.0000000e+00 0.0000000e+00 9.0000000e+00 
3.0000000e+00 0.0000000e+00 1.2000000e+01 
3.0000000e+00 0.0000000e+00 1.5000000e+01 
3.0000000e+00 0.0000000e+00 1.8000000e+01 
3.5000000e+00 0.0000000e+00 3.0000000e+00 
3.5000000e+00 0.0000000e+00 6.0000000e+00 
3.5000000e+00 0.0000000e+00 9.0000000e+00 
3.5000000e+00 0.0000000e+00 1.2000000e+01 
3.5000000e+00 0.0000000e+00 1.5000000e+01 
3.5000000e+00 0.0000000e+00 1.8000000e+01 
4.0000000e+00 0.0000000e+00 3.0000000e+00 
4.0000000e+00 0.0000000e+00 6.0000000e+00 
4.0000000e+00 0.0000000e+00 9.0000000e+00 
4.0000000e+00 0.0000000e+00 1.2000000e+01 
4.0000000e+00 0.0000000e+00 1.5000000e+01 
4.0000000e+00 0.0000000e+00 1.8000000e+01 
4.5000000e+00 0.0000000e+00 3.0000000e+00 
4.5000000e+00 0.0000000e+00 6.0000000e+00 
4.5000000e+00 0.0000000e+00 9.0000000e+00 
4.5000000e+00 0.0000000e+00 1.2000000e+01 
4.5000000e+00 0.0000000e+00 1.5000000e+01 
4.5000000e+00 0.0000000e+00 1.8000000e+01 
5.0000000e+00 0.0000000e+00 3.0000000e+00 
5.0000000e+00 0.0000000e+00 6.0000000e+00 
5.0000000e+00 0.0000000e+00 9.0000000e+00 
5.0000000e+00 0.0000000e+00 1.2000000e+01 
5.0000000e+00 0.0000000e+00 1.5000000e+01 
5.0000000e+00 0.0000000e+00 1.8000000e+01 
5.5000000e+00 0.0000000e+00 3.0000000e+00 
5.5000000e+00 0.0000000e+00 6.0000000e+00 
5.5000000e+00 0.0000000e+00 9.0000000e+00 
5.5000000e+00 0.0000000e+00 1.2000000e+01 
5.5000000e+00 0.0000000e+00 1.5000000e+01 
5.5000000e+00 0.0000000e+00 1.8000000e+01 
6.0000000e+00 0.0000000e+00 0.0000000e+00 
6.0000000e+00 0.0000000e+00 2.5000000e-01 
6.0000000e+00 0.0000000e+00 5.0000000e-01 
6.0000000e+00 0.0000000e+00 7.5000000e-01 
6.0000000e+00 0.0000000e+00 1.0000000e+00 
6.0000000e+00 0.0000000e+00 1.2500000e+00 
6.0000000e+00 0.0000000e+00 1.5000000e+00 
6.0000000e+00 0.0000000e+00 1.7500000e+00 
6.0000000e+00 0.0000000e+00 2.0000000e+00 
6.0000000e+00 0.0000000e+00 2.2500000e+00 
6.0000000e+00 0.0000000e+00 2.5000000e+00 
6.0000000e+00 0.0000000e+00 2.7500000e+00 
6.0000000e+00 0.0000000e+00 3.0000000e+00 
6.0000000e+00 0.0000000e+00 3.2500000e+00 
6.0000000e+00 0.0000000e+00 3.5000000e+00 
6.0000000e+00 0.0000000e+00 3.7500000e+00 
6.0000000e+00 0.0000000e+00 4.0000000e+00 
6.0000000e+00 0.0000000e+00 4.2500000e+00 
6.0000000e+00 0.0000000e+00 4.5000000e+00 
6.0000000e+00 0.0000000e+00 4.7500000e+00 
6.0000000e+00 0.0000000e+00 5.0000000e+00 
6.0000000e+00 0.0000000e+00 5.2500000e+00 
6.0000000e+00 0.0000000e+00 5.5000000e+00 
6.0000000e+00 0.0000000e+00 5.7500000e+00 
6.0000000e+00 0.0000000e+00 6.0000000e+00 
6.0000000e+00 0.0000000e+00 6.2500000e+00 
6.0000000e+00 0.0000000e+00 6.5000000e+00 
6.0000000e+00 0.0000000e+00 6.7500000e+00 
6.0000000e+00 0.0000000e+00 7.0000000e+00 
6.0000000e+00 0.0000000e+00 7.2500000e+00 
6.0000000e+00 0.0000000e+00 7.5000000e+00 
6.0000000e+00 0.0000000e+00 7.7500000e+00 
6.0000000e+00 0.0000000e+00 8.0000000e+00 
6.0000000e+00 0.0000000e+00 8.2500000e+00 
6.0000000e+00 0.0000000e+00 8.5000000e+00 
6.0000000e+00 0.0000000e+00 8.7500000e+00 
6.0000000e+00 0.0000000e+00 9.0000000e+00 
6.0000000e+00 0.0000000e+00 9.2500000e+00 
6.0000000e+00 0.0000000e+00 9.5000000e+00 
6.0000000e+00 0.0000000e+00 9.7500000e+00 
6.0000000e+00 0.0000000e+00 1.0000000e+01 
6.0000000e+00 0.0000000e+00 1.0250000e+01 
6.0000000e+00 0.0000000e+00 1.0500000e+01 
6.0000000e+00 0.0000000e+00 1.0750000e+01 
6.0000000e+00 0.0000000e+00 1.1000000e+01 
6.0000000e+00 0.0000000e+00 1.1250000e+01 
6.0000000e+00 0.0000000e+00 1.1500000e+01 
6.0000000e+00 0.0000000e+00 1.1750000e+01 
6.0000000e+00 0.0000000e+00 1.2000000e+01 
6.0000000e+00 0.0000000e+00 1.2250000e+01 
6.0000000e+00 0.0000000e+00 1.2500000e+01 
6.0000000e+00 0.0000000e+00 1.2750000e+01 
6.0000000e+00 0.0000000e+00 1.3000000e+01 
6.0000000e+00 0.0000000e+00 1.3250000e+01 
6.0000000e+00 0.0000000e+00 1.3500000e+01 
6.0000000e+00 0.0000000e+00 1.3750000e+01 
6.0000000e+00 0.0000000e+00 1.4000000e+01 
6.0000000e+00 0.0000000e+00 1.4250000e+01 
6.0000000e+00 0.0000000e+00 1.4500000e+01 
6.0000000e+00 0.0000000e+00 1.4750000e+01 
6.0000000e+00 0.0000000e+00 1.5000000e+01 
6.0000000e+00 0.0000000e+00 1.5250000e+01 
6.0000000e+00 0.0000000e+00 1.5500000e+01 
6.0000000e+00 0.0000000e+00 1.5750000e+01 
6.0000000e+00 0.0000000e+00 1.6000000e+01 
6.0000000e+00 0.0000000e+00 1.6250000e+01 
6.0000000e+00 0.0000000e+00 1.6500000e+01 
6.0000000e+00 0.0000000e+00 1.6750000e+01 
6.0000000e+00 0.0000000e+00 1.7000000e+01 
6.0000000e+00 0.0000000e+00 1.7250000e+01 
6.0000000e+00 0.0000000e+00 1.7500000e+01 
6.0000000e+00 0.0000000e+00 1.7750000e+01 
6.0000000e+00 0.0000000e+00 1.8000000e+01 

CELLS 216 648
2 0 1
2 1 2
2 2 3
2 3 4
2 4 5
2 5 6
2 6 7
2 7 8
2 8 9
2 9 10
2 10 11
2 11 12
2 12 13
2 13 14
2 14 15
2 15 16
2 16 17
2 17 18
2 18 19
2 19 20
2 20 21
2 21 22
2 22 23
2 23 24
2 24 25
2 25 26
2 26 27
2 27 28
2 28 29
2 29 30
2 30 31
2 31 32
2 32 33
2 33 34
2 34 35
2 35 36
2 36 37
2 37 38
2 38 39
2 39 40
2 40 41
2 41 42
2 42 43
2 43 44
2 44 45
2 45 46
2 46 47
2 47 48
2 48 49
2 49 50
2 50 51
2 51 52
2 52 53
2 53 54
2 54 55
2 55 56
2 56 57
2 57 58
2 58 59
2 59 60
2 60 61
2 61 62
2 62 63
2 63 64
2 64 65
2 65 66
2 66 67
2 67 68
2 68 69
2 69 70
2 70 71
2 71 72
2 139 140
2 140 141
2 141 142
2 142 143
2 143 144
2 144 145
2 145 146
2 146 147
2 147 148
2 148 149
2 149 150
2 150 151
2 151 152
2 152 153
2 153 154
2 154 155
2 155 156
2 156 157
2 157 158
2 158 159
2 159 160
2 160 161
2 161 162
2 162 163
2 163 164
2 164 165
2 165 166
2 166 167
2 167 168
2 168 169
2 169 170
2 170 171
2 171 172
2 172 173
2 173 174
2 174 175
2 175 176
2 176 177
2 177 178
2 178 179
2 179 180
2 180 181
2 181 182
2 182 183
2 183 184
2 184 185
2 185 186
2 186 187
2 187 188
2 188 189
2 189 190
2 190 191
2 191 192
2 192 193
2 193 194
2 194 195
2 195 196
2 196 197
2 197 198
2 198 199
2 199 200
2 200 201
2 201 202
2 202 203
2 203 204
2 204 205
2 205 206
2 206 207
2 207 208
2 208 209
2 209 210
2 210 211
2 12 73
2 73 79
2 79 85
2 85 91
2 91 97
2 97 103
2 103 109
2 109 115
2 115 121
2 121 127
2 127 133
2 133 151
2 24 74
2 74 80
2 80 86
2 86 92
2 92 98
2 98 104
2 104 110
2 110 116
2 116 122
2 122 128
2 128 134
2 134 163
2 36 75
2 75 81
2 81 87
2 87 93
2 93 99
2 99 105
2 105 111
2 111 117
2 117 123
2 123 129
2 129 135
2 135 175
2 48 76
2 76 82
2 82 88
2 88 94
2 94 100
2 100 106
2 106 112
2 112 118
2 118 124
2 124 130
2 130 136
2 136 187
2 60 77
2 77 83
2 83 89
2 89 95
2 95 101
2 101 107
2 107 113
2 113 119
2 119 125
2 125 131
2 131 137
2 137 199
2 72 78
2 78 84
2 84 90
2 90 96
2 96 102
2 102 108
2 108 114
2 114 120
2 120 126
2 126 132
2 132 138
2 138 211

CELL_TYPES 216
3
3
3
3
3
3
3
3
3
3
3
3
3
3
3
3
3
3
3
3
3
3
3
3
3
3
3
3
3
3
3
3
3
3
3
3
3
3
3
3
3
3
3
3
3
3
3
3
3
3
3
3
3
3
3
3
3
3
3
3
3
3
3
3
3
3
3
3
3
3
3
3
3
3
3
3
3
3
3
3
3
3
3
3
3
3
3
3
3
3
3
3
3
3
3
3
3
3
3
3
3
3
3
3
3
3
3
3
3
3
3
3
3
3
3
3
3
3
3
3
3
3
3
3
3
3
3
3
3
3
3
3
3
3
3
3
3
3
3
3
3
3
3
3
3
3
3
3
3
3
3
3
3
3
3
3
3
3
3
3
3
3
3
3
3
3
3
3
3
3
3
3
3
3
3
3
3
3
3
3
3
3
3
3
3
3
3
3
3
3
3
3
3
3
3
3
3
3
3
3
3
3
3
3
3
3
3
3
3
3
3
3
3
3
3
3
POINT_DATA 212
FIELD FieldData 3
ADJOINT_DISPLACEMENT 3 212  float
0.0000000e+00 0.0000000e+00 0.0000000e+00 
-5.4788747e-04 0.0000000e+00 -3.8363139e-15 
-1.0915804e-03 0.0000000e+00 -7.6726277e-15 
-1.6268840e-03 0.0000000e+00 -1.1508942e-14 
-2.1496038e-03 0.0000000e+00 -1.5345255e-14 
-2.6555450e-03 0.0000000e+00 -1.9181569e-14 
-3.1405131e-03 0.0000000e+00 -2.3017883e-14 
-3.6003136e-03 0.0000000e+00 -2.6854197e-14 
-4.0307515e-03 0.0000000e+00 -3.0690511e-14 
-4.4276328e-03 0.0000000e+00 -3.4526825e-14 
-4.7867624e-03 0.0000000e+00 -3.8363139e-14 
-5.1039457e-03 0.0000000e+00 -4.2199452e-14 
-5.3749881e-03 0.0000000e+00 -4.6035766e-14 
-5.6484016e-03 0.0000000e+00 5.0077085e-07 
-5.9925914e-03 0.0000000e+00 1.0015418e-06 
-6.4332024e-03 0.0000000e+00 1.5023127e-06 
-6.9958800e-03 0.0000000e+00 2.0030836e-06 
-7.7062701e-03 0.0000000e+00 2.5038546e-06 
-8.5900165e-03 0.0000000e+00 3.0046253e-06 
-9.6727656e-03 0.0000000e+00 3.5053963e-06 
-1.0980163e-02 0.0000000e+00 4.0061673e-06 
-1.2537853e-02 0.0000000e+00 4.5069382e-06 
-1.4371481e-02 0.0000000e+00 5.0077092e-06 
-1.6506692e-02 0.0000000e+00 5.5084802e-06 
-1.8969132e-02 0.0000000e+00 6.0092511e-06 
-2.2020834e-02 0.0000000e+00 8.5136635e-06 
-2.5830684e-02 0.0000000e+00 1.1018075e-05 
-3.0284604e-02 0.0000000e+00 1.3522488e-05 
-3.5268519e-02 0.0000000e+00 1.6026901e-05 
-4.0668357e-02 0.0000000e+00 1.8531313e-05 
-4.6370037e-02 0.0000000e+00 2.1035725e-05 
-5.2259482e-02 0.0000000e+00 2.3540138e-05 
-5.8222622e-02 0.0000000e+00 2.6044550e-05 
-6.4145379e-02 0.0000000e+00 2.8548962e-05 
-6.9913670e-02 0.0000000e+00 3.1053376e-05 
-7.5413428e-02 0.0000000e+00 3.3557790e-05 
-8.0530576e-02 0.0000000e+00 3.6062200e-05 
-8.6168334e-02 0.0000000e+00 4.8086280e-05 
-9.3635626e-02 0.0000000e+00 6.0110364e-05 
-1.0342689e-01 0.0000000e+00 7.2134448e-05 
-1.1603657e-01 0.0000000e+00 8.4158528e-05 
-1.3195911e-01 0.0000000e+00 9.6182608e-05 
-1.5168896e-01 0.0000000e+00 1.0820669e-04 
-1.7572056e-01 0.0000000e+00 1.2023077e-04 
-2.0454834e-01 0.0000000e+00 1.3225485e-04 
-2.3866677e-01 0.0000000e+00 1.4427894e-04 
-2.7857029e-01 0.0000000e+00 1.5630301e-04 
-3.2475334e-01 0.0000000e+00 1.6832710e-04 
-3.7771034e-01 0.0000000e+00 1.8035118e-04 
-4.3068057e-01 0.0000000e+00 1.6835344e-04 
-4.7689947e-01 0.0000000e+00 1.5635570e-04 
-5.1685584e-01 0.0000000e+00 1.4435795e-04 
-5.5103832e-01 0.0000000e+00 1.3236022e-04 
-5.7993579e-01 0.0000000e+00 1.2036249e-04 
-6.0403693e-01 0.0000000e+00 1.0836474e-04 
-6.2383056e-01 0.0000000e+00 9.6367003e-05 
-6.3980538e-01 0.0000000e+00 8.4369269e-05 
-6.5245008e-01 0.0000000e+00 7.2371527e-05 
-6.6225356e-01 0.0000000e+00 6.0373786e-05 
-6.6970456e-01 0.0000000e+00 4.8376049e-05 
-6.7529172e-01 0.0000000e+00 3.6378311e-05 
-6.8032569e-01 0.0000000e+00 3.3979297e-05 
-6.8572879e-01 0.0000000e+00 3.1580283e-05 
-6.9140732e-01 0.0000000e+00 2.9181270e-05 
-6.9726759e-01 0.0000000e+00 2.6782256e-05 
-7.0321602e-01 0.0000000e+00 2.4383244e-05 
-7.0915890e-01 0.0000000e+00 2.1984230e-05 
-7.1500248e-01 0.0000000e+00 1.9585217e-05 
-7.2065324e-01 0.0000000e+00 1.7186203e-05 
-7.2601736e-01 0.0000000e+00 1.4787191e-05 
-7.3100126e-01 0.0000000e+00 1.2388177e-05 
-7.3551124e-01 0.0000000e+00 9.9891640e-06 
-7.3945367e-01 0.0000000e+00 7.5901507e-06 
-5.3781793e-03 0.0000000e+00 3.1470141e-04 
-1.8954189e-02 0.0000000e+00 4.2864750e-03 
-8.0595650e-02 0.0000000e+00 6.3855127e-03 
-3.7770975e-01 0.0000000e+00 1.4161600e-01 
-6.7522943e-01 0.0000000e+00 6.2365178e-03 
-7.3946369e-01 0.0000000e+00 5.9997435e-03 
-5.3813704e-03 0.0000000e+00 3.2245586e-04 
-1.8939247e-02 0.0000000e+00 6.7893001e-03 
-8.0660731e-02 0.0000000e+00 6.8320790e-03 
-3.7770912e-01 0.0000000e+00 3.3749184e-01 
-6.7516714e-01 0.0000000e+00 6.5214862e-03 
-7.3947370e-01 0.0000000e+00 9.7058248e-03 
-5.3845621e-03 0.0000000e+00 9.8181910e-05 
-1.8924303e-02 0.0000000e+00 7.8142416e-03 
-8.0725811e-02 0.0000000e+00 2.7999647e-03 
-3.7770852e-01 0.0000000e+00 5.8421403e-01 
-6.7510486e-01 0.0000000e+00 2.3273146e-03 
-7.3948371e-01 0.0000000e+00 1.1484742e-02 
-5.3877532e-03 0.0000000e+00 -2.8320187e-04 
-1.8909361e-02 0.0000000e+00 7.6610581e-03 
-8.0790892e-02 0.0000000e+00 -4.2866259e-03 
-3.7770793e-01 0.0000000e+00 3.7818876e-01 
-6.7504257e-01 0.0000000e+00 -4.9099652e-03 
-7.3949373e-01 0.0000000e+00 1.1695403e-02 
-5.3909444e-03 0.0000000e+00 -7.4677693e-04 
-1.8894419e-02 0.0000000e+00 6.6295066e-03 
-8.0855973e-02 0.0000000e+00 -1.3003490e-02 
-3.7770730e-01 0.0000000e+00 2.1582220e-01 
-6.7498028e-01 0.0000000e+00 -1.3754323e-02 
-7.3950380e-01 0.0000000e+00 1.0696716e-02 
-5.3941356e-03 0.0000000e+00 -1.2176248e-03 
-1.8879475e-02 0.0000000e+00 5.0193449e-03 
-8.0921054e-02 0.0000000e+00 -2.1926422e-02 
-3.7770671e-01 0.0000000e+00 9.3520544e-02 
-6.7491800e-01 0.0000000e+00 -2.2769727e-02 
-7.3951381e-01 0.0000000e+00 8.8475877e-03 
-5.3973272e-03 0.0000000e+00 -1.6208268e-03 
-1.8864533e-02 0.0000000e+00 3.1303307e-03 
-8.0986127e-02 0.0000000e+00 -2.9631222e-02 
-3.7770608e-01 0.0000000e+00 7.6899733e-03 
-6.7485571e-01 0.0000000e+00 -3.0520145e-02 
-7.3952383e-01 0.0000000e+00 6.5069278e-03 
-5.4005184e-03 0.0000000e+00 -1.8814644e-03 
-1.8849589e-02 0.0000000e+00 1.2622217e-03 
-8.1051208e-02 0.0000000e+00 -3.4693681e-02 
-3.7770548e-01 0.0000000e+00 -4.5263339e-02 
-6.7479342e-01 0.0000000e+00 -3.5569549e-02 
-7.3953384e-01 0.0000000e+00 4.0336424e-03 
-5.4037096e-03 0.0000000e+00 -1.9246190e-03 
-1.8834647e-02 0.0000000e+00 -2.8522447e-04 
-8.1116289e-02 0.0000000e+00 -3.5689600e-02 
-3.7770486e-01 0.0000000e+00 -6.8933211e-02 
-6.7473108e-01 0.0000000e+00 -3.6481906e-02 
-7.3954386e-01 0.0000000e+00 1.7866404e-03 
-5.4069008e-03 0.0000000e+00 -1.6753722e-03 
-1.8819705e-02 0.0000000e+00 -1.2122501e-03 
-8.1181370e-02 0.0000000e+00 -3.1194771e-02 
-3.7770426e-01 0.0000000e+00 -6.6913456e-02 
-6.7466879e-01 0.0000000e+00 -3.1821184e-02 
-7.3955387e-01 0.0000000e+00 1.2482893e-04 
-5.4100924e-03 0.0000000e+00 -1.0588054e-03 
-1.8804761e-02 0.0000000e+00 -1.2190976e-03 
-8.1246451e-02 0.0000000e+00 -1.9784993e-02 
-3.7770367e-01 0.0000000e+00 -4.2797897e-02 
-6.7460650e-01 0.0000000e+00 -2.0151351e-02 
-7.3956388e-01 0.0000000e+00 -5.9288385e-04 
0.0000000e+00 0.0000000e+00 0.0000000e+00 
-3.5113515e-04 0.0000000e+00 3.8531567e-15 
-7.0646493e-04 0.0000000e+00 7.7063134e-15 
-1.0701839e-03 0.0000000e+00 1.1559470e-14 
-1.4464869e-03 0.0000000e+00 1.5412627e-14 
-1.8395683e-03 0.0000000e+00 1.9265783e-14 
-2.2536227e-03 0.0000000e+00 2.3118938e-14 
-2.6928450e-03 0.0000000e+00 2.6972094e-14 
-3.1614294e-03 0.0000000e+00 3.0825250e-14 
-3.6635711e-03 0.0000000e+00 3.4678406e-14 
-4.2034639e-03 0.0000000e+00 3.8531563e-14 
-4.7853035e-03 0.0000000e+00 4.2384716e-14 
-5.4132836e-03 0.0000000e+00 4.6237872e-14 
-6.1512706e-03 0.0000000e+00 -5.0077085e-07 
-7.0432369e-03 0.0000000e+00 -1.0015418e-06 
-8.0635380e-03 0.0000000e+00 -1.5023127e-06 
-9.1865277e-03 0.0000000e+00 -2.0030836e-06 
-1.0386561e-02 0.0000000e+00 -2.5038546e-06 
-1.1637992e-02 0.0000000e+00 -3.0046253e-06 
-1.2915177e-02 0.0000000e+00 -3.5053963e-06 
-1.4192471e-02 0.0000000e+00 -4.0061673e-06 
-1.5444227e-02 0.0000000e+00 -4.5069382e-06 
-1.6644800e-02 0.0000000e+00 -5.0077092e-06 
-1.7768545e-02 0.0000000e+00 -5.5084802e-06 
-1.8789819e-02 0.0000000e+00 -6.0092511e-06 
-1.9896222e-02 0.0000000e+00 -8.5136635e-06 
-2.1368505e-02 0.0000000e+00 -1.1018075e-05 
-2.3320748e-02 0.0000000e+00 -1.3522488e-05 
-2.5867021e-02 0.0000000e+00 -1.6026901e-05 
-2.9121405e-02 0.0000000e+00 -1.8531313e-05 
-3.3197973e-02 0.0000000e+00 -2.1035725e-05 
-3.8210802e-02 0.0000000e+00 -2.3540138e-05 
-4.4273969e-02 0.0000000e+00 -2.6044550e-05 
-5.1501550e-02 0.0000000e+00 -2.8548962e-05 
-6.0007621e-02 0.0000000e+00 -3.1053376e-05 
-6.9906257e-02 0.0000000e+00 -3.3557790e-05 
-8.1311531e-02 0.0000000e+00 -3.6062200e-05 
-9.5456518e-02 0.0000000e+00 -4.8086280e-05 
-1.1316863e-01 0.0000000e+00 -6.0110364e-05 
-1.3395339e-01 0.0000000e+00 -7.2134448e-05 
-1.5731639e-01 0.0000000e+00 -8.4158528e-05 
-1.8276316e-01 0.0000000e+00 -9.6182608e-05 
-2.0979927e-01 0.0000000e+00 -1.0820669e-04 
-2.3793027e-01 0.0000000e+00 -1.2023077e-04 
-2.6666170e-01 0.0000000e+00 -1.3225485e-04 
-2.9549915e-01 0.0000000e+00 -1.4427894e-04 
-3.2394814e-01 0.0000000e+00 -1.5630301e-04 
-3.5151428e-01 0.0000000e+00 -1.6832710e-04 
-3.7770304e-01 0.0000000e+00 -1.8035118e-04 
-4.0388453e-01 0.0000000e+00 -1.6835344e-04 
-4.3143252e-01 0.0000000e+00 -1.5635570e-04 
-4.5985824e-01 0.0000000e+00 -1.4435795e-04 
-4.8867297e-01 0.0000000e+00 -1.3236022e-04 
-5.1738793e-01 0.0000000e+00 -1.2036249e-04 
-5.4551440e-01 0.0000000e+00 -1.0836474e-04 
-5.7256365e-01 0.0000000e+00 -9.6367003e-05 
-5.9804684e-01 0.0000000e+00 -8.4369269e-05 
-6.2147522e-01 0.0000000e+00 -7.2371527e-05 
-6.4236009e-01 0.0000000e+00 -6.0373786e-05 
-6.6021270e-01 0.0000000e+00 -4.8376049e-05 
-6.7454422e-01 0.0000000e+00 -3.6378311e-05 
-6.8619823e-01 0.0000000e+00 -3.3979297e-05 
-6.9640636e-01 0.0000000e+00 -3.1580283e-05 
-7.0526230e-01 0.0000000e+00 -2.9181270e-05 
-7.1285981e-01 0.0000000e+00 -2.6782256e-05 
-7.1929240e-01 0.0000000e+00 -2.4383244e-05 
-7.2465390e-01 0.0000000e+00 -2.1984230e-05 
-7.2903788e-01 0.0000000e+00 -1.9585217e-05 
-7.3253804e-01 0.0000000e+00 -1.7186203e-05 
-7.3524809e-01 0.0000000e+00 -1.4787191e-05 
-7.3726159e-01 0.0000000e+00 -1.2388177e-05 
-7.3867232e-01 0.0000000e+00 -9.9891640e-06 
-7.3957390e-01 0.0000000e+00 -7.5901507e-06 
ADJOINT_ROTATION 3 212  float
0.0000000e+00 -2.1943464e-03 0.0000000e+00 
0.0000000e+00 -2.1859570e-03 0.0000000e+00 
0.0000000e+00 -2.1607894e-03 0.0000000e+00 
0.0000000e+00 -2.1188431e-03 0.0000000e+00 
0.0000000e+00 -2.0601184e-03 0.0000000e+00 
0.0000000e+00 -1.9846153e-03 0.0000000e+00 
0.0000000e+00 -1.8923336e-03 0.0000000e+00 
0.0000000e+00 -1.7832734e-03 0.0000000e+00 
0.0000000e+00 -1.6574349e-03 0.0000000e+00 
0.0000000e+00 -1.5148177e-03 0.0000000e+00 
0.0000000e+00 -1.3554221e-03 0.0000000e+00 
0.0000000e+00 -1.1792480e-03 0.0000000e+00 
0.0000000e+00 -9.8629540e-04 0.0000000e+00 
0.0000000e+00 -1.2181096e-03 0.0000000e+00 
0.0000000e+00 -1.5525048e-03 0.0000000e+00 
0.0000000e+00 -1.9894810e-03 0.0000000e+00 
0.0000000e+00 -2.5290381e-03 0.0000000e+00 
0.0000000e+00 -3.1711762e-03 0.0000000e+00 
0.0000000e+00 -3.9158952e-03 0.0000000e+00 
0.0000000e+00 -4.7631958e-03 0.0000000e+00 
0.0000000e+00 -5.7130768e-03 0.0000000e+00 
0.0000000e+00 -6.7655388e-03 0.0000000e+00 
0.0000000e+00 -7.9205818e-03 0.0000000e+00 
0.0000000e+00 -9.1782063e-03 0.0000000e+00 
0.0000000e+00 -1.0538411e-02 0.0000000e+00 
0.0000000e+00 -1.3799153e-02 0.0000000e+00 
0.0000000e+00 -1.6603591e-02 0.0000000e+00 
0.0000000e+00 -1.8951725e-02 0.0000000e+00 
0.0000000e+00 -2.0843556e-02 0.0000000e+00 
0.0000000e+00 -2.2279082e-02 0.0000000e+00 
0.0000000e+00 -2.3258304e-02 0.0000000e+00 
0.0000000e+00 -2.3781223e-02 0.0000000e+00 
0.0000000e+00 -2.3847837e-02 0.0000000e+00 
0.0000000e+00 -2.3458147e-02 0.0000000e+00 
0.0000000e+00 -2.2612153e-02 0.0000000e+00 
0.0000000e+00 -2.1309856e-02 0.0000000e+00 
0.0000000e+00 -1.9551255e-02 0.0000000e+00 
0.0000000e+00 -2.5880478e-02 0.0000000e+00 
0.0000000e+00 -3.4187477e-02 0.0000000e+00 
0.0000000e+00 -4.4472259e-02 0.0000000e+00 
0.0000000e+00 -5.6734812e-02 0.0000000e+00 
0.0000000e+00 -7.0975147e-02 0.0000000e+00 
0.0000000e+00 -8.7193258e-02 0.0000000e+00 
0.0000000e+00 -1.0538915e-01 0.0000000e+00 
0.0000000e+00 -1.2556282e-01 0.0000000e+00 
0.0000000e+00 -1.4771426e-01 0.0000000e+00 
0.0000000e+00 -1.7184348e-01 0.0000000e+00 
0.0000000e+00 -1.9795048e-01 0.0000000e+00 
0.0000000e+00 -2.2603525e-01 0.0000000e+00 
0.0000000e+00 -1.9805244e-01 0.0000000e+00 
0.0000000e+00 -1.7202464e-01 0.0000000e+00 
0.0000000e+00 -1.4795187e-01 0.0000000e+00 
0.0000000e+00 -1.2583411e-01 0.0000000e+00 
0.0000000e+00 -1.0567138e-01 0.0000000e+00 
0.0000000e+00 -8.7463662e-02 0.0000000e+00 
0.0000000e+00 -7.1210966e-02 0.0000000e+00 
0.0000000e+00 -5.6913294e-02 0.0000000e+00 
0.0000000e+00 -4.4570640e-02 0.0000000e+00 
0.0000000e+00 -3.4183007e-02 0.0000000e+00 
0.0000000e+00 -2.5750395e-02 0.0000000e+00 
0.0000000e+00 -1.9272804e-02 0.0000000e+00 
0.0000000e+00 -2.0936586e-02 0.0000000e+00 
0.0000000e+00 -2.2225695e-02 0.0000000e+00 
0.0000000e+00 -2.3140129e-02 0.0000000e+00 
0.0000000e+00 -2.3679886e-02 0.0000000e+00 
0.0000000e+00 -2.3844969e-02 0.0000000e+00 
0.0000000e+00 -2.3635378e-02 0.0000000e+00 
0.0000000e+00 -2.3051111e-02 0.0000000e+00 
0.0000000e+00 -2.2092169e-02 0.0000000e+00 
0.0000000e+00 -2.0758551e-02 0.0000000e+00 
0.0000000e+00 -1.9050259e-02 0.0000000e+00 
0.0000000e+00 -1.6967293e-02 0.0000000e+00 
0.0000000e+00 -1.4509650e-02 0.0000000e+00 
0.0000000e+00 -2.9748300e-04 0.0000000e+00 
0.0000000e+00 -6.6833715e-03 0.0000000e+00 
0.0000000e+00 -6.3212821e-03 0.0000000e+00 
0.0000000e+00 -3.3850944e-01 0.0000000e+00 
0.0000000e+00 -6.0064308e-03 0.0000000e+00 
0.0000000e+00 -9.5785987e-03 0.0000000e+00 
0.0000000e+00 2.4149234e-04 0.0000000e+00 
0.0000000e+00 -3.4278475e-03 0.0000000e+00 
0.0000000e+00 4.0602824e-03 0.0000000e+00 
0.0000000e+00 -4.4379595e-01 0.0000000e+00 
0.0000000e+00 4.3878802e-03 0.0000000e+00 
0.0000000e+00 -5.3653629e-03 0.0000000e+00 
0.0000000e+00 6.3063059e-04 0.0000000e+00 
0.0000000e+00 -7.7183888e-04 0.0000000e+00 
0.0000000e+00 1.1593440e-02 0.0000000e+00 
0.0000000e+00 -5.4189485e-01 0.0000000e+00 
0.0000000e+00 1.1910128e-02 0.0000000e+00 
0.0000000e+00 -1.8699425e-03 0.0000000e+00 
0.0000000e+00 8.6993171e-04 0.0000000e+00 
0.0000000e+00 1.2846545e-03 0.0000000e+00 
0.0000000e+00 1.6278189e-02 0.0000000e+00 
0.0000000e+00 3.6719388e-01 0.0000000e+00 
0.0000000e+00 1.6560314e-02 0.0000000e+00 
0.0000000e+00 9.0766198e-04 0.0000000e+00 
0.0000000e+00 9.5939572e-04 0.0000000e+00 
0.0000000e+00 2.7416325e-03 0.0000000e+00 
0.0000000e+00 1.8114531e-02 0.0000000e+00 
0.0000000e+00 2.8347027e-01 0.0000000e+00 
0.0000000e+00 1.8338438e-02 0.0000000e+00 
0.0000000e+00 2.9674508e-03 0.0000000e+00 
0.0000000e+00 8.9902262e-04 0.0000000e+00 
0.0000000e+00 3.5990952e-03 0.0000000e+00 
0.0000000e+00 1.7102465e-02 0.0000000e+00 
0.0000000e+00 2.0693429e-01 0.0000000e+00 
0.0000000e+00 1.7244499e-02 0.0000000e+00 
0.0000000e+00 4.3094242e-03 0.0000000e+00 
0.0000000e+00 6.8881246e-04 0.0000000e+00 
0.0000000e+00 3.8570424e-03 0.0000000e+00 
0.0000000e+00 1.3241993e-02 0.0000000e+00 
0.0000000e+00 1.3758595e-01 0.0000000e+00 
0.0000000e+00 1.3278499e-02 0.0000000e+00 
0.0000000e+00 4.9335817e-03 0.0000000e+00 
0.0000000e+00 3.2876516e-04 0.0000000e+00 
0.0000000e+00 3.5154745e-03 0.0000000e+00 
0.0000000e+00 6.5331124e-03 0.0000000e+00 
0.0000000e+00 7.5425245e-02 0.0000000e+00 
0.0000000e+00 6.4404360e-03 0.0000000e+00 
0.0000000e+00 4.8399232e-03 0.0000000e+00 
0.0000000e+00 -1.8111925e-04 0.0000000e+00 
0.0000000e+00 2.5743912e-03 0.0000000e+00 
0.0000000e+00 -3.0241755e-03 0.0000000e+00 
0.0000000e+00 2.0452175e-02 0.0000000e+00 
0.0000000e+00 -3.2696894e-03 0.0000000e+00 
0.0000000e+00 4.0284498e-03 0.0000000e+00 
0.0000000e+00 -8.4084074e-04 0.0000000e+00 
0.0000000e+00 1.0337924e-03 0.0000000e+00 
0.0000000e+00 -1.5429871e-02 0.0000000e+00 
0.0000000e+00 -2.7333252e-02 0.0000000e+00 
0.0000000e+00 -1.5851878e-02 0.0000000e+00 
0.0000000e+00 2.4991601e-03 0.0000000e+00 
0.0000000e+00 -1.6503994e-03 0.0000000e+00 
0.0000000e+00 -1.1063217e-03 0.0000000e+00 
0.0000000e+00 -3.0683974e-02 0.0000000e+00 
0.0000000e+00 -6.7931041e-02 0.0000000e+00 
0.0000000e+00 -3.1306125e-02 0.0000000e+00 
0.0000000e+00 2.5205503e-04 0.0000000e+00 
0.0000000e+00 -1.4017442e-03 0.0000000e+00 
0.0000000e+00 -1.4101334e-03 0.0000000e+00 
0.0000000e+00 -1.4353013e-03 0.0000000e+00 
0.0000000e+00 -1.4772475e-03 0.0000000e+00 
0.0000000e+00 -1.5359721e-03 0.0000000e+00 
0.0000000e+00 -1.6114753e-03 0.0000000e+00 
0.0000000e+00 -1.7037570e-03 0.0000000e+00 
0.0000000e+00 -1.8128171e-03 0.0000000e+00 
0.0000000e+00 -1.9386557e-03 0.0000000e+00 
0.0000000e+00 -2.0812729e-03 0.0000000e+00 
0.0000000e+00 -2.2406685e-03 0.0000000e+00 
0.0000000e+00 -2.4168426e-03 0.0000000e+00 
0.0000000e+00 -2.6097952e-03 0.0000000e+00 
0.0000000e+00 -3.2770035e-03 0.0000000e+00 
0.0000000e+00 -3.8416311e-03 0.0000000e+00 
0.0000000e+00 -4.3036775e-03 0.0000000e+00 
0.0000000e+00 -4.6631428e-03 0.0000000e+00 
0.0000000e+00 -4.9200272e-03 0.0000000e+00 
0.0000000e+00 -5.0743311e-03 0.0000000e+00 
0.0000000e+00 -5.1260535e-03 0.0000000e+00 
0.0000000e+00 -5.0751949e-03 0.0000000e+00 
0.0000000e+00 -4.9217553e-03 0.0000000e+00 
0.0000000e+00 -4.6657352e-03 0.0000000e+00 
0.0000000e+00 -4.3071336e-03 0.0000000e+00 
0.0000000e+00 -3.8459511e-03 0.0000000e+00 
0.0000000e+00 -5.0813234e-03 0.0000000e+00 
0.0000000e+00 -6.7730001e-03 0.0000000e+00 
0.0000000e+00 -8.9209806e-03 0.0000000e+00 
0.0000000e+00 -1.1525265e-02 0.0000000e+00 
0.0000000e+00 -1.4585854e-02 0.0000000e+00 
0.0000000e+00 -1.8102746e-02 0.0000000e+00 
0.0000000e+00 -2.2075942e-02 0.0000000e+00 
0.0000000e+00 -2.6505442e-02 0.0000000e+00 
0.0000000e+00 -3.1391248e-02 0.0000000e+00 
0.0000000e+00 -3.6733355e-02 0.0000000e+00 
0.0000000e+00 -4.2531770e-02 0.0000000e+00 
0.0000000e+00 -4.8786484e-02 0.0000000e+00 
0.0000000e+00 -6.4043820e-02 0.0000000e+00 
0.0000000e+00 -7.7323377e-02 0.0000000e+00 
0.0000000e+00 -8.8625163e-02 0.0000000e+00 
0.0000000e+00 -9.7949162e-02 0.0000000e+00 
0.0000000e+00 -1.0529539e-01 0.0000000e+00 
0.0000000e+00 -1.1066384e-01 0.0000000e+00 
0.0000000e+00 -1.1405451e-01 0.0000000e+00 
0.0000000e+00 -1.1546740e-01 0.0000000e+00 
0.0000000e+00 -1.1490252e-01 0.0000000e+00 
0.0000000e+00 -1.1235985e-01 0.0000000e+00 
0.0000000e+00 -1.0783941e-01 0.0000000e+00 
0.0000000e+00 -1.0134120e-01 0.0000000e+00 
0.0000000e+00 -1.0778475e-01 0.0000000e+00 
0.0000000e+00 -1.1227328e-01 0.0000000e+00 
0.0000000e+00 -1.1480679e-01 0.0000000e+00 
0.0000000e+00 -1.1538527e-01 0.0000000e+00 
0.0000000e+00 -1.1400874e-01 0.0000000e+00 
0.0000000e+00 -1.1067719e-01 0.0000000e+00 
0.0000000e+00 -1.0539062e-01 0.0000000e+00 
0.0000000e+00 -9.8149024e-02 0.0000000e+00 
0.0000000e+00 -8.8952407e-02 0.0000000e+00 
0.0000000e+00 -7.7800773e-02 0.0000000e+00 
0.0000000e+00 -6.4694114e-02 0.0000000e+00 
0.0000000e+00 -4.9632438e-02 0.0000000e+00 
0.0000000e+00 -4.3661762e-02 0.0000000e+00 
0.0000000e+00 -3.8065761e-02 0.0000000e+00 