# vtk DataFile Version 4.0
vtk output
ASCII
DATASET UNSTRUCTURED_GRID
POINTS 30 float
0.0000000e+00 0.0000000e+00 0.0000000e+00 
0.0000000e+00 0.0000000e+00 8.0000001e-01 
0.0000000e+00 0.0000000e+00 1.6000000e+00 
0.0000000e+00 0.0000000e+00 2.4000001e+00 
0.0000000e+00 0.0000000e+00 3.2000000e+00 
0.0000000e+00 0.0000000e+00 4.0000000e+00 
0.0000000e+00 0.0000000e+00 4.8000002e+00 
0.0000000e+00 0.0000000e+00 5.5999999e+00 
0.0000000e+00 0.0000000e+00 6.4000001e+00 
0.0000000e+00 0.0000000e+00 7.1999998e+00 
0.0000000e+00 0.0000000e+00 8.0000000e+00 
1.0000000e+01 0.0000000e+00 0.0000000e+00 
1.0000000e+01 0.0000000e+00 8.0000001e-01 
1.0000000e+01 0.0000000e+00 1.6000000e+00 
1.0000000e+01 0.0000000e+00 2.4000001e+00 
1.0000000e+01 0.0000000e+00 3.2000000e+00 
1.0000000e+01 0.0000000e+00 4.0000000e+00 
1.0000000e+01 0.0000000e+00 4.8000002e+00 
1.0000000e+01 0.0000000e+00 5.5999999e+00 
1.0000000e+01 0.0000000e+00 6.4000001e+00 
1.0000000e+01 0.0000000e+00 7.1999998e+00 
1.0000000e+01 0.0000000e+00 8.0000000e+00 
2.0000000e+00 0.0000000e+00 4.0000000e+00 
4.0000000e+00 0.0000000e+00 4.0000000e+00 
6.0000000e+00 0.0000000e+00 4.0000000e+00 
8.0000000e+00 0.0000000e+00 4.0000000e+00 
2.0000000e+00 0.0000000e+00 8.0000000e+00 
4.0000000e+00 0.0000000e+00 8.0000000e+00 
6.0000000e+00 0.0000000e+00 8.0000000e+00 
8.0000000e+00 0.0000000e+00 8.0000000e+00 

CELLS 30 90
2 0 1
2 1 2
2 2 3
2 3 4
2 4 5
2 5 6
2 6 7
2 7 8
2 8 9
2 9 10
2 11 12
2 12 13
2 13 14
2 14 15
2 15 16
2 16 17
2 17 18
2 18 19
2 19 20
2 20 21
2 5 22
2 22 23
2 23 24
2 24 25
2 25 16
2 10 26
2 26 27
2 27 28
2 28 29
2 29 21

CELL_TYPES 30
3
3
3
3
3
3
3
3
3
3
3
3
3
3
3
3
3
3
3
3
3
3
3
3
3
3
3
3
3
3
POINT_DATA 30
FIELD FieldData 7
DISPLACEMENT 3 30  float
0.0000000e+00 0.0000000e+00 0.0000000e+00 
2.1396637e-04 0.0000000e+00 -1.0105196e-05 
3.6398703e-04 0.0000000e+00 -1.7577928e-05 
3.5754367e-04 0.0000000e+00 -2.4340983e-05 
1.7346587e-04 0.0000000e+00 -3.1104038e-05 
-1.9134289e-04 0.0000000e+00 -3.4468048e-05 
-6.6840986e-04 0.0000000e+00 -4.0004648e-05 
-1.2122680e-03 0.0000000e+00 -4.5905341e-05 
-1.7576426e-03 0.0000000e+00 -5.1438597e-05 
-2.1424936e-03 0.0000000e+00 -5.5747416e-05 
-2.2080913e-03 0.0000000e+00 -6.0056234e-05 
0.0000000e+00 0.0000000e+00 0.0000000e+00 
-1.0336748e-04 0.0000000e+00 3.9923275e-06 
-2.1553689e-04 0.0000000e+00 5.1201650e-06 
-3.0046210e-04 0.0000000e+00 6.2480021e-06 
-3.1168689e-04 0.0000000e+00 1.0052155e-05 
-1.9555326e-04 0.0000000e+00 1.4426431e-05 
-7.4404103e-05 0.0000000e+00 1.6615519e-05 
-1.9232914e-04 0.0000000e+00 1.8804605e-05 
-6.2273245e-04 0.0000000e+00 1.8684492e-05 
-1.3376137e-03 0.0000000e+00 1.9738069e-05 
-2.2132085e-03 0.0000000e+00 1.8034270e-05 
-1.9547471e-04 0.0000000e+00 1.4651702e-03 
-1.9960654e-04 0.0000000e+00 2.7007910e-03 
-2.0281890e-04 0.0000000e+00 2.5489321e-03 
-2.0285243e-04 0.0000000e+00 1.2665142e-03 
-2.2170669e-03 0.0000000e+00 -1.4204014e-03 
-2.2190174e-03 0.0000000e+00 -3.1138547e-03 
-2.2204753e-03 0.0000000e+00 -3.6024859e-03 
-2.2168418e-03 0.0000000e+00 -2.2522926e-03 
ROTATION 3 30  float
0.0000000e+00 2.7820168e-04 0.0000000e+00 
0.0000000e+00 2.4597053e-04 0.0000000e+00 
0.0000000e+00 1.0286754e-04 0.0000000e+00 
0.0000000e+00 -1.1902582e-04 0.0000000e+00 
0.0000000e+00 -3.4121855e-04 0.0000000e+00 
0.0000000e+00 -5.7442451e-04 0.0000000e+00 
0.0000000e+00 -6.3655502e-04 0.0000000e+00 
0.0000000e+00 -7.0782471e-04 0.0000000e+00 
0.0000000e+00 -6.1676925e-04 0.0000000e+00 
0.0000000e+00 -3.1344427e-04 0.0000000e+00 
0.0000000e+00 1.8136398e-04 0.0000000e+00 
0.0000000e+00 -1.2503978e-04 0.0000000e+00 
0.0000000e+00 -1.3754849e-04 0.0000000e+00 
0.0000000e+00 -1.3302958e-04 0.0000000e+00 
0.0000000e+00 -6.9437992e-05 0.0000000e+00 
0.0000000e+00 5.0219001e-05 0.0000000e+00 
0.0000000e+00 2.6197007e-04 0.0000000e+00 
0.0000000e+00 2.1458958e-05 0.0000000e+00 
0.0000000e+00 -3.3571542e-04 0.0000000e+00 
0.0000000e+00 -7.3482859e-04 0.0000000e+00 
0.0000000e+00 -1.0197874e-03 0.0000000e+00 
0.0000000e+00 -1.1503067e-03 0.0000000e+00 
0.0000000e+00 -8.0451427e-04 0.0000000e+00 
0.0000000e+00 -3.1040719e-04 0.0000000e+00 
0.0000000e+00 4.2050012e-04 0.0000000e+00 
0.0000000e+00 7.7982206e-04 0.0000000e+00 
0.0000000e+00 9.3960232e-04 0.0000000e+00 
0.0000000e+00 6.4092438e-04 0.0000000e+00 
0.0000000e+00 -2.3017314e-04 0.0000000e+00 
0.0000000e+00 -1.0125751e-03 0.0000000e+00 
REACTION 3 30  float
-3.1727542e+03 -0.0000000e+00 2.6526139e+04 
1.3642421e-11 -0.0000000e+00 -0.0000000e+00 
-5.0931703e-11 -0.0000000e+00 -3.6379788e-12 
5.8207661e-11 -0.0000000e+00 7.2759576e-12 
-3.2514436e-11 -0.0000000e+00 9.0949470e-12 
1.4551915e-10 -0.0000000e+00 -7.2759576e-12 
-2.2555469e-10 -0.0000000e+00 6.1845640e-11 
-7.2759576e-11 -0.0000000e+00 -3.8198777e-11 
3.9290171e-10 -0.0000000e+00 1.0913936e-11 
-5.8207661e-11 -0.0000000e+00 -0.0000000e+00 
4.3655746e-11 -0.0000000e+00 -0.0000000e+00 
-1.2313262e+03 -0.0000000e+00 -1.0479859e+04 
-2.5465852e-11 -0.0000000e+00 -1.8189894e-12 
-3.6379788e-11 -0.0000000e+00 -0.0000000e+00 
2.1827873e-11 -0.0000000e+00 -1.8189894e-12 
9.0039975e-11 -0.0000000e+00 -0.0000000e+00 
1.8189894e-11 -0.0000000e+00 4.0017767e-11 
-1.8189894e-11 -0.0000000e+00 -0.0000000e+00 
1.8189894e-11 -0.0000000e+00 -5.4569682e-12 
8.0035534e-11 -0.0000000e+00 -5.9571903e-11 
-9.0949470e-11 -0.0000000e+00 2.7284841e-12 
3.5288394e-10 -0.0000000e+00 -3.4560799e-11 
-0.0000000e+00 -0.0000000e+00 -4.0017767e-11 
-1.2732926e-10 -0.0000000e+00 -1.4551915e-11 
-0.0000000e+00 -0.0000000e+00 1.0186341e-10 
-1.4370016e-10 -0.0000000e+00 -1.4551915e-11 
-2.8012437e-10 -0.0000000e+00 5.4569682e-12 
-7.4578566e-11 -0.0000000e+00 -9.0949470e-12 
-2.4101610e-10 -0.0000000e+00 7.8216544e-11 
-0.0000000e+00 -0.0000000e+00 7.2759576e-12 
REACTION_MOMENT 3 30  float
-0.0000000e+00 -1.4551915e-11 -0.0000000e+00 
-0.0000000e+00 2.3646862e-11 -0.0000000e+00 
-0.0000000e+00 3.6379788e-12 -0.0000000e+00 
-0.0000000e+00 -3.6379788e-12 -0.0000000e+00 
-0.0000000e+00 -5.0931703e-11 -0.0000000e+00 
-0.0000000e+00 -3.2741809e-11 -0.0000000e+00 
-0.0000000e+00 -3.9290171e-10 -0.0000000e+00 
-0.0000000e+00 5.8207661e-11 -0.0000000e+00 
-0.0000000e+00 -1.4551915e-10 -0.0000000e+00 
-0.0000000e+00 4.5474735e-10 -0.0000000e+00 
-0.0000000e+00 1.2732926e-10 -0.0000000e+00 
-0.0000000e+00 -1.8189894e-12 -0.0000000e+00 
-0.0000000e+00 -1.0913936e-11 -0.0000000e+00 
-0.0000000e+00 -0.0000000e+00 -0.0000000e+00 
-0.0000000e+00 1.5461410e-11 -0.0000000e+00 
-0.0000000e+00 1.8189894e-12 -0.0000000e+00 
-0.0000000e+00 -3.2741809e-11 -0.0000000e+00 
-0.0000000e+00 -0.0000000e+00 -0.0000000e+00 
-0.0000000e+00 -0.0000000e+00 -0.0000000e+00 
-0.0000000e+00 1.4551915e-11 -0.0000000e+00 
-0.0000000e+00 -5.8207661e-11 -0.0000000e+00 
-0.0000000e+00 4.3655746e-11 -0.0000000e+00 
-0.0000000e+00 1.4551915e-11 -0.0000000e+00 
-0.0000000e+00 2.7284841e-11 -0.0000000e+00 
-0.0000000e+00 -0.0000000e+00 -0.0000000e+00 
-0.0000000e+00 -2.5465852e-11 -0.0000000e+00 
-0.0000000e+00 3.6379788e-12 -0.0000000e+00 
-0.0000000e+00 -1.0913936e-11 -0.0000000e+00 
-0.0000000e+00 1.0913936e-11 -0.0000000e+00 
-0.0000000e+00 -7.2759576e-12 -0.0000000e+00 
VOLUME_ACCELERATION 3 30  float
0.0000000e+00 0.0000000e+00 0.0000000e+00 
0.0000000e+00 0.0000000e+00 0.0000000e+00 
0.0000000e+00 0.0000000e+00 0.0000000e+00 
0.0000000e+00 0.0000000e+00 0.0000000e+00 
0.0000000e+00 0.0000000e+00 0.0000000e+00 
0.0000000e+00 0.0000000e+00 0.0000000e+00 
0.0000000e+00 0.0000000e+00 0.0000000e+00 
0.0000000e+00 0.0000000e+00 0.0000000e+00 
0.0000000e+00 0.0000000e+00 0.0000000e+00 
0.0000000e+00 0.0000000e+00 0.0000000e+00 
0.0000000e+00 0.0000000e+00 0.0000000e+00 
0.0000000e+00 0.0000000e+00 0.0000000e+00 
0.0000000e+00 0.0000000e+00 0.0000000e+00 
0.0000000e+00 0.0000000e+00 0.0000000e+00 
0.0000000e+00 0.0000000e+00 0.0000000e+00 
0.0000000e+00 0.0000000e+00 0.0000000e+00 
0.0000000e+00 0.0000000e+00 0.0000000e+00 
0.0000000e+00 0.0000000e+00 0.0000000e+00 
0.0000000e+00 0.0000000e+00 0.0000000e+00 
0.0000000e+00 0.0000000e+00 0.0000000e+00 
0.0000000e+00 0.0000000e+00 0.0000000e+00 
0.0000000e+00 0.0000000e+00 0.0000000e+00 
0.0000000e+00 0.0000000e+00 0.0000000e+00 
0.0000000e+00 0.0000000e+00 0.0000000e+00 
0.0000000e+00 0.0000000e+00 0.0000000e+00 
0.0000000e+00 0.0000000e+00 0.0000000e+00 
0.0000000e+00 0.0000000e+00 0.0000000e+00 
0.0000000e+00 0.0000000e+00 0.0000000e+00 
0.0000000e+00 0.0000000e+00 0.0000000e+00 
0.0000000e+00 0.0000000e+00 0.0000000e+00 
POINT_LOAD 3 30  float
0.0000000e+00 0.0000000e+00 0.0000000e+00 
-4.5684380e+03 0.0000000e+00 -6.9102163e+03 
7.7264570e+03 0.0000000e+00 -1.8629045e+03 
0.0000000e+00 0.0000000e+00 0.0000000e+00 
-1.0546412e+03 0.0000000e+00 -8.9224932e+03 
0.0000000e+00 0.0000000e+00 0.0000000e+00 
9.9159648e+03 0.0000000e+00 9.5574506e+02 
6.9625488e+03 0.0000000e+00 -9.6451691e+02 
-2.0461475e+03 0.0000000e+00 -3.2141560e+03 
0.0000000e+00 0.0000000e+00 0.0000000e+00 
0.0000000e+00 0.0000000e+00 0.0000000e+00 
0.0000000e+00 0.0000000e+00 0.0000000e+00 
4.1388091e+03 0.0000000e+00 7.5192866e+03 
0.0000000e+00 0.0000000e+00 0.0000000e+00 
-2.9602673e+02 0.0000000e+00 -7.0253271e+03 
3.8425972e+03 0.0000000e+00 -1.4965759e+03 
-4.5319453e+03 0.0000000e+00 -4.2003447e+03 
0.0000000e+00 0.0000000e+00 0.0000000e+00 
7.3556963e+03 0.0000000e+00 6.0616562e+03 
8.0097202e+03 0.0000000e+00 -3.0809404e+03 
-4.0441589e+03 0.0000000e+00 7.2381079e+03 
-1.7640750e+03 0.0000000e+00 6.0430963e+02 
0.0000000e+00 0.0000000e+00 0.0000000e+00 
-9.6544574e+02 0.0000000e+00 7.6764961e+03 
-3.3377715e+03 0.0000000e+00 1.9055770e+03 
-7.6993350e+03 0.0000000e+00 6.0574429e+03 
-7.3766826e+03 0.0000000e+00 -5.9748618e+03 
-5.1701202e+02 0.0000000e+00 -1.6559626e+03 
-5.3460332e+03 0.0000000e+00 -8.7566016e+03 
0.0000000e+00 0.0000000e+00 0.0000000e+00 
POINT_MOMENT 3 30  float
0.0000000e+00 0.0000000e+00 0.0000000e+00 
0.0000000e+00 0.0000000e+00 0.0000000e+00 
0.0000000e+00 0.0000000e+00 0.0000000e+00 
0.0000000e+00 0.0000000e+00 0.0000000e+00 
0.0000000e+00 0.0000000e+00 0.0000000e+00 
0.0000000e+00 0.0000000e+00 0.0000000e+00 
0.0000000e+00 0.0000000e+00 0.0000000e+00 
0.0000000e+00 0.0000000e+00 0.0000000e+00 
0.0000000e+00 0.0000000e+00 0.0000000e+00 
0.0000000e+00 0.0000000e+00 0.0000000e+00 
0.0000000e+00 0.0000000e+00 0.0000000e+00 
0.0000000e+00 0.0000000e+00 0.0000000e+00 
0.0000000e+00 0.0000000e+00 0.0000000e+00 
0.0000000e+00 0.0000000e+00 0.0000000e+00 
0.0000000e+00 0.0000000e+00 0.0000000e+00 
0.0000000e+00 0.0000000e+00 0.0000000e+00 
0.0000000e+00 0.0000000e+00 0.0000000e+00 
0.0000000e+00 0.0000000e+00 0.0000000e+00 
0.0000000e+00 0.0000000e+00 0.0000000e+00 
0.0000000e+00 0.0000000e+00 0.0000000e+00 
0.0000000e+00 0.0000000e+00 0.0000000e+00 
0.0000000e+00 0.0000000e+00 0.0000000e+00 
0.0000000e+00 0.0000000e+00 0.0000000e+00 
0.0000000e+00 0.0000000e+00 0.0000000e+00 
0.0000000e+00 0.0000000e+00 0.0000000e+00 
0.0000000e+00 0.0000000e+00 0.0000000e+00 
0.0000000e+00 0.0000000e+00 0.0000000e+00 
0.0000000e+00 0.0000000e+00 0.0000000e+00 
0.0000000e+00 0.0000000e+00 0.0000000e+00 
0.0000000e+00 0.0000000e+00 0.0000000e+00 
CELL_DATA 30
FIELD FieldData 9
YOUNG_MODULUS 1 30  float
2.1000000e+11
2.1000000e+11
2.1000000e+11
2.1000000e+11
2.1000000e+11
2.1000000e+11
2.1000000e+11
2.1000000e+11
2.1000000e+11
2.1000000e+11
2.1000000e+11
2.1000000e+11
2.1000000e+11
2.1000000e+11
2.1000000e+11
2.1000000e+11
2.1000000e+11
2.1000000e+11
2.1000000e+11
2.1000000e+11
2.1000000e+11
2.1000000e+11
2.1000000e+11
2.1000000e+11
2.1000000e+11
2.1000000e+11
2.1000000e+11
2.1000000e+11
2.1000000e+11
2.1000000e+11
DENSITY 1 30  float
7.8500000e+03
7.8500000e+03
7.8500000e+03
7.8500000e+03
7.8500000e+03
7.8500000e+03
7.8500000e+03
7.8500000e+03
7.8500000e+03
7.8500000e+03
7.8500000e+03
7.8500000e+03
7.8500000e+03
7.8500000e+03
7.8500000e+03
7.8500000e+03
7.8500000e+03
7.8500000e+03
7.8500000e+03
7.8500000e+03
7.8500000e+03
7.8500000e+03
7.8500000e+03
7.8500000e+03
7.8500000e+03
7.8500000e+03
7.8500000e+03
7.8500000e+03
7.8500000e+03
7.8500000e+03
CROSS_AREA 1 30  float
9.9999998e-03
9.9999998e-03
9.9999998e-03
9.9999998e-03
9.9999998e-03
9.9999998e-03
9.9999998e-03
9.9999998e-03
9.9999998e-03
9.9999998e-03
9.9999998e-03
9.9999998e-03
9.9999998e-03
9.9999998e-03
9.9999998e-03
9.9999998e-03
9.9999998e-03
9.9999998e-03
9.9999998e-03
9.9999998e-03
9.9999998e-03
9.9999998e-03
9.9999998e-03
9.9999998e-03
9.9999998e-03
9.9999998e-03
9.9999998e-03
9.9999998e-03
9.9999998e-03
9.9999998e-03
I22 1 30  float
1.5000001e-04
1.5000001e-04
1.5000001e-04
1.5000001e-04
1.5000001e-04
1.5000001e-04
1.5000001e-04
1.5000001e-04
1.5000001e-04
1.5000001e-04
1.5000001e-04
1.5000001e-04
1.5000001e-04
1.5000001e-04
1.5000001e-04
1.5000001e-04
1.5000001e-04
1.5000001e-04
1.5000001e-04
1.5000001e-04
1.5000001e-04
1.5000001e-04
1.5000001e-04
1.5000001e-04
1.5000001e-04
1.5000001e-04
1.5000001e-04
1.5000001e-04
1.5000001e-04
1.5000001e-04
I33 1 30  float
1.5000001e-04
1.5000001e-04
1.5000001e-04
1.5000001e-04
1.5000001e-04
1.5000001e-04
1.5000001e-04
1.5000001e-04
1.5000001e-04
1.5000001e-04
1.5000001e-04
1.5000001e-04
1.5000001e-04
1.5000001e-04
1.5000001e-04
1.5000001e-04
1.5000001e-04
1.5000001e-04
1.5000001e-04
1.5000001e-04
1.5000001e-04
1.5000001e-04
1.5000001e-04
1.5000001e-04
1.5000001e-04
1.5000001e-04
1.5000001e-04
1.5000001e-04
1.5000001e-04
1.5000001e-04
TORSIONAL_INERTIA 1 30  float
3.0000001e-04
3.0000001e-04
3.0000001e-04
3.0000001e-04
3.0000001e-04
3.0000001e-04
3.0000001e-04
3.0000001e-04
3.0000001e-04
3.0000001e-04
3.0000001e-04
3.0000001e-04
3.0000001e-04
3.0000001e-04
3.0000001e-04
3.0000001e-04
3.0000001e-04
3.0000001e-04
3.0000001e-04
3.0000001e-04
3.0000001e-04
3.0000001e-04
3.0000001e-04
3.0000001e-04
3.0000001e-04
3.0000001e-04
3.0000001e-04
3.0000001e-04
3.0000001e-04
3.0000001e-04
POISSON_RATIO 1 30  float
3.0000001e-01
3.0000001e-01
3.0000001e-01
3.0000001e-01
3.0000001e-01
3.0000001e-01
3.0000001e-01
3.0000001e-01
3.0000001e-01
3.0000001e-01
3.0000001e-01
3.0000001e-01
3.0000001e-01
3.0000001e-01
3.0000001e-01
3.0000001e-01
3.0000001e-01
3.0000001e-01
3.0000001e-01
3.0000001e-01
3.0000001e-01
3.0000001e-01
3.0000001e-01
3.0000001e-01
3.0000001e-01
3.0000001e-01
3.0000001e-01
3.0000001e-01
3.0000001e-01
3.0000001e-01
MOMENT 3 30  float
0.0000000e+00 -1.2691017e+03 0.0000000e+00 
0.0000000e+00 -5.6346802e+03 0.0000000e+00 
0.0000000e+00 -8.7370508e+03 0.0000000e+00 
0.0000000e+00 -8.7488389e+03 0.0000000e+00 
0.0000000e+00 -9.1824834e+03 0.0000000e+00 
0.0000000e+00 -2.4463899e+03 0.0000000e+00 
0.0000000e+00 -2.8062432e+03 0.0000000e+00 
0.0000000e+00 3.5853088e+03 0.0000000e+00 
0.0000000e+00 1.1943421e+04 0.0000000e+00 
0.0000000e+00 1.9483074e+04 0.0000000e+00 
0.0000000e+00 -4.9253049e+02 0.0000000e+00 
0.0000000e+00 1.7793217e+02 0.0000000e+00 
0.0000000e+00 2.5039185e+03 0.0000000e+00 
0.0000000e+00 4.7114941e+03 0.0000000e+00 
0.0000000e+00 8.3376982e+03 0.0000000e+00 
0.0000000e+00 -9.4701250e+03 0.0000000e+00 
0.0000000e+00 -1.4063741e+04 0.0000000e+00 
0.0000000e+00 -1.5715080e+04 0.0000000e+00 
0.0000000e+00 -1.1220252e+04 0.0000000e+00 
0.0000000e+00 -5.1391997e+03 0.0000000e+00 
0.0000000e+00 -3.6239138e+03 0.0000000e+00 
0.0000000e+00 7.7821865e+03 0.0000000e+00 
0.0000000e+00 1.1511790e+04 0.0000000e+00 
0.0000000e+00 5.6593208e+03 0.0000000e+00 
0.0000000e+00 -8.1561689e+03 0.0000000e+00 
0.0000000e+00 1.1942254e+04 0.0000000e+00 
0.0000000e+00 -4.7041782e+03 0.0000000e+00 
0.0000000e+00 -1.3719786e+04 0.0000000e+00 
0.0000000e+00 -1.2322830e+04 0.0000000e+00 
0.0000000e+00 -2.1692734e+03 0.0000000e+00 
FORCE 3 30  float
-2.6526139e+04 0.0000000e+00 -3.1727542e+03 
-1.9615924e+04 0.0000000e+00 -7.7411919e+03 
-1.7753018e+04 0.0000000e+00 -1.4735041e+01 
-1.7753018e+04 0.0000000e+00 -1.4735041e+01 
-8.8305244e+03 0.0000000e+00 -1.0693762e+03 
-1.4533575e+04 0.0000000e+00 -5.4077988e+03 
-1.5489319e+04 0.0000000e+00 4.5081655e+03 
-1.4524803e+04 0.0000000e+00 1.1470714e+04 
-1.1310646e+04 0.0000000e+00 9.4245664e+03 
-1.1310646e+04 0.0000000e+00 9.4245664e+03 
1.0479859e+04 0.0000000e+00 -1.2313262e+03 
2.9605730e+03 0.0000000e+00 2.9074829e+03 
2.9605730e+03 0.0000000e+00 2.9074829e+03 
9.9859004e+03 0.0000000e+00 2.6114561e+03 
1.1482476e+04 0.0000000e+00 6.4540532e+03 
5.7463545e+03 0.0000000e+00 -5.7420210e+03 
5.7463545e+03 0.0000000e+00 -5.7420210e+03 
-3.1530157e+02 0.0000000e+00 1.6136749e+03 
2.7656389e+03 0.0000000e+00 9.6233955e+03 
-4.4724688e+03 0.0000000e+00 5.5792363e+03 
-4.3384224e+03 0.0000000e+00 5.7030498e+03 
-4.3384224e+03 0.0000000e+00 5.7030498e+03 
-3.3729768e+03 0.0000000e+00 -1.9734463e+03 
-3.5205402e+01 0.0000000e+00 -3.8790232e+03 
7.6641294e+03 0.0000000e+00 -9.9364668e+03 
-9.4245664e+03 0.0000000e+00 -1.1310646e+04 
-2.0478840e+03 0.0000000e+00 -5.3357852e+03 
-1.5308721e+03 0.0000000e+00 -3.6798228e+03 
3.8151614e+03 0.0000000e+00 5.0767783e+03 
3.8151614e+03 0.0000000e+00 5.0767783e+03 
