# vtk DataFile Version 4.0
vtk output
ASCII
DATASET UNSTRUCTURED_GRID
POINTS 60 float
0.0000000e+00 0.0000000e+00 0.0000000e+00 
0.0000000e+00 2.0000000e-01 0.0000000e+00 
0.0000000e+00 4.0000001e-01 0.0000000e+00 
0.0000000e+00 6.0000002e-01 0.0000000e+00 
0.0000000e+00 8.0000001e-01 0.0000000e+00 
0.0000000e+00 1.0000000e+00 0.0000000e+00 
0.0000000e+00 1.2000000e+00 0.0000000e+00 
0.0000000e+00 1.4000000e+00 0.0000000e+00 
0.0000000e+00 1.6000000e+00 0.0000000e+00 
0.0000000e+00 1.8000000e+00 0.0000000e+00 
0.0000000e+00 2.0000000e+00 0.0000000e+00 
0.0000000e+00 2.2000000e+00 0.0000000e+00 
0.0000000e+00 2.4000001e+00 0.0000000e+00 
0.0000000e+00 2.5999999e+00 0.0000000e+00 
0.0000000e+00 2.8000000e+00 0.0000000e+00 
0.0000000e+00 3.0000000e+00 0.0000000e+00 
0.0000000e+00 3.2000000e+00 0.0000000e+00 
0.0000000e+00 3.4000001e+00 0.0000000e+00 
0.0000000e+00 3.5999999e+00 0.0000000e+00 
0.0000000e+00 3.8000000e+00 0.0000000e+00 
0.0000000e+00 4.0000000e+00 0.0000000e+00 
2.0000000e-01 4.0000000e+00 0.0000000e+00 
4.0000001e-01 4.0000000e+00 0.0000000e+00 
6.0000002e-01 4.0000000e+00 0.0000000e+00 
8.0000001e-01 4.0000000e+00 0.0000000e+00 
1.0000000e+00 4.0000000e+00 0.0000000e+00 
1.2000000e+00 4.0000000e+00 0.0000000e+00 
1.4000000e+00 4.0000000e+00 0.0000000e+00 
1.6000000e+00 4.0000000e+00 0.0000000e+00 
1.8000000e+00 4.0000000e+00 0.0000000e+00 
2.0000000e+00 4.0000000e+00 0.0000000e+00 
2.0000000e+00 3.8000000e+00 0.0000000e+00 
2.0000000e+00 3.5999999e+00 0.0000000e+00 
2.0000000e+00 3.4000001e+00 0.0000000e+00 
2.0000000e+00 3.2000000e+00 0.0000000e+00 
2.0000000e+00 3.0000000e+00 0.0000000e+00 
2.0000000e+00 2.8000000e+00 0.0000000e+00 
2.0000000e+00 2.5999999e+00 0.0000000e+00 
2.0000000e+00 2.4000001e+00 0.0000000e+00 
2.0000000e+00 2.2000000e+00 0.0000000e+00 
2.0000000e+00 2.0000000e+00 0.0000000e+00 
2.0000000e+00 1.8000000e+00 0.0000000e+00 
2.0000000e+00 1.6000000e+00 0.0000000e+00 
2.0000000e+00 1.4000000e+00 0.0000000e+00 
2.0000000e+00 1.2000000e+00 0.0000000e+00 
2.0000000e+00 1.0000000e+00 0.0000000e+00 
2.0000000e+00 8.0000001e-01 0.0000000e+00 
2.0000000e+00 6.0000002e-01 0.0000000e+00 
2.0000000e+00 4.0000001e-01 0.0000000e+00 
2.0000000e+00 2.0000000e-01 0.0000000e+00 
2.0000000e+00 0.0000000e+00 0.0000000e+00 
2.0000000e-01 2.0000000e+00 0.0000000e+00 
4.0000001e-01 2.0000000e+00 0.0000000e+00 
6.0000002e-01 2.0000000e+00 0.0000000e+00 
8.0000001e-01 2.0000000e+00 0.0000000e+00 
1.0000000e+00 2.0000000e+00 0.0000000e+00 
1.2000000e+00 2.0000000e+00 0.0000000e+00 
1.4000000e+00 2.0000000e+00 0.0000000e+00 
1.6000000e+00 2.0000000e+00 0.0000000e+00 
1.8000000e+00 2.0000000e+00 0.0000000e+00 

CELLS 60 180
2 0 1
2 1 2
2 2 3
2 3 4
2 4 5
2 5 6
2 6 7
2 7 8
2 8 9
2 9 10
2 10 11
2 11 12
2 12 13
2 13 14
2 14 15
2 15 16
2 16 17
2 17 18
2 18 19
2 19 20
2 20 21
2 21 22
2 22 23
2 23 24
2 24 25
2 25 26
2 26 27
2 27 28
2 28 29
2 29 30
2 30 31
2 31 32
2 32 33
2 33 34
2 34 35
2 35 36
2 36 37
2 37 38
2 38 39
2 39 40
2 40 41
2 41 42
2 42 43
2 43 44
2 44 45
2 45 46
2 46 47
2 47 48
2 48 49
2 49 50
2 10 51
2 51 52
2 52 53
2 53 54
2 54 55
2 55 56
2 56 57
2 57 58
2 58 59
2 59 40

CELL_TYPES 60
3
3
3
3
3
3
3
3
3
3
3
3
3
3
3
3
3
3
3
3
3
3
3
3
3
3
3
3
3
3
3
3
3
3
3
3
3
3
3
3
3
3
3
3
3
3
3
3
3
3
3
3
3
3
3
3
3
3
3
3
POINT_DATA 60
FIELD FieldData 6
DISPLACEMENT 3 60  float
0.0000000e+00 0.0000000e+00 0.0000000e+00 
-8.0752397e-06 -6.5710901e-06 0.0000000e+00 
-2.8722228e-05 -1.3142180e-05 0.0000000e+00 
-5.6572866e-05 -1.9713270e-05 0.0000000e+00 
-8.6259060e-05 -2.6284361e-05 0.0000000e+00 
-1.1241270e-04 -3.2855452e-05 0.0000000e+00 
-1.2966570e-04 -3.9426541e-05 0.0000000e+00 
-1.3264996e-04 -4.5997633e-05 0.0000000e+00 
-1.1599739e-04 -5.2568721e-05 0.0000000e+00 
-7.4339870e-05 -5.9139813e-05 0.0000000e+00 
-2.3093189e-06 -6.5710905e-05 0.0000000e+00 
5.3895616e-05 -6.8996444e-05 0.0000000e+00 
5.5145869e-05 -7.2281990e-05 0.0000000e+00 
1.7413933e-05 -7.5567536e-05 0.0000000e+00 
-4.3327698e-05 -7.8853082e-05 0.0000000e+00 
-1.1110654e-04 -8.2138627e-05 0.0000000e+00 
-1.6995009e-04 -8.5424173e-05 0.0000000e+00 
-2.0388588e-04 -8.8709719e-05 0.0000000e+00 
-1.9694139e-04 -9.1995265e-05 0.0000000e+00 
-1.3314416e-04 -9.5280804e-05 0.0000000e+00 
3.4783297e-06 -9.8566350e-05 0.0000000e+00 
2.7826638e-06 -3.1000908e-04 0.0000000e+00 
2.0869979e-06 -5.4487155e-04 0.0000000e+00 
1.3913319e-06 -7.5034855e-04 0.0000000e+00 
6.9566596e-07 -8.8872196e-04 0.0000000e+00 
2.6821724e-16 -9.3736098e-04 0.0000000e+00 
-6.9566596e-07 -8.8872196e-04 0.0000000e+00 
-1.3913319e-06 -7.5034855e-04 0.0000000e+00 
-2.0869979e-06 -5.4487155e-04 0.0000000e+00 
-2.7826638e-06 -3.1000908e-04 0.0000000e+00 
-3.4783297e-06 -9.8566350e-05 0.0000000e+00 
1.3314416e-04 -9.5280804e-05 0.0000000e+00 
1.9694139e-04 -9.1995265e-05 0.0000000e+00 
2.0388588e-04 -8.8709719e-05 0.0000000e+00 
1.6995009e-04 -8.5424173e-05 0.0000000e+00 
1.1110654e-04 -8.2138627e-05 0.0000000e+00 
4.3327698e-05 -7.8853082e-05 0.0000000e+00 
-1.7413933e-05 -7.5567536e-05 0.0000000e+00 
-5.5145869e-05 -7.2281990e-05 0.0000000e+00 
-5.3895616e-05 -6.8996444e-05 0.0000000e+00 
2.3093189e-06 -6.5710905e-05 0.0000000e+00 
7.4339870e-05 -5.9139813e-05 0.0000000e+00 
1.1599739e-04 -5.2568721e-05 0.0000000e+00 
1.3264996e-04 -4.5997633e-05 0.0000000e+00 
1.2966570e-04 -3.9426541e-05 0.0000000e+00 
1.1241270e-04 -3.2855452e-05 0.0000000e+00 
8.6259060e-05 -2.6284361e-05 0.0000000e+00 
5.6572866e-05 -1.9713270e-05 0.0000000e+00 
2.8722228e-05 -1.3142180e-05 0.0000000e+00 
8.0752397e-06 -6.5710901e-06 0.0000000e+00 
0.0000000e+00 0.0000000e+00 0.0000000e+00 
-1.8474551e-06 -1.9673607e-04 0.0000000e+00 
-1.3855913e-06 -3.6905159e-04 0.0000000e+00 
-9.2372755e-07 -5.2985211e-04 0.0000000e+00 
-4.6186378e-07 -6.4141973e-04 0.0000000e+00 
1.1264106e-16 -6.8112341e-04 0.0000000e+00 
4.6186378e-07 -6.4141973e-04 0.0000000e+00 
9.2372755e-07 -5.2985211e-04 0.0000000e+00 
1.3855914e-06 -3.6905159e-04 0.0000000e+00 
1.8474551e-06 -1.9673607e-04 0.0000000e+00 
REACTION 3 60  float
7.1126080e+02 2.0000189e+04 0.0000000e+00 
-5.9994423e-01 -2.7030871e+00 0.0000000e+00 
-3.4357339e-01 -2.6329353e+00 0.0000000e+00 
-8.7513633e-02 -7.9715651e-01 0.0000000e+00 
1.6843355e-01 1.4885197e+00 0.0000000e+00 
4.2458528e-01 2.9083626e+00 0.0000000e+00 
6.8103075e-01 2.1466422e+00 0.0000000e+00 
9.3728775e-01 -2.1123717e+00 0.0000000e+00 
1.1919557e+00 -1.1184409e+01 0.0000000e+00 
1.4423722e+00 -2.6385197e+01 0.0000000e+00 
-1.2680328e+02 1.5072167e+01 0.0000000e+00 
-1.3070443e+00 2.4608152e+01 0.0000000e+00 
-9.2919815e-01 -1.0408967e+01 0.0000000e+00 
-5.4513103e-01 -1.6998255e+01 0.0000000e+00 
-1.6586424e-01 -6.8076787e+00 0.0000000e+00 
2.1067877e-01 8.5147915e+00 0.0000000e+00 
5.9057957e-01 1.7321192e+01 0.0000000e+00 
9.7483408e-01 7.9635530e+00 0.0000000e+00 
1.3502606e+00 -3.1206093e+01 0.0000000e+00 
1.6804078e+00 -1.1183566e+02 0.0000000e+00 
-3.3392072e+02 1.4251834e+02 0.0000000e+00 
-8.0828346e+01 -4.7989815e-02 0.0000000e+00 
9.5376060e+01 3.1086933e-02 0.0000000e+00 
1.7250917e+02 1.7747962e-01 0.0000000e+00 
1.2586033e+02 3.7444735e-01 0.0000000e+00 
-0.0000000e+00 4.6784109e-01 0.0000000e+00 
-1.2586033e+02 3.7444735e-01 0.0000000e+00 
-1.7250917e+02 1.7747962e-01 0.0000000e+00 
-9.5376060e+01 3.1086933e-02 0.0000000e+00 
8.0828346e+01 -4.7989815e-02 0.0000000e+00 
3.3392072e+02 1.4251834e+02 0.0000000e+00 
-1.6804069e+00 -1.1183566e+02 0.0000000e+00 
-1.3502617e+00 -3.1206093e+01 0.0000000e+00 
-9.7483373e-01 7.9635530e+00 0.0000000e+00 
-5.9057873e-01 1.7321192e+01 0.0000000e+00 
-2.1067962e-01 8.5147915e+00 0.0000000e+00 
1.6586438e-01 -6.8076787e+00 0.0000000e+00 
5.4513133e-01 -1.6998255e+01 0.0000000e+00 
9.2919803e-01 -1.0408967e+01 0.0000000e+00 
1.3070439e+00 2.4608152e+01 0.0000000e+00 
1.2680328e+02 1.5072167e+01 0.0000000e+00 
-1.4423717e+00 -2.6385197e+01 0.0000000e+00 
-1.1919559e+00 -1.1184409e+01 0.0000000e+00 
-9.3728805e-01 -2.1123717e+00 0.0000000e+00 
-6.8103075e-01 2.1466424e+00 0.0000000e+00 
-4.2458478e-01 2.9083626e+00 0.0000000e+00 
-1.6843447e-01 1.4885197e+00 0.0000000e+00 
8.7514699e-02 -7.9715651e-01 0.0000000e+00 
3.4357268e-01 -2.6329353e+00 0.0000000e+00 
5.9994429e-01 -2.7030871e+00 0.0000000e+00 
-7.1126080e+02 2.0000189e+04 0.0000000e+00 
-9.5168457e+01 2.2067186e-01 0.0000000e+00 
2.7175787e+01 -4.7135055e-02 0.0000000e+00 
9.9686790e+01 -2.1821874e-01 0.0000000e+00 
8.1242317e+01 -2.6050752e-01 0.0000000e+00 
-1.3869794e-11 -2.5744188e-01 0.0000000e+00 
-8.1242317e+01 -2.6050752e-01 0.0000000e+00 
-9.9686790e+01 -2.1821880e-01 0.0000000e+00 
-2.7175787e+01 -4.7032550e-02 0.0000000e+00 
9.5168457e+01 2.2056936e-01 0.0000000e+00 
ROTATION 3 60  float
0.0000000e+00 0.0000000e+00 0.0000000e+00 
0.0000000e+00 0.0000000e+00 7.6278986e-05 
0.0000000e+00 0.0000000e+00 1.2571749e-04 
0.0000000e+00 0.0000000e+00 1.4831549e-04 
0.0000000e+00 0.0000000e+00 1.4407301e-04 
0.0000000e+00 0.0000000e+00 1.1299003e-04 
0.0000000e+00 0.0000000e+00 5.5066572e-05 
0.0000000e+00 0.0000000e+00 -2.9697381e-05 
0.0000000e+00 0.0000000e+00 -1.4130182e-04 
0.0000000e+00 0.0000000e+00 -2.7974675e-04 
0.0000000e+00 0.0000000e+00 -4.4503217e-04 
0.0000000e+00 0.0000000e+00 -1.3032756e-04 
0.0000000e+00 0.0000000e+00 1.0451461e-04 
0.0000000e+00 0.0000000e+00 2.5949432e-04 
0.0000000e+00 0.0000000e+00 3.3461160e-04 
0.0000000e+00 0.0000000e+00 3.2986639e-04 
0.0000000e+00 0.0000000e+00 2.4525877e-04 
0.0000000e+00 0.0000000e+00 8.0788654e-05 
0.0000000e+00 0.0000000e+00 -1.6354390e-04 
0.0000000e+00 0.0000000e+00 -4.8773890e-04 
0.0000000e+00 0.0000000e+00 -8.9179637e-04 
0.0000000e+00 0.0000000e+00 -1.1660538e-03 
0.0000000e+00 0.0000000e+00 -1.1385668e-03 
0.0000000e+00 0.0000000e+00 -8.8477135e-04 
0.0000000e+00 0.0000000e+00 -4.8010374e-04 
0.0000000e+00 0.0000000e+00 2.9273065e-17 
0.0000000e+00 0.0000000e+00 4.8010374e-04 
0.0000000e+00 0.0000000e+00 8.8477135e-04 
0.0000000e+00 0.0000000e+00 1.1385668e-03 
0.0000000e+00 0.0000000e+00 1.1660538e-03 
0.0000000e+00 0.0000000e+00 8.9179637e-04 
0.0000000e+00 0.0000000e+00 4.8773890e-04 
0.0000000e+00 0.0000000e+00 1.6354390e-04 
0.0000000e+00 0.0000000e+00 -8.0788654e-05 
0.0000000e+00 0.0000000e+00 -2.4525877e-04 
0.0000000e+00 0.0000000e+00 -3.2986639e-04 
0.0000000e+00 0.0000000e+00 -3.3461160e-04 
0.0000000e+00 0.0000000e+00 -2.5949432e-04 
0.0000000e+00 0.0000000e+00 -1.0451461e-04 
0.0000000e+00 0.0000000e+00 1.3032756e-04 
0.0000000e+00 0.0000000e+00 4.4503217e-04 
0.0000000e+00 0.0000000e+00 2.7974675e-04 
0.0000000e+00 0.0000000e+00 1.4130182e-04 
0.0000000e+00 0.0000000e+00 2.9697381e-05 
0.0000000e+00 0.0000000e+00 -5.5066572e-05 
0.0000000e+00 0.0000000e+00 -1.1299003e-04 
0.0000000e+00 0.0000000e+00 -1.4407301e-04 
0.0000000e+00 0.0000000e+00 -1.4831549e-04 
0.0000000e+00 0.0000000e+00 -1.2571749e-04 
0.0000000e+00 0.0000000e+00 -7.6278986e-05 
0.0000000e+00 0.0000000e+00 0.0000000e+00 
0.0000000e+00 0.0000000e+00 -8.0864242e-04 
0.0000000e+00 0.0000000e+00 -8.7050820e-04 
0.0000000e+00 0.0000000e+00 -7.0606568e-04 
0.0000000e+00 0.0000000e+00 -3.9075091e-04 
0.0000000e+00 0.0000000e+00 4.3909597e-18 
0.0000000e+00 0.0000000e+00 3.9075091e-04 
0.0000000e+00 0.0000000e+00 7.0606568e-04 
0.0000000e+00 0.0000000e+00 8.7050820e-04 
0.0000000e+00 0.0000000e+00 8.0864242e-04 
REACTION_MOMENT 3 60  float
0.0000000e+00 0.0000000e+00 -4.7566168e+02 
0.0000000e+00 0.0000000e+00 -1.5726995e-01 
0.0000000e+00 0.0000000e+00 -2.6060167e-01 
0.0000000e+00 0.0000000e+00 -3.0782306e-01 
0.0000000e+00 0.0000000e+00 -2.9895848e-01 
0.0000000e+00 0.0000000e+00 -2.3400271e-01 
0.0000000e+00 0.0000000e+00 -1.1292674e-01 
0.0000000e+00 0.0000000e+00 6.4279430e-02 
0.0000000e+00 0.0000000e+00 2.9752713e-01 
0.0000000e+00 0.0000000e+00 5.8651245e-01 
0.0000000e+00 0.0000000e+00 5.2219981e-01 
0.0000000e+00 0.0000000e+00 1.3932981e-01 
0.0000000e+00 0.0000000e+00 -1.0592606e-01 
0.0000000e+00 0.0000000e+00 -2.6761702e-01 
0.0000000e+00 0.0000000e+00 -3.4577060e-01 
0.0000000e+00 0.0000000e+00 -3.4083939e-01 
0.0000000e+00 0.0000000e+00 -2.5278631e-01 
0.0000000e+00 0.0000000e+00 -8.1142388e-02 
0.0000000e+00 0.0000000e+00 1.7396292e-01 
0.0000000e+00 0.0000000e+00 5.0979930e-01 
0.0000000e+00 0.0000000e+00 4.8543942e-01 
0.0000000e+00 0.0000000e+00 2.2432403e-01 
0.0000000e+00 0.0000000e+00 2.2034141e-01 
0.0000000e+00 0.0000000e+00 1.7948382e-01 
0.0000000e+00 0.0000000e+00 1.0231064e-01 
0.0000000e+00 0.0000000e+00 -2.7284841e-12 
0.0000000e+00 0.0000000e+00 -1.0231064e-01 
0.0000000e+00 0.0000000e+00 -1.7948382e-01 
0.0000000e+00 0.0000000e+00 -2.2034141e-01 
0.0000000e+00 0.0000000e+00 -2.2432403e-01 
0.0000000e+00 0.0000000e+00 -4.8543945e-01 
0.0000000e+00 0.0000000e+00 -5.0979930e-01 
0.0000000e+00 0.0000000e+00 -1.7396292e-01 
0.0000000e+00 0.0000000e+00 8.1142314e-02 
0.0000000e+00 0.0000000e+00 2.5278634e-01 
0.0000000e+00 0.0000000e+00 3.4083942e-01 
0.0000000e+00 0.0000000e+00 3.4577057e-01 
0.0000000e+00 0.0000000e+00 2.6761702e-01 
0.0000000e+00 0.0000000e+00 1.0592609e-01 
0.0000000e+00 0.0000000e+00 -1.3932984e-01 
0.0000000e+00 0.0000000e+00 -5.2219987e-01 
0.0000000e+00 0.0000000e+00 -5.8651245e-01 
0.0000000e+00 0.0000000e+00 -2.9752707e-01 
0.0000000e+00 0.0000000e+00 -6.4279430e-02 
0.0000000e+00 0.0000000e+00 1.1292671e-01 
0.0000000e+00 0.0000000e+00 2.3400274e-01 
0.0000000e+00 0.0000000e+00 2.9895845e-01 
0.0000000e+00 0.0000000e+00 3.0782306e-01 
0.0000000e+00 0.0000000e+00 2.6060170e-01 
0.0000000e+00 0.0000000e+00 1.5726992e-01 
0.0000000e+00 0.0000000e+00 4.7566168e+02 
0.0000000e+00 0.0000000e+00 -1.2739687e-01 
0.0000000e+00 0.0000000e+00 -1.3952872e-01 
0.0000000e+00 0.0000000e+00 -1.1034275e-01 
0.0000000e+00 0.0000000e+00 -5.8727756e-02 
0.0000000e+00 0.0000000e+00 7.0667738e-09 
0.0000000e+00 0.0000000e+00 5.8727771e-02 
0.0000000e+00 0.0000000e+00 1.1034276e-01 
0.0000000e+00 0.0000000e+00 1.3953897e-01 
0.0000000e+00 0.0000000e+00 1.2740712e-01 
FORCE 3 60  float
-2.0000160e+04 7.1206836e+02 0.0000000e+00 
-1.9998787e+04 7.1239691e+02 0.0000000e+00 
-1.9996084e+04 7.1291357e+02 0.0000000e+00 
-1.9994354e+04 7.1314966e+02 0.0000000e+00 
-1.9994701e+04 7.1310535e+02 0.0000000e+00 
-1.9996922e+04 7.1278058e+02 0.0000000e+00 
-1.9999490e+04 7.1217517e+02 0.0000000e+00 
-1.9999568e+04 7.1128912e+02 0.0000000e+00 
-1.9993000e+04 7.1012286e+02 0.0000000e+00 
-1.9974312e+04 7.0867804e+02 0.0000000e+00 
-9.4668496e+03 -2.0585999e+03 0.0000000e+00 
-9.9881396e+03 2.1166599e+03 0.0000000e+00 
-9.9947412e+03 2.1178857e+03 0.0000000e+00 
-9.9807100e+03 2.1186943e+03 0.0000000e+00 
-9.9686475e+03 2.1190852e+03 0.0000000e+00 
-9.9695117e+03 2.1190605e+03 0.0000000e+00 
-9.9826084e+03 2.1186201e+03 0.0000000e+00 
-9.9955996e+03 2.1177620e+03 0.0000000e+00 
-9.9844951e+03 2.1164868e+03 0.0000000e+00 
-9.9136611e+03 2.1148088e+03 0.0000000e+00 
-5.8176226e+03 -3.4436445e+03 0.0000000e+00 
-1.7374033e+03 -8.0011230e+03 0.0000000e+00 
-1.7468662e+03 -6.0011025e+03 0.0000000e+00 
-1.8838811e+03 -4.0008962e+03 0.0000000e+00 
-2.0355128e+03 -2.0005099e+03 0.0000000e+00 
-2.0993591e+03 3.4106051e-13 0.0000000e+00 
-2.0355128e+03 2.0005099e+03 0.0000000e+00 
-1.8838811e+03 4.0008962e+03 0.0000000e+00 
-1.7468662e+03 6.0011025e+03 0.0000000e+00 
-1.7374033e+03 8.0011230e+03 0.0000000e+00 
-5.8176226e+03 3.4436445e+03 0.0000000e+00 
-9.9136611e+03 -2.1148088e+03 0.0000000e+00 
-9.9844951e+03 -2.1164868e+03 0.0000000e+00 
-9.9955996e+03 -2.1177620e+03 0.0000000e+00 
-9.9826084e+03 -2.1186201e+03 0.0000000e+00 
-9.9695117e+03 -2.1190605e+03 0.0000000e+00 
-9.9686475e+03 -2.1190852e+03 0.0000000e+00 
-9.9807100e+03 -2.1186943e+03 0.0000000e+00 
-9.9947412e+03 -2.1178857e+03 0.0000000e+00 
-9.9881396e+03 -2.1166599e+03 0.0000000e+00 
-9.4668496e+03 2.0585999e+03 0.0000000e+00 
-1.9974312e+04 -7.0867804e+02 0.0000000e+00 
-1.9993000e+04 -7.1012286e+02 0.0000000e+00 
-1.9999568e+04 -7.1128912e+02 0.0000000e+00 
-1.9999490e+04 -7.1217517e+02 0.0000000e+00 
-1.9996922e+04 -7.1278058e+02 0.0000000e+00 
-1.9994701e+04 -7.1310535e+02 0.0000000e+00 
-1.9994354e+04 -7.1314966e+02 0.0000000e+00 
-1.9996084e+04 -7.1291357e+02 0.0000000e+00 
-1.9998787e+04 -7.1239691e+02 0.0000000e+00 
-2.0000160e+04 -7.1206836e+02 0.0000000e+00 
1.5840220e+03 -7.9993604e+03 0.0000000e+00 
1.6170803e+03 -5.9993008e+03 0.0000000e+00 
1.5514702e+03 -3.9994465e+03 0.0000000e+00 
1.4590950e+03 -1.9997048e+03 0.0000000e+00 
1.4177363e+03 -3.5322145e-08 0.0000000e+00 
1.4590950e+03 1.9997048e+03 0.0000000e+00 
1.5514702e+03 3.9994465e+03 0.0000000e+00 
1.6170803e+03 5.9993008e+03 0.0000000e+00 
1.5840220e+03 7.9993604e+03 0.0000000e+00 
MOMENT 3 60  float
0.0000000e+00 0.0000000e+00 -4.1977795e+02 
0.0000000e+00 0.0000000e+00 -3.3330554e+02 
0.0000000e+00 0.0000000e+00 -1.9098509e+02 
0.0000000e+00 0.0000000e+00 -4.8664654e+01 
0.0000000e+00 0.0000000e+00 9.3655792e+01 
0.0000000e+00 0.0000000e+00 2.3597624e+02 
0.0000000e+00 0.0000000e+00 3.7829669e+02 
0.0000000e+00 0.0000000e+00 5.2061713e+02 
0.0000000e+00 0.0000000e+00 6.6293756e+02 
0.0000000e+00 0.0000000e+00 8.0525800e+02 
0.0000000e+00 0.0000000e+00 4.3303906e+02 
0.0000000e+00 0.0000000e+00 -1.4569795e+03 
0.0000000e+00 0.0000000e+00 -1.0335107e+03 
0.0000000e+00 0.0000000e+00 -6.1004193e+02 
0.0000000e+00 0.0000000e+00 -1.8657314e+02 
0.0000000e+00 0.0000000e+00 2.3689565e+02 
0.0000000e+00 0.0000000e+00 6.6036444e+02 
0.0000000e+00 0.0000000e+00 1.0838333e+03 
0.0000000e+00 0.0000000e+00 1.5073020e+03 
0.0000000e+00 0.0000000e+00 1.9307708e+03 
0.0000000e+00 0.0000000e+00 1.9179401e+03 
0.0000000e+00 0.0000000e+00 6.3273248e+02 
0.0000000e+00 0.0000000e+00 -7.6726575e+02 
0.0000000e+00 0.0000000e+00 -1.7672648e+03 
0.0000000e+00 0.0000000e+00 -2.3672644e+03 
0.0000000e+00 0.0000000e+00 -2.5672644e+03 
0.0000000e+00 0.0000000e+00 -2.3672644e+03 
0.0000000e+00 0.0000000e+00 -1.7672648e+03 
0.0000000e+00 0.0000000e+00 -7.6726575e+02 
0.0000000e+00 0.0000000e+00 6.3273248e+02 
0.0000000e+00 0.0000000e+00 1.9179401e+03 
0.0000000e+00 0.0000000e+00 1.9307708e+03 
0.0000000e+00 0.0000000e+00 1.5073020e+03 
0.0000000e+00 0.0000000e+00 1.0838333e+03 
0.0000000e+00 0.0000000e+00 6.6036444e+02 
0.0000000e+00 0.0000000e+00 2.3689565e+02 
0.0000000e+00 0.0000000e+00 -1.8657314e+02 
0.0000000e+00 0.0000000e+00 -6.1004193e+02 
0.0000000e+00 0.0000000e+00 -1.0335107e+03 
0.0000000e+00 0.0000000e+00 -1.4569795e+03 
0.0000000e+00 0.0000000e+00 4.3303906e+02 
0.0000000e+00 0.0000000e+00 8.0525800e+02 
0.0000000e+00 0.0000000e+00 6.6293756e+02 
0.0000000e+00 0.0000000e+00 5.2061713e+02 
0.0000000e+00 0.0000000e+00 3.7829669e+02 
0.0000000e+00 0.0000000e+00 2.3597624e+02 
0.0000000e+00 0.0000000e+00 9.3655792e+01 
0.0000000e+00 0.0000000e+00 -4.8664654e+01 
0.0000000e+00 0.0000000e+00 -1.9098509e+02 
0.0000000e+00 0.0000000e+00 -3.3330554e+02 
0.0000000e+00 0.0000000e+00 -4.1977795e+02 
0.0000000e+00 0.0000000e+00 1.1065273e+03 
0.0000000e+00 0.0000000e+00 -2.9347321e+02 
0.0000000e+00 0.0000000e+00 -1.2934738e+03 
0.0000000e+00 0.0000000e+00 -1.8934742e+03 
0.0000000e+00 0.0000000e+00 -2.0934744e+03 
0.0000000e+00 0.0000000e+00 -1.8934742e+03 
0.0000000e+00 0.0000000e+00 -1.2934738e+03 
0.0000000e+00 0.0000000e+00 -2.9347321e+02 
0.0000000e+00 0.0000000e+00 1.1065273e+03 
CELL_DATA 60
FIELD FieldData 2
FORCE 3 60  float
-2.0000160e+04 7.1206836e+02 0.0000000e+00 
-1.9997412e+04 7.1272540e+02 0.0000000e+00 
-1.9994754e+04 7.1310175e+02 0.0000000e+00 
-1.9993951e+04 7.1319763e+02 0.0000000e+00 
-1.9995451e+04 7.1301306e+02 0.0000000e+00 
-1.9998393e+04 7.1254803e+02 0.0000000e+00 
-2.0000590e+04 7.1180231e+02 0.0000000e+00 
-1.9998547e+04 7.1077594e+02 0.0000000e+00 
-1.9987451e+04 7.0946985e+02 0.0000000e+00 
-1.9961174e+04 7.0788617e+02 0.0000000e+00 
-9.9761260e+03 2.1159429e+03 0.0000000e+00 
-1.0000152e+04 2.1173770e+03 0.0000000e+00 
-9.9893311e+03 2.1183948e+03 0.0000000e+00 
-9.9720889e+03 2.1189939e+03 0.0000000e+00 
-9.9652070e+03 2.1191765e+03 0.0000000e+00 
-9.9738164e+03 2.1189446e+03 0.0000000e+00 
-9.9914014e+03 2.1182959e+03 0.0000000e+00 
-9.9997969e+03 2.1172280e+03 0.0000000e+00 
-9.9691934e+03 2.1157456e+03 0.0000000e+00 
-9.8581279e+03 2.1138721e+03 0.0000000e+00 
-1.7771702e+03 -9.0010869e+03 0.0000000e+00 
-1.6976365e+03 -7.0011592e+03 0.0000000e+00 
-1.7960958e+03 -5.0010459e+03 0.0000000e+00 
-1.9716665e+03 -3.0007463e+03 0.0000000e+00 
-2.0993591e+03 -1.0002732e+03 0.0000000e+00 
-2.0993591e+03 1.0002732e+03 0.0000000e+00 
-1.9716665e+03 3.0007463e+03 0.0000000e+00 
-1.7960958e+03 5.0010459e+03 0.0000000e+00 
-1.6976365e+03 7.0011592e+03 0.0000000e+00 
-1.7771702e+03 9.0010869e+03 0.0000000e+00 
-9.8581279e+03 -2.1138721e+03 0.0000000e+00 
-9.9691934e+03 -2.1157456e+03 0.0000000e+00 
-9.9997969e+03 -2.1172280e+03 0.0000000e+00 
-9.9914014e+03 -2.1182959e+03 0.0000000e+00 
-9.9738164e+03 -2.1189446e+03 0.0000000e+00 
-9.9652070e+03 -2.1191765e+03 0.0000000e+00 
-9.9720889e+03 -2.1189939e+03 0.0000000e+00 
-9.9893311e+03 -2.1183948e+03 0.0000000e+00 
-1.0000152e+04 -2.1173770e+03 0.0000000e+00 
-9.9761260e+03 -2.1159429e+03 0.0000000e+00 
-1.9961174e+04 -7.0788617e+02 0.0000000e+00 
-1.9987451e+04 -7.0946985e+02 0.0000000e+00 
-1.9998547e+04 -7.1077594e+02 0.0000000e+00 
-2.0000590e+04 -7.1180231e+02 0.0000000e+00 
-1.9998393e+04 -7.1254803e+02 0.0000000e+00 
-1.9995451e+04 -7.1301306e+02 0.0000000e+00 
-1.9993951e+04 -7.1319763e+02 0.0000000e+00 
-1.9994754e+04 -7.1310175e+02 0.0000000e+00 
-1.9997412e+04 -7.1272540e+02 0.0000000e+00 
-2.0000160e+04 -7.1206836e+02 0.0000000e+00 
1.5363704e+03 -8.9994521e+03 0.0000000e+00 
1.6316737e+03 -6.9992690e+03 0.0000000e+00 
1.6024869e+03 -4.9993330e+03 0.0000000e+00 
1.5004536e+03 -2.9995598e+03 0.0000000e+00 
1.4177363e+03 -9.9984961e+02 0.0000000e+00 
1.4177363e+03 9.9984961e+02 0.0000000e+00 
1.5004536e+03 2.9995598e+03 0.0000000e+00 
1.6024869e+03 4.9993330e+03 0.0000000e+00 
1.6316737e+03 6.9992690e+03 0.0000000e+00 
1.5363704e+03 8.9994521e+03 0.0000000e+00 
MOMENT 3 60  float
0.0000000e+00 0.0000000e+00 -4.0445718e+02 
0.0000000e+00 0.0000000e+00 -2.6213977e+02 
0.0000000e+00 0.0000000e+00 -1.1982233e+02 
0.0000000e+00 0.0000000e+00 2.2495092e+01 
0.0000000e+00 0.0000000e+00 1.6481252e+02 
0.0000000e+00 0.0000000e+00 3.0712994e+02 
0.0000000e+00 0.0000000e+00 4.4944736e+02 
0.0000000e+00 0.0000000e+00 5.9176477e+02 
0.0000000e+00 0.0000000e+00 7.3408221e+02 
0.0000000e+00 0.0000000e+00 8.7639972e+02 
0.0000000e+00 0.0000000e+00 -1.6686963e+03 
0.0000000e+00 0.0000000e+00 -1.2452319e+03 
0.0000000e+00 0.0000000e+00 -8.2176764e+02 
0.0000000e+00 0.0000000e+00 -3.9830331e+02 
0.0000000e+00 0.0000000e+00 2.5160995e+01 
0.0000000e+00 0.0000000e+00 4.4862531e+02 
0.0000000e+00 0.0000000e+00 8.7208960e+02 
0.0000000e+00 0.0000000e+00 1.2955540e+03 
0.0000000e+00 0.0000000e+00 1.7190183e+03 
0.0000000e+00 0.0000000e+00 2.1424829e+03 
0.0000000e+00 0.0000000e+00 1.4542461e+03 
0.0000000e+00 0.0000000e+00 -1.4574965e+02 
0.0000000e+00 0.0000000e+00 -1.3457465e+03 
0.0000000e+00 0.0000000e+00 -2.1457437e+03 
0.0000000e+00 0.0000000e+00 -2.5457419e+03 
0.0000000e+00 0.0000000e+00 -2.5457419e+03 
0.0000000e+00 0.0000000e+00 -2.1457437e+03 
0.0000000e+00 0.0000000e+00 -1.3457465e+03 
0.0000000e+00 0.0000000e+00 -1.4574965e+02 
0.0000000e+00 0.0000000e+00 1.4542461e+03 
0.0000000e+00 0.0000000e+00 2.1424829e+03 
0.0000000e+00 0.0000000e+00 1.7190183e+03 
0.0000000e+00 0.0000000e+00 1.2955540e+03 
0.0000000e+00 0.0000000e+00 8.7208960e+02 
0.0000000e+00 0.0000000e+00 4.4862531e+02 
0.0000000e+00 0.0000000e+00 2.5160995e+01 
0.0000000e+00 0.0000000e+00 -3.9830331e+02 
0.0000000e+00 0.0000000e+00 -8.2176764e+02 
0.0000000e+00 0.0000000e+00 -1.2452319e+03 
0.0000000e+00 0.0000000e+00 -1.6686963e+03 
0.0000000e+00 0.0000000e+00 8.7639972e+02 
0.0000000e+00 0.0000000e+00 7.3408221e+02 
0.0000000e+00 0.0000000e+00 5.9176477e+02 
0.0000000e+00 0.0000000e+00 4.4944736e+02 
0.0000000e+00 0.0000000e+00 3.0712994e+02 
0.0000000e+00 0.0000000e+00 1.6481252e+02 
0.0000000e+00 0.0000000e+00 2.2495092e+01 
0.0000000e+00 0.0000000e+00 -1.1982233e+02 
0.0000000e+00 0.0000000e+00 -2.6213977e+02 
0.0000000e+00 0.0000000e+00 -4.0445718e+02 
0.0000000e+00 0.0000000e+00 1.9280479e+03 
0.0000000e+00 0.0000000e+00 3.2804419e+02 
0.0000000e+00 0.0000000e+00 -8.7195874e+02 
0.0000000e+00 0.0000000e+00 -1.6719604e+03 
0.0000000e+00 0.0000000e+00 -2.0719609e+03 
0.0000000e+00 0.0000000e+00 -2.0719609e+03 
0.0000000e+00 0.0000000e+00 -1.6719604e+03 
0.0000000e+00 0.0000000e+00 -8.7195874e+02 
0.0000000e+00 0.0000000e+00 3.2804419e+02 
0.0000000e+00 0.0000000e+00 1.9280479e+03 
