# vtk DataFile Version 4.0
vtk output
ASCII
DATASET UNSTRUCTURED_GRID
POINTS 48 float
0.0000000e+00 0.0000000e+00 0.0000000e+00 
0.0000000e+00 0.0000000e+00 5.0000000e-01 
0.0000000e+00 0.0000000e+00 1.0000000e+00 
0.0000000e+00 0.0000000e+00 1.5000000e+00 
0.0000000e+00 0.0000000e+00 2.0000000e+00 
0.0000000e+00 0.0000000e+00 2.5000000e+00 
0.0000000e+00 0.0000000e+00 3.0000000e+00 
0.0000000e+00 0.0000000e+00 3.5000000e+00 
0.0000000e+00 0.0000000e+00 4.0000000e+00 
0.0000000e+00 0.0000000e+00 4.5000000e+00 
0.0000000e+00 0.0000000e+00 5.0000000e+00 
0.0000000e+00 0.0000000e+00 5.5000000e+00 
0.0000000e+00 0.0000000e+00 6.0000000e+00 
0.0000000e+00 0.0000000e+00 6.5000000e+00 
0.0000000e+00 0.0000000e+00 7.0000000e+00 
0.0000000e+00 0.0000000e+00 7.5000000e+00 
0.0000000e+00 0.0000000e+00 8.0000000e+00 
4.0000000e+00 0.0000000e+00 0.0000000e+00 
4.0000000e+00 0.0000000e+00 5.0000000e-01 
4.0000000e+00 0.0000000e+00 1.0000000e+00 
4.0000000e+00 0.0000000e+00 1.5000000e+00 
4.0000000e+00 0.0000000e+00 2.0000000e+00 
4.0000000e+00 0.0000000e+00 2.5000000e+00 
4.0000000e+00 0.0000000e+00 3.0000000e+00 
4.0000000e+00 0.0000000e+00 3.5000000e+00 
4.0000000e+00 0.0000000e+00 4.0000000e+00 
4.0000000e+00 0.0000000e+00 4.5000000e+00 
4.0000000e+00 0.0000000e+00 5.0000000e+00 
4.0000000e+00 0.0000000e+00 5.5000000e+00 
4.0000000e+00 0.0000000e+00 6.0000000e+00 
4.0000000e+00 0.0000000e+00 6.5000000e+00 
4.0000000e+00 0.0000000e+00 7.0000000e+00 
4.0000000e+00 0.0000000e+00 7.5000000e+00 
4.0000000e+00 0.0000000e+00 8.0000000e+00 
5.0000000e-01 0.0000000e+00 4.0000000e+00 
1.0000000e+00 0.0000000e+00 4.0000000e+00 
1.5000000e+00 0.0000000e+00 4.0000000e+00 
2.0000000e+00 0.0000000e+00 4.0000000e+00 
2.5000000e+00 0.0000000e+00 4.0000000e+00 
3.0000000e+00 0.0000000e+00 4.0000000e+00 
3.5000000e+00 0.0000000e+00 4.0000000e+00 
5.0000000e-01 0.0000000e+00 8.0000000e+00 
1.0000000e+00 0.0000000e+00 8.0000000e+00 
1.5000000e+00 0.0000000e+00 8.0000000e+00 
2.0000000e+00 0.0000000e+00 8.0000000e+00 
2.5000000e+00 0.0000000e+00 8.0000000e+00 
3.0000000e+00 0.0000000e+00 8.0000000e+00 
3.5000000e+00 0.0000000e+00 8.0000000e+00 

CELLS 48 144
2 0 1
2 1 2
2 2 3
2 3 4
2 4 5
2 5 6
2 6 7
2 7 8
2 8 9
2 9 10
2 10 11
2 11 12
2 12 13
2 13 14
2 14 15
2 15 16
2 17 18
2 18 19
2 19 20
2 20 21
2 21 22
2 22 23
2 23 24
2 24 25
2 25 26
2 26 27
2 27 28
2 28 29
2 29 30
2 30 31
2 31 32
2 32 33
2 8 34
2 34 35
2 35 36
2 36 37
2 37 38
2 38 39
2 39 40
2 40 25
2 16 41
2 41 42
2 42 43
2 43 44
2 44 45
2 45 46
2 46 47
2 47 33

CELL_TYPES 48
3
3
3
3
3
3
3
3
3
3
3
3
3
3
3
3
3
3
3
3
3
3
3
3
3
3
3
3
3
3
3
3
3
3
3
3
3
3
3
3
3
3
3
3
3
3
3
3
POINT_DATA 48
FIELD FieldData 3
ADJOINT_DISPLACEMENT 3 48  float
0.0000000e+00 0.0000000e+00 0.0000000e+00 
-1.4643769e-02 0.0000000e+00 1.9742315e-14 
-3.0865962e-02 0.0000000e+00 3.9484631e-14 
-5.0244998e-02 0.0000000e+00 5.9226942e-14 
-7.4359305e-02 0.0000000e+00 7.8969261e-14 
-1.0478730e-01 0.0000000e+00 9.8711573e-14 
-1.4310741e-01 0.0000000e+00 1.1845388e-13 
-1.9089806e-01 0.0000000e+00 1.3819620e-13 
-2.4973767e-01 0.0000000e+00 1.5793852e-13 
-3.3548641e-01 0.0000000e+00 1.9736841e-02 
-4.6237072e-01 0.0000000e+00 3.9473683e-02 
-6.2951827e-01 0.0000000e+00 5.9210528e-02 
-8.3605683e-01 0.0000000e+00 7.8947365e-02 
-5.8111405e-01 0.0000000e+00 9.8684214e-02 
-3.6381769e-01 0.0000000e+00 1.1842106e-01 
-1.8329543e-01 0.0000000e+00 1.3815789e-01 
-3.8674999e-02 0.0000000e+00 1.5789473e-01 
0.0000000e+00 0.0000000e+00 0.0000000e+00 
-3.7987810e-02 0.0000000e+00 -1.9743322e-14 
-7.4397199e-02 0.0000000e+00 -3.9483790e-14 
-1.0764974e-01 0.0000000e+00 -5.9226529e-14 
-1.3616702e-01 0.0000000e+00 -7.8971904e-14 
-1.5837060e-01 0.0000000e+00 -9.8730804e-14 
-1.7268206e-01 0.0000000e+00 -1.1847217e-13 
-1.7752300e-01 0.0000000e+00 -1.3820360e-13 
-1.7131497e-01 0.0000000e+00 -1.5789518e-13 
-1.5793464e-01 0.0000000e+00 -1.9736841e-02 
-1.4289244e-01 0.0000000e+00 -3.9473683e-02 
-1.2706065e-01 0.0000000e+00 -5.9210528e-02 
-1.1131159e-01 0.0000000e+00 -7.8947365e-02 
-9.6517526e-02 0.0000000e+00 -9.8684214e-02 
-8.3550736e-02 0.0000000e+00 -1.1842106e-01 
-7.3283523e-02 0.0000000e+00 -1.3815789e-01 
-6.6588156e-02 0.0000000e+00 -1.5789473e-01 
-2.3993482e-01 0.0000000e+00 5.1022366e-02 
-2.3013198e-01 0.0000000e+00 7.7598497e-02 
-2.2032915e-01 0.0000000e+00 8.4662594e-02 
-2.1052632e-01 0.0000000e+00 7.7148870e-02 
-2.0072348e-01 0.0000000e+00 5.9991539e-02 
-1.9092065e-01 0.0000000e+00 3.8124811e-02 
-1.8111780e-01 0.0000000e+00 1.6482893e-02 
-4.2164143e-02 0.0000000e+00 4.7626864e-02 
-4.5653287e-02 0.0000000e+00 -3.2545678e-02 
-4.9142435e-02 0.0000000e+00 -8.7557092e-02 
-5.2631579e-02 0.0000000e+00 -1.2234160e-01 
-5.6120723e-02 0.0000000e+00 -1.4183341e-01 
-5.9609868e-02 0.0000000e+00 -1.5096673e-01 
-6.3099012e-02 0.0000000e+00 -1.5467577e-01 
ADJOINT_ROTATION 3 48  float
0.0000000e+00 -2.8761398e-02 0.0000000e+00 
0.0000000e+00 -3.0339820e-02 0.0000000e+00 
0.0000000e+00 -3.5075087e-02 0.0000000e+00 
0.0000000e+00 -4.2967200e-02 0.0000000e+00 
0.0000000e+00 -5.4016162e-02 0.0000000e+00 
0.0000000e+00 -6.8221964e-02 0.0000000e+00 
0.0000000e+00 -8.5584611e-02 0.0000000e+00 
0.0000000e+00 -1.0610411e-01 0.0000000e+00 
0.0000000e+00 -1.2978046e-01 0.0000000e+00 
0.0000000e+00 -2.1292382e-01 0.0000000e+00 
0.0000000e+00 -2.9432264e-01 0.0000000e+00 
0.0000000e+00 -3.7397686e-01 0.0000000e+00 
0.0000000e+00 -4.5188653e-01 0.0000000e+00 
0.0000000e+00 4.7194839e-01 0.0000000e+00 
0.0000000e+00 3.9752787e-01 0.0000000e+00 
0.0000000e+00 3.2485193e-01 0.0000000e+00 
0.0000000e+00 2.5392056e-01 0.0000000e+00 
0.0000000e+00 -7.6501757e-02 0.0000000e+00 
0.0000000e+00 -7.4923337e-02 0.0000000e+00 
0.0000000e+00 -7.0188068e-02 0.0000000e+00 
0.0000000e+00 -6.2295955e-02 0.0000000e+00 
0.0000000e+00 -5.1246997e-02 0.0000000e+00 
0.0000000e+00 -3.7041195e-02 0.0000000e+00 
0.0000000e+00 -1.9678544e-02 0.0000000e+00 
0.0000000e+00 8.4095093e-04 0.0000000e+00 
0.0000000e+00 2.4517292e-02 0.0000000e+00 
0.0000000e+00 2.8713301e-02 0.0000000e+00 
0.0000000e+00 3.1164739e-02 0.0000000e+00 
0.0000000e+00 3.1871606e-02 0.0000000e+00 
0.0000000e+00 3.0833896e-02 0.0000000e+00 
0.0000000e+00 2.8051617e-02 0.0000000e+00 
0.0000000e+00 2.3524765e-02 0.0000000e+00 
0.0000000e+00 1.7253341e-02 0.0000000e+00 
0.0000000e+00 9.2373434e-03 0.0000000e+00 
0.0000000e+00 -7.5953759e-02 0.0000000e+00 
0.0000000e+00 -3.1995486e-02 0.0000000e+00 
0.0000000e+00 2.0943615e-03 0.0000000e+00 
0.0000000e+00 2.6315790e-02 0.0000000e+00 
0.0000000e+00 4.0668797e-02 0.0000000e+00 
0.0000000e+00 4.5153383e-02 0.0000000e+00 
0.0000000e+00 3.9769549e-02 0.0000000e+00 
0.0000000e+00 1.8879567e-01 0.0000000e+00 
0.0000000e+00 1.3353923e-01 0.0000000e+00 
0.0000000e+00 8.8151194e-02 0.0000000e+00 
0.0000000e+00 5.2631579e-02 0.0000000e+00 
0.0000000e+00 2.6980389e-02 0.0000000e+00 
0.0000000e+00 1.1197619e-02 0.0000000e+00 
0.0000000e+00 5.2832710e-03 0.0000000e+00 
SHAPE_SENSITIVITY 3 48  float
0.0000000e+00 0.0000000e+00 0.0000000e+00 
0.0000000e+00 0.0000000e+00 0.0000000e+00 
0.0000000e+00 0.0000000e+00 0.0000000e+00 
0.0000000e+00 0.0000000e+00 0.0000000e+00 
0.0000000e+00 0.0000000e+00 0.0000000e+00 
0.0000000e+00 0.0000000e+00 0.0000000e+00 
0.0000000e+00 0.0000000e+00 0.0000000e+00 
0.0000000e+00 0.0000000e+00 0.0000000e+00 
0.0000000e+00 0.0000000e+00 0.0000000e+00 
0.0000000e+00 0.0000000e+00 0.0000000e+00 
0.0000000e+00 0.0000000e+00 0.0000000e+00 
0.0000000e+00 0.0000000e+00 0.0000000e+00 
0.0000000e+00 0.0000000e+00 0.0000000e+00 
0.0000000e+00 0.0000000e+00 0.0000000e+00 
0.0000000e+00 0.0000000e+00 0.0000000e+00 
0.0000000e+00 0.0000000e+00 0.0000000e+00 
0.0000000e+00 0.0000000e+00 0.0000000e+00 
0.0000000e+00 0.0000000e+00 0.0000000e+00 
0.0000000e+00 0.0000000e+00 0.0000000e+00 
0.0000000e+00 0.0000000e+00 0.0000000e+00 
0.0000000e+00 0.0000000e+00 0.0000000e+00 
0.0000000e+00 0.0000000e+00 0.0000000e+00 
0.0000000e+00 0.0000000e+00 0.0000000e+00 
0.0000000e+00 0.0000000e+00 0.0000000e+00 
0.0000000e+00 0.0000000e+00 0.0000000e+00 
0.0000000e+00 0.0000000e+00 0.0000000e+00 
0.0000000e+00 0.0000000e+00 0.0000000e+00 
0.0000000e+00 0.0000000e+00 0.0000000e+00 
0.0000000e+00 0.0000000e+00 0.0000000e+00 
0.0000000e+00 0.0000000e+00 0.0000000e+00 
0.0000000e+00 0.0000000e+00 0.0000000e+00 
0.0000000e+00 0.0000000e+00 0.0000000e+00 
0.0000000e+00 0.0000000e+00 0.0000000e+00 
0.0000000e+00 0.0000000e+00 0.0000000e+00 
0.0000000e+00 0.0000000e+00 0.0000000e+00 
0.0000000e+00 0.0000000e+00 0.0000000e+00 
0.0000000e+00 0.0000000e+00 0.0000000e+00 
0.0000000e+00 0.0000000e+00 0.0000000e+00 
0.0000000e+00 0.0000000e+00 0.0000000e+00 
0.0000000e+00 0.0000000e+00 0.0000000e+00 
0.0000000e+00 0.0000000e+00 0.0000000e+00 
0.0000000e+00 0.0000000e+00 0.0000000e+00 
0.0000000e+00 0.0000000e+00 0.0000000e+00 
0.0000000e+00 0.0000000e+00 0.0000000e+00 
0.0000000e+00 0.0000000e+00 0.0000000e+00 
0.0000000e+00 0.0000000e+00 0.0000000e+00 
0.0000000e+00 0.0000000e+00 0.0000000e+00 
0.0000000e+00 0.0000000e+00 0.0000000e+00 
CELL_DATA 48
FIELD FieldData 1
I22_SENSITIVITY 1 48  float
2.4966616e-03
1.7476641e-02
4.7436602e-02
9.2376538e-02
1.5229647e-01
2.2719637e-01
3.1707624e-01
4.2193609e-01
-1.6371745e+00
-1.0348190e+00
-4.5681176e-01
9.6847206e-02
6.2615794e-01
1.1311203e+00
1.6117345e+00
2.0680006e+00
2.4966677e-03
1.7476652e-02
4.7436610e-02
9.2376538e-02
1.5229645e-01
2.2719637e-01
3.1707624e-01
4.2193609e-01
-8.3586857e-02
-3.2148965e-02
-5.0593331e-03
-2.3179671e-03
-2.3924863e-02
-6.9880024e-02
-1.4018345e-01
-2.3483515e-01
-1.3555502e+00
2.1466707e-01
8.5188073e-01
8.5214305e-01
5.1150686e-01
1.2602492e-01
-8.2502346e-03
4.0473372e-01
1.0159723e+00
-7.9953396e-01
-1.5690563e+00
-1.5886443e+00
-1.1543523e+00
-5.6223255e-01
-1.0833763e-01
-8.8720292e-02
