# vtk DataFile Version 4.0
vtk output
ASCII
DATASET UNSTRUCTURED_GRID
POINTS 6 float
0.0000000e+00 0.0000000e+00 0.0000000e+00 
0.0000000e+00 2.0000000e+00 0.0000000e+00 
0.0000000e+00 4.0000000e+00 0.0000000e+00 
2.0000000e+00 4.0000000e+00 0.0000000e+00 
2.0000000e+00 2.0000000e+00 0.0000000e+00 
2.0000000e+00 0.0000000e+00 0.0000000e+00 

CELLS 6 18
2 0 1
2 1 2
2 2 3
2 3 4
2 4 5
2 1 4

CELL_TYPES 6
3
3
3
3
3
3
POINT_DATA 6
FIELD FieldData 4
DISPLACEMENT 3 6  float
0.0000000e+00 0.0000000e+00 0.0000000e+00 
6.6570296e-18 -6.6368011e-05 0.0000000e+00 
9.2756295e-18 -9.9552017e-05 0.0000000e+00 
9.2776495e-18 -9.9552017e-05 0.0000000e+00 
6.6562161e-18 -6.6368011e-05 0.0000000e+00 
0.0000000e+00 0.0000000e+00 0.0000000e+00 
REACTION 3 6  float
1.2246875e-12 2.0000664e+04 0.0000000e+00 
-6.1235386e-13 -4.9777940e-01 0.0000000e+00 
-6.1233353e-13 -1.6592276e-01 0.0000000e+00 
-1.8370006e-12 -1.6592284e-01 0.0000000e+00 
-1.8370615e-12 -4.9777934e-01 0.0000000e+00 
3.6740624e-12 2.0000664e+04 0.0000000e+00 
ROTATION 3 6  float
0.0000000e+00 0.0000000e+00 -4.3419674e-18 
0.0000000e+00 0.0000000e+00 -1.3077055e-18 
0.0000000e+00 0.0000000e+00 -5.3468402e-19 
0.0000000e+00 0.0000000e+00 -5.4758012e-19 
0.0000000e+00 0.0000000e+00 -1.2989900e-18 
0.0000000e+00 0.0000000e+00 -4.3518109e-18 
REACTION_MOMENT 3 6  float
0.0000000e+00 0.0000000e+00 -1.5829261e-12 
0.0000000e+00 0.0000000e+00 1.1737957e-12 
0.0000000e+00 0.0000000e+00 4.1132516e-13 
0.0000000e+00 0.0000000e+00 3.8647392e-13 
0.0000000e+00 0.0000000e+00 1.2039394e-12 
0.0000000e+00 0.0000000e+00 -1.5926081e-12 
CELL_DATA 6
FIELD FieldData 0
