# vtk DataFile Version 4.0
vtk output
ASCII
DATASET UNSTRUCTURED_GRID
POINTS 21 float
0.0000000e+00 0.0000000e+00 0.0000000e+00 
1.0000000e-01 0.0000000e+00 0.0000000e+00 
2.0000000e-01 0.0000000e+00 0.0000000e+00 
3.0000001e-01 0.0000000e+00 0.0000000e+00 
4.0000001e-01 0.0000000e+00 0.0000000e+00 
5.0000000e-01 0.0000000e+00 0.0000000e+00 
6.0000002e-01 0.0000000e+00 0.0000000e+00 
6.9999999e-01 0.0000000e+00 0.0000000e+00 
8.0000001e-01 0.0000000e+00 0.0000000e+00 
8.9999998e-01 0.0000000e+00 0.0000000e+00 
1.0000000e+00 0.0000000e+00 0.0000000e+00 
1.1000000e+00 0.0000000e+00 0.0000000e+00 
1.2000000e+00 0.0000000e+00 0.0000000e+00 
1.3000000e+00 0.0000000e+00 0.0000000e+00 
1.4000000e+00 0.0000000e+00 0.0000000e+00 
1.5000000e+00 0.0000000e+00 0.0000000e+00 
1.6000000e+00 0.0000000e+00 0.0000000e+00 
1.7000000e+00 0.0000000e+00 0.0000000e+00 
1.8000000e+00 0.0000000e+00 0.0000000e+00 
1.9000000e+00 0.0000000e+00 0.0000000e+00 
2.0000000e+00 0.0000000e+00 0.0000000e+00 

CELLS 20 60
2 0 1
2 1 2
2 2 3
2 3 4
2 4 5
2 5 6
2 6 7
2 7 8
2 8 9
2 9 10
2 10 11
2 11 12
2 12 13
2 13 14
2 14 15
2 15 16
2 16 17
2 17 18
2 18 19
2 19 20

CELL_TYPES 20
3
3
3
3
3
3
3
3
3
3
3
3
3
3
3
3
3
3
3
3
POINT_DATA 21
FIELD FieldData 6
DISPLACEMENT 3 21  float
0.0000000e+00 0.0000000e+00 0.0000000e+00 
0.0000000e+00 -1.4470098e-05 0.0000000e+00 
0.0000000e+00 -5.1948053e-05 0.0000000e+00 
0.0000000e+00 -1.0425685e-04 0.0000000e+00 
0.0000000e+00 -1.6418150e-04 0.0000000e+00 
0.0000000e+00 -2.2546898e-04 0.0000000e+00 
0.0000000e+00 -2.8282829e-04 0.0000000e+00 
0.0000000e+00 -3.3193041e-04 0.0000000e+00 
0.0000000e+00 -3.6940837e-04 0.0000000e+00 
0.0000000e+00 -3.9285715e-04 0.0000000e+00 
0.0000000e+00 -4.0083373e-04 0.0000000e+00 
0.0000000e+00 -3.9285715e-04 0.0000000e+00 
0.0000000e+00 -3.6940837e-04 0.0000000e+00 
0.0000000e+00 -3.3193041e-04 0.0000000e+00 
0.0000000e+00 -2.8282829e-04 0.0000000e+00 
0.0000000e+00 -2.2546898e-04 0.0000000e+00 
0.0000000e+00 -1.6418150e-04 0.0000000e+00 
0.0000000e+00 -1.0425685e-04 0.0000000e+00 
0.0000000e+00 -5.1948053e-05 0.0000000e+00 
0.0000000e+00 -1.4470098e-05 0.0000000e+00 
0.0000000e+00 0.0000000e+00 0.0000000e+00 
REACTION 3 21  float
-4.8720217e+00 1.0000000e+04 0.0000000e+00 
-3.3846611e+01 -7.7892067e-03 0.0000000e+00 
-3.8989368e+01 -1.1830660e-02 0.0000000e+00 
-2.5528435e+01 -8.5857008e-03 0.0000000e+00 
-5.4525738e+00 -1.0997900e-03 0.0000000e+00 
1.3114774e+01 5.8742650e-03 0.0000000e+00 
2.5363297e+01 9.4607202e-03 0.0000000e+00 
2.9243629e+01 8.2638850e-03 0.0000000e+00 
2.4915157e+01 5.7321880e-03 0.0000000e+00 
1.4193838e+01 -1.3497074e-03 0.0000000e+00 
2.6520536e-07 7.4457371e-04 0.0000000e+00 
-1.4193838e+01 2.9908218e-03 0.0000000e+00 
-2.4915157e+01 5.7321880e-03 0.0000000e+00 
-2.9243629e+01 8.2641626e-03 0.0000000e+00 
-2.5363297e+01 9.4607202e-03 0.0000000e+00 
-1.3114774e+01 5.8748187e-03 0.0000000e+00 
5.4525738e+00 -1.0995130e-03 0.0000000e+00 
2.5528435e+01 -8.5857008e-03 0.0000000e+00 
3.8989368e+01 -1.1830937e-02 0.0000000e+00 
3.3846611e+01 -7.7894838e-03 0.0000000e+00 
4.8720217e+00 1.0000000e+04 0.0000000e+00 
ROTATION 3 21  float
0.0000000e+00 0.0000000e+00 0.0000000e+00 
0.0000000e+00 0.0000000e+00 -2.7417028e-04 
0.0000000e+00 0.0000000e+00 -4.6176047e-04 
0.0000000e+00 0.0000000e+00 -5.7239056e-04 
0.0000000e+00 0.0000000e+00 -6.1568059e-04 
0.0000000e+00 0.0000000e+00 -6.0125062e-04 
0.0000000e+00 0.0000000e+00 -5.3872052e-04 
0.0000000e+00 0.0000000e+00 -4.3771043e-04 
0.0000000e+00 0.0000000e+00 -3.0784030e-04 
0.0000000e+00 0.0000000e+00 -1.5873015e-04 
0.0000000e+00 0.0000000e+00 -9.2579768e-17 
0.0000000e+00 0.0000000e+00 1.5873015e-04 
0.0000000e+00 0.0000000e+00 3.0784030e-04 
0.0000000e+00 0.0000000e+00 4.3771043e-04 
0.0000000e+00 0.0000000e+00 5.3872052e-04 
0.0000000e+00 0.0000000e+00 6.0125062e-04 
0.0000000e+00 0.0000000e+00 6.1568059e-04 
0.0000000e+00 0.0000000e+00 5.7239056e-04 
0.0000000e+00 0.0000000e+00 4.6176047e-04 
0.0000000e+00 0.0000000e+00 2.7417028e-04 
0.0000000e+00 0.0000000e+00 0.0000000e+00 
REACTION_MOMENT 3 21  float
0.0000000e+00 0.0000000e+00 3.3250000e+03 
0.0000000e+00 0.0000000e+00 -1.2334744e-03 
0.0000000e+00 0.0000000e+00 -4.1735754e-03 
0.0000000e+00 0.0000000e+00 -7.5245714e-03 
0.0000000e+00 0.0000000e+00 -9.3072550e-03 
0.0000000e+00 0.0000000e+00 -8.7501155e-03 
0.0000000e+00 0.0000000e+00 -6.4232494e-03 
0.0000000e+00 0.0000000e+00 -3.6023888e-03 
0.0000000e+00 0.0000000e+00 -1.3849027e-03 
0.0000000e+00 0.0000000e+00 -4.0097602e-04 
0.0000000e+00 0.0000000e+00 -2.1705394e-04 
0.0000000e+00 0.0000000e+00 1.8389410e-04 
0.0000000e+00 0.0000000e+00 1.3848469e-03 
0.0000000e+00 0.0000000e+00 3.6023464e-03 
0.0000000e+00 0.0000000e+00 6.4232219e-03 
0.0000000e+00 0.0000000e+00 8.7501146e-03 
0.0000000e+00 0.0000000e+00 9.3072960e-03 
0.0000000e+00 0.0000000e+00 7.5246296e-03 
0.0000000e+00 0.0000000e+00 4.1736169e-03 
0.0000000e+00 0.0000000e+00 1.2334880e-03 
0.0000000e+00 0.0000000e+00 -3.3250000e+03 
FORCE 3 21  float
6.2466807e+00 -9.4999990e+03 0.0000000e+00 
2.4075466e+01 -8.9999883e+03 0.0000000e+00 
6.1767696e+01 -7.9999575e+03 0.0000000e+00 
9.4381317e+01 -6.9999233e+03 0.0000000e+00 
1.0959564e+02 -5.9999053e+03 0.0000000e+00 
1.0510757e+02 -4.9999111e+03 0.0000000e+00 
8.5042435e+01 -3.9999351e+03 0.0000000e+00 
5.6916874e+01 -2.9999639e+03 0.0000000e+00 
2.9154068e+01 -1.9999863e+03 0.0000000e+00 
9.1510391e+00 -9.9999615e+02 0.0000000e+00 
1.8981961e+00 2.1705416e-03 0.0000000e+00 
9.1510391e+00 9.9999835e+02 0.0000000e+00 
2.9154068e+01 1.9999863e+03 0.0000000e+00 
5.6916874e+01 2.9999639e+03 0.0000000e+00 
8.5042435e+01 3.9999351e+03 0.0000000e+00 
1.0510757e+02 4.9999111e+03 0.0000000e+00 
1.0959564e+02 5.9999053e+03 0.0000000e+00 
9.4381317e+01 6.9999233e+03 0.0000000e+00 
6.1767696e+01 7.9999575e+03 0.0000000e+00 
2.4075466e+01 8.9999883e+03 0.0000000e+00 
6.2466807e+00 9.4999990e+03 0.0000000e+00 
MOMENT 3 21  float
0.0000000e+00 0.0000000e+00 2.9522036e+03 
0.0000000e+00 0.0000000e+00 2.3946206e+03 
0.0000000e+00 0.0000000e+00 1.5446206e+03 
0.0000000e+00 0.0000000e+00 7.9462061e+02 
0.0000000e+00 0.0000000e+00 1.4462080e+02 
0.0000000e+00 0.0000000e+00 -4.0537900e+02 
0.0000000e+00 0.0000000e+00 -8.5537891e+02 
0.0000000e+00 0.0000000e+00 -1.2053789e+03 
0.0000000e+00 0.0000000e+00 -1.4553790e+03 
0.0000000e+00 0.0000000e+00 -1.6053792e+03 
0.0000000e+00 0.0000000e+00 -1.6553792e+03 
0.0000000e+00 0.0000000e+00 -1.6053792e+03 
0.0000000e+00 0.0000000e+00 -1.4553790e+03 
0.0000000e+00 0.0000000e+00 -1.2053789e+03 
0.0000000e+00 0.0000000e+00 -8.5537891e+02 
0.0000000e+00 0.0000000e+00 -4.0537900e+02 
0.0000000e+00 0.0000000e+00 1.4462080e+02 
0.0000000e+00 0.0000000e+00 7.9462061e+02 
0.0000000e+00 0.0000000e+00 1.5446206e+03 
0.0000000e+00 0.0000000e+00 2.3946206e+03 
0.0000000e+00 0.0000000e+00 2.9522036e+03 
CELL_DATA 20
FIELD FieldData 2
FORCE 3 20  float
6.2466807e+00 -9.4999990e+03 0.0000000e+00 
4.1904251e+01 -8.4999766e+03 0.0000000e+00 
8.1631142e+01 -7.4999385e+03 0.0000000e+00 
1.0713150e+02 -6.4999082e+03 0.0000000e+00 
1.1205978e+02 -5.4999023e+03 0.0000000e+00 
9.8155373e+01 -4.4999199e+03 0.0000000e+00 
7.1929497e+01 -3.4999502e+03 0.0000000e+00 
4.1904251e+01 -2.4999775e+03 0.0000000e+00 
1.6403881e+01 -1.4999950e+03 0.0000000e+00 
1.8981960e+00 -4.9999731e+02 0.0000000e+00 
1.8981961e+00 5.0000165e+02 0.0000000e+00 
1.6403881e+01 1.4999950e+03 0.0000000e+00 
4.1904251e+01 2.4999775e+03 0.0000000e+00 
7.1929497e+01 3.4999502e+03 0.0000000e+00 
9.8155373e+01 4.4999199e+03 0.0000000e+00 
1.1205978e+02 5.4999023e+03 0.0000000e+00 
1.0713150e+02 6.4999082e+03 0.0000000e+00 
8.1631142e+01 7.4999385e+03 0.0000000e+00 
4.1904251e+01 8.4999766e+03 0.0000000e+00 
6.2466807e+00 9.4999990e+03 0.0000000e+00 
MOMENT 3 20  float
0.0000000e+00 0.0000000e+00 2.8500000e+03 
0.0000000e+00 0.0000000e+00 1.9499999e+03 
0.0000000e+00 0.0000000e+00 1.1499999e+03 
0.0000000e+00 0.0000000e+00 4.4999997e+02 
0.0000000e+00 0.0000000e+00 -1.4999998e+02 
0.0000000e+00 0.0000000e+00 -6.4999994e+02 
0.0000000e+00 0.0000000e+00 -1.0499999e+03 
0.0000000e+00 0.0000000e+00 -1.3500000e+03 
0.0000000e+00 0.0000000e+00 -1.5500000e+03 
0.0000000e+00 0.0000000e+00 -1.6500000e+03 
0.0000000e+00 0.0000000e+00 -1.6500000e+03 
0.0000000e+00 0.0000000e+00 -1.5500000e+03 
0.0000000e+00 0.0000000e+00 -1.3500000e+03 
0.0000000e+00 0.0000000e+00 -1.0499999e+03 
0.0000000e+00 0.0000000e+00 -6.4999994e+02 
0.0000000e+00 0.0000000e+00 -1.4999998e+02 
0.0000000e+00 0.0000000e+00 4.4999997e+02 
0.0000000e+00 0.0000000e+00 1.1499999e+03 
0.0000000e+00 0.0000000e+00 1.9499999e+03 
0.0000000e+00 0.0000000e+00 2.8500000e+03 
