# vtk DataFile Version 4.0
vtk output
ASCII
DATASET UNSTRUCTURED_GRID
POINTS 32 float
0.0000000e+00 0.0000000e+00 0.0000000e+00 
0.0000000e+00 0.0000000e+00 1.5000000e+00 
0.0000000e+00 0.0000000e+00 3.0000000e+00 
0.0000000e+00 0.0000000e+00 4.5000000e+00 
0.0000000e+00 0.0000000e+00 6.0000000e+00 
0.0000000e+00 0.0000000e+00 7.5000000e+00 
0.0000000e+00 0.0000000e+00 9.0000000e+00 
0.0000000e+00 0.0000000e+00 1.0500000e+01 
0.0000000e+00 0.0000000e+00 1.2000000e+01 
0.0000000e+00 0.0000000e+00 1.3500000e+01 
0.0000000e+00 0.0000000e+00 1.5000000e+01 
0.0000000e+00 0.0000000e+00 1.6500000e+01 
0.0000000e+00 0.0000000e+00 1.8000000e+01 
3.0000000e+00 0.0000000e+00 3.0000000e+00 
3.0000000e+00 0.0000000e+00 6.0000000e+00 
3.0000000e+00 0.0000000e+00 9.0000000e+00 
3.0000000e+00 0.0000000e+00 1.2000000e+01 
3.0000000e+00 0.0000000e+00 1.5000000e+01 
3.0000000e+00 0.0000000e+00 1.8000000e+01 
6.0000000e+00 0.0000000e+00 0.0000000e+00 
6.0000000e+00 0.0000000e+00 1.5000000e+00 
6.0000000e+00 0.0000000e+00 3.0000000e+00 
6.0000000e+00 0.0000000e+00 4.5000000e+00 
6.0000000e+00 0.0000000e+00 6.0000000e+00 
6.0000000e+00 0.0000000e+00 7.5000000e+00 
6.0000000e+00 0.0000000e+00 9.0000000e+00 
6.0000000e+00 0.0000000e+00 1.0500000e+01 
6.0000000e+00 0.0000000e+00 1.2000000e+01 
6.0000000e+00 0.0000000e+00 1.3500000e+01 
6.0000000e+00 0.0000000e+00 1.5000000e+01 
6.0000000e+00 0.0000000e+00 1.6500000e+01 
6.0000000e+00 0.0000000e+00 1.8000000e+01 

CELLS 36 108
2 0 1
2 1 2
2 2 3
2 3 4
2 4 5
2 5 6
2 6 7
2 7 8
2 8 9
2 9 10
2 10 11
2 11 12
2 19 20
2 20 21
2 21 22
2 22 23
2 23 24
2 24 25
2 25 26
2 26 27
2 27 28
2 28 29
2 29 30
2 30 31
2 2 13
2 13 21
2 4 14
2 14 23
2 6 15
2 15 25
2 8 16
2 16 27
2 10 17
2 17 29
2 12 18
2 18 31

CELL_TYPES 36
3
3
3
3
3
3
3
3
3
3
3
3
3
3
3
3
3
3
3
3
3
3
3
3
3
3
3
3
3
3
3
3
3
3
3
3
POINT_DATA 32
FIELD FieldData 3
ADJOINT_DISPLACEMENT 3 32  float
0.0000000e+00 0.0000000e+00 0.0000000e+00 
-1.0211422e-03 0.0000000e+00 5.1075520e-16 
-2.2732809e-03 0.0000000e+00 1.0215104e-15 
-4.6462887e-03 0.0000000e+00 2.5572663e-07 
-7.9486025e-03 0.0000000e+00 5.1145327e-07 
-1.5129235e-02 0.0000000e+00 1.7901440e-06 
-3.4104627e-02 0.0000000e+00 3.0688348e-06 
-8.3107539e-02 0.0000000e+00 9.2068494e-06 
-1.5898906e-01 0.0000000e+00 1.5344864e-05 
-3.3049214e-01 0.0000000e+00 4.4757628e-05 
-7.5791174e-01 0.0000000e+00 7.4170392e-05 
-1.1944275e+00 0.0000000e+00 4.6292047e-05 
-1.3772271e+00 0.0000000e+00 1.8413699e-05 
-2.2723072e-03 0.0000000e+00 3.0848189e-04 
-7.9530757e-03 0.0000000e+00 -1.2413663e-03 
-3.4085374e-02 0.0000000e+00 5.3050816e-03 
-1.5907148e-01 0.0000000e+00 -2.2748431e-02 
-7.5789732e-01 0.0000000e+00 -6.5294445e-01 
-1.3771747e+00 0.0000000e+00 -3.8799424e-02 
0.0000000e+00 0.0000000e+00 0.0000000e+00 
-1.2511649e-03 0.0000000e+00 -5.1079422e-16 
-2.2713335e-03 0.0000000e+00 -1.0215884e-15 
-3.8748633e-03 0.0000000e+00 -2.5572663e-07 
-7.9575479e-03 0.0000000e+00 -5.1145327e-07 
-1.8387681e-02 0.0000000e+00 -1.7901440e-06 
-3.4066126e-02 0.0000000e+00 -3.0688348e-06 
-6.9143951e-02 0.0000000e+00 -9.2068494e-06 
-1.5915391e-01 0.0000000e+00 -1.5344864e-05 
-3.9046216e-01 0.0000000e+00 -4.4757628e-05 
-7.5788289e-01 0.0000000e+00 -7.4170392e-05 
-1.1264333e+00 0.0000000e+00 -4.6292047e-05 
-1.3771223e+00 0.0000000e+00 -1.8413699e-05 
ADJOINT_ROTATION 3 32  float
0.0000000e+00 -6.5509527e-04 0.0000000e+00 
0.0000000e+00 -7.3209405e-04 0.0000000e+00 
0.0000000e+00 -9.6309034e-04 0.0000000e+00 
0.0000000e+00 -2.0463471e-03 0.0000000e+00 
0.0000000e+00 -2.2021655e-03 0.0000000e+00 
0.0000000e+00 -8.0453428e-03 0.0000000e+00 
0.0000000e+00 -1.7928511e-02 0.0000000e+00 
0.0000000e+00 -4.4518422e-02 0.0000000e+00 
0.0000000e+00 -5.3766657e-02 0.0000000e+00 
0.0000000e+00 -1.8727250e-01 0.0000000e+00 
0.0000000e+00 -3.9498866e-01 0.0000000e+00 
0.0000000e+00 -1.9673544e-01 0.0000000e+00 
0.0000000e+00 -5.6700353e-02 0.0000000e+00 
0.0000000e+00 3.7871787e-04 0.0000000e+00 
0.0000000e+00 1.5151273e-03 0.0000000e+00 
0.0000000e+00 7.1974299e-03 0.0000000e+00 
0.0000000e+00 3.4473810e-02 0.0000000e+00 
0.0000000e+00 -8.4820442e-02 0.0000000e+00 
0.0000000e+00 4.1292522e-02 0.0000000e+00 
0.0000000e+00 -8.5977622e-04 0.0000000e+00 
0.0000000e+00 -7.8277744e-04 0.0000000e+00 
0.0000000e+00 -5.5178115e-04 0.0000000e+00 
0.0000000e+00 -1.7408316e-03 0.0000000e+00 
0.0000000e+00 -3.8573204e-03 0.0000000e+00 
0.0000000e+00 -9.3761915e-03 0.0000000e+00 
0.0000000e+00 -1.0855069e-02 0.0000000e+00 
0.0000000e+00 -3.8805649e-02 0.0000000e+00 
0.0000000e+00 -8.4097899e-02 0.0000000e+00 
0.0000000e+00 -2.1194473e-01 0.0000000e+00 
0.0000000e+00 -2.6558122e-01 0.0000000e+00 
0.0000000e+00 -2.1611615e-01 0.0000000e+00 
0.0000000e+00 -1.0843292e-01 0.0000000e+00 
SHAPE_SENSITIVITY 3 32  float
0.0000000e+00 0.0000000e+00 0.0000000e+00 
0.0000000e+00 0.0000000e+00 0.0000000e+00 
0.0000000e+00 0.0000000e+00 0.0000000e+00 
0.0000000e+00 0.0000000e+00 0.0000000e+00 
0.0000000e+00 0.0000000e+00 0.0000000e+00 
0.0000000e+00 0.0000000e+00 0.0000000e+00 
0.0000000e+00 0.0000000e+00 0.0000000e+00 
0.0000000e+00 0.0000000e+00 0.0000000e+00 
0.0000000e+00 0.0000000e+00 0.0000000e+00 
0.0000000e+00 0.0000000e+00 0.0000000e+00 
0.0000000e+00 0.0000000e+00 0.0000000e+00 
0.0000000e+00 0.0000000e+00 0.0000000e+00 
0.0000000e+00 0.0000000e+00 0.0000000e+00 
0.0000000e+00 0.0000000e+00 0.0000000e+00 
0.0000000e+00 0.0000000e+00 0.0000000e+00 
0.0000000e+00 0.0000000e+00 0.0000000e+00 
0.0000000e+00 0.0000000e+00 0.0000000e+00 
0.0000000e+00 0.0000000e+00 0.0000000e+00 
0.0000000e+00 0.0000000e+00 0.0000000e+00 
0.0000000e+00 0.0000000e+00 0.0000000e+00 
0.0000000e+00 0.0000000e+00 0.0000000e+00 
0.0000000e+00 0.0000000e+00 0.0000000e+00 
0.0000000e+00 0.0000000e+00 0.0000000e+00 
0.0000000e+00 0.0000000e+00 0.0000000e+00 
0.0000000e+00 0.0000000e+00 0.0000000e+00 
0.0000000e+00 0.0000000e+00 0.0000000e+00 
0.0000000e+00 0.0000000e+00 0.0000000e+00 
0.0000000e+00 0.0000000e+00 0.0000000e+00 
0.0000000e+00 0.0000000e+00 0.0000000e+00 
0.0000000e+00 0.0000000e+00 0.0000000e+00 
0.0000000e+00 0.0000000e+00 0.0000000e+00 
0.0000000e+00 0.0000000e+00 0.0000000e+00 
CELL_DATA 36
FIELD FieldData 1
I22_SENSITIVITY 1 36  float
2.8542781e+03
1.9979945e+04
-1.2751759e+05
-1.8959259e+03
-3.7940025e+05
8.2896650e+05
-2.3844065e+06
5.3902238e+05
-9.8074710e+06
1.3330899e+07
1.6325900e+07
-2.1683364e+07
2.8542781e+03
1.9979945e+04
1.1022941e+05
-1.8101459e+05
4.5810866e+05
-6.5059262e+04
2.0180748e+06
-4.0438685e+06
1.1086092e+07
-2.3533018e+06
-2.6207588e+06
1.8730468e+07
-4.8403762e+04
6.3642746e+04
-3.0272272e+05
2.6275181e+05
-1.1951698e+06
1.3835809e+06
-6.4337495e+06
5.5756685e+06
9.3409670e+06
-2.5293858e+07
-4.6547675e+06
1.4652490e+06
