# vtk DataFile Version 4.0
vtk output
ASCII
DATASET UNSTRUCTURED_GRID
POINTS 86 float
0.0000000e+00 0.0000000e+00 0.0000000e+00 
0.0000000e+00 0.0000000e+00 6.0000002e-01 
0.0000000e+00 0.0000000e+00 1.2000000e+00 
0.0000000e+00 0.0000000e+00 1.8000000e+00 
0.0000000e+00 0.0000000e+00 2.4000001e+00 
0.0000000e+00 0.0000000e+00 3.0000000e+00 
0.0000000e+00 0.0000000e+00 3.5999999e+00 
0.0000000e+00 0.0000000e+00 4.1999998e+00 
0.0000000e+00 0.0000000e+00 4.8000002e+00 
0.0000000e+00 0.0000000e+00 5.4000001e+00 
0.0000000e+00 0.0000000e+00 6.0000000e+00 
0.0000000e+00 0.0000000e+00 6.5999999e+00 
0.0000000e+00 0.0000000e+00 7.1999998e+00 
0.0000000e+00 0.0000000e+00 7.8000002e+00 
0.0000000e+00 0.0000000e+00 8.3999996e+00 
0.0000000e+00 0.0000000e+00 9.0000000e+00 
0.0000000e+00 0.0000000e+00 9.6000004e+00 
0.0000000e+00 0.0000000e+00 1.0200000e+01 
0.0000000e+00 0.0000000e+00 1.0800000e+01 
0.0000000e+00 0.0000000e+00 1.1400000e+01 
0.0000000e+00 0.0000000e+00 1.2000000e+01 
0.0000000e+00 0.0000000e+00 1.2600000e+01 
0.0000000e+00 0.0000000e+00 1.3200000e+01 
0.0000000e+00 0.0000000e+00 1.3800000e+01 
0.0000000e+00 0.0000000e+00 1.4400000e+01 
0.0000000e+00 0.0000000e+00 1.5000000e+01 
0.0000000e+00 0.0000000e+00 1.5600000e+01 
0.0000000e+00 0.0000000e+00 1.6200001e+01 
0.0000000e+00 0.0000000e+00 1.6799999e+01 
0.0000000e+00 0.0000000e+00 1.7400000e+01 
0.0000000e+00 0.0000000e+00 1.8000000e+01 
6.0000000e+00 0.0000000e+00 0.0000000e+00 
6.0000000e+00 0.0000000e+00 6.0000002e-01 
6.0000000e+00 0.0000000e+00 1.2000000e+00 
6.0000000e+00 0.0000000e+00 1.8000000e+00 
6.0000000e+00 0.0000000e+00 2.4000001e+00 
6.0000000e+00 0.0000000e+00 3.0000000e+00 
6.0000000e+00 0.0000000e+00 3.5999999e+00 
6.0000000e+00 0.0000000e+00 4.1999998e+00 
6.0000000e+00 0.0000000e+00 4.8000002e+00 
6.0000000e+00 0.0000000e+00 5.4000001e+00 
6.0000000e+00 0.0000000e+00 6.0000000e+00 
6.0000000e+00 0.0000000e+00 6.5999999e+00 
6.0000000e+00 0.0000000e+00 7.1999998e+00 
6.0000000e+00 0.0000000e+00 7.8000002e+00 
6.0000000e+00 0.0000000e+00 8.3999996e+00 
6.0000000e+00 0.0000000e+00 9.0000000e+00 
6.0000000e+00 0.0000000e+00 9.6000004e+00 
6.0000000e+00 0.0000000e+00 1.0200000e+01 
6.0000000e+00 0.0000000e+00 1.0800000e+01 
6.0000000e+00 0.0000000e+00 1.1400000e+01 
6.0000000e+00 0.0000000e+00 1.2000000e+01 
6.0000000e+00 0.0000000e+00 1.2600000e+01 
6.0000000e+00 0.0000000e+00 1.3200000e+01 
6.0000000e+00 0.0000000e+00 1.3800000e+01 
6.0000000e+00 0.0000000e+00 1.4400000e+01 
6.0000000e+00 0.0000000e+00 1.5000000e+01 
6.0000000e+00 0.0000000e+00 1.5600000e+01 
6.0000000e+00 0.0000000e+00 1.6200001e+01 
6.0000000e+00 0.0000000e+00 1.6799999e+01 
6.0000000e+00 0.0000000e+00 1.7400000e+01 
6.0000000e+00 0.0000000e+00 1.8000000e+01 
1.2000000e+00 0.0000000e+00 3.0000000e+00 
2.4000001e+00 0.0000000e+00 3.0000000e+00 
3.5999999e+00 0.0000000e+00 3.0000000e+00 
4.8000002e+00 0.0000000e+00 3.0000000e+00 
1.2000000e+00 0.0000000e+00 6.0000000e+00 
2.4000001e+00 0.0000000e+00 6.0000000e+00 
3.5999999e+00 0.0000000e+00 6.0000000e+00 
4.8000002e+00 0.0000000e+00 6.0000000e+00 
1.2000000e+00 0.0000000e+00 9.0000000e+00 
2.4000001e+00 0.0000000e+00 9.0000000e+00 
3.5999999e+00 0.0000000e+00 9.0000000e+00 
4.8000002e+00 0.0000000e+00 9.0000000e+00 
1.2000000e+00 0.0000000e+00 1.2000000e+01 
2.4000001e+00 0.0000000e+00 1.2000000e+01 
3.5999999e+00 0.0000000e+00 1.2000000e+01 
4.8000002e+00 0.0000000e+00 1.2000000e+01 
1.2000000e+00 0.0000000e+00 1.5000000e+01 
2.4000001e+00 0.0000000e+00 1.5000000e+01 
3.5999999e+00 0.0000000e+00 1.5000000e+01 
4.8000002e+00 0.0000000e+00 1.5000000e+01 
1.2000000e+00 0.0000000e+00 1.8000000e+01 
2.4000001e+00 0.0000000e+00 1.8000000e+01 
3.5999999e+00 0.0000000e+00 1.8000000e+01 
4.8000002e+00 0.0000000e+00 1.8000000e+01 

CELLS 90 270
2 0 1
2 1 2
2 2 3
2 3 4
2 4 5
2 5 6
2 6 7
2 7 8
2 8 9
2 9 10
2 10 11
2 11 12
2 12 13
2 13 14
2 14 15
2 15 16
2 16 17
2 17 18
2 18 19
2 19 20
2 20 21
2 21 22
2 22 23
2 23 24
2 24 25
2 25 26
2 26 27
2 27 28
2 28 29
2 29 30
2 31 32
2 32 33
2 33 34
2 34 35
2 35 36
2 36 37
2 37 38
2 38 39
2 39 40
2 40 41
2 41 42
2 42 43
2 43 44
2 44 45
2 45 46
2 46 47
2 47 48
2 48 49
2 49 50
2 50 51
2 51 52
2 52 53
2 53 54
2 54 55
2 55 56
2 56 57
2 57 58
2 58 59
2 59 60
2 60 61
2 5 62
2 62 63
2 63 64
2 64 65
2 65 36
2 10 66
2 66 67
2 67 68
2 68 69
2 69 41
2 15 70
2 70 71
2 71 72
2 72 73
2 73 46
2 20 74
2 74 75
2 75 76
2 76 77
2 77 51
2 25 78
2 78 79
2 79 80
2 80 81
2 81 56
2 30 82
2 82 83
2 83 84
2 84 85
2 85 61

CELL_TYPES 90
3
3
3
3
3
3
3
3
3
3
3
3
3
3
3
3
3
3
3
3
3
3
3
3
3
3
3
3
3
3
3
3
3
3
3
3
3
3
3
3
3
3
3
3
3
3
3
3
3
3
3
3
3
3
3
3
3
3
3
3
3
3
3
3
3
3
3
3
3
3
3
3
3
3
3
3
3
3
3
3
3
3
3
3
3
3
3
3
3
3
POINT_DATA 86
FIELD FieldData 7
DISPLACEMENT 3 86  float
0.0000000e+00 0.0000000e+00 0.0000000e+00 
6.1950780e-02 0.0000000e+00 3.1655999e-03 
1.2125652e-01 0.0000000e+00 6.3072001e-03 
1.7532974e-01 0.0000000e+00 9.4488002e-03 
2.2159743e-01 0.0000000e+00 1.2590400e-02 
2.5750092e-01 0.0000000e+00 1.5707999e-02 
2.8892988e-01 0.0000000e+00 1.7874423e-02 
3.2189205e-01 0.0000000e+00 2.0016845e-02 
3.5412115e-01 0.0000000e+00 2.2135269e-02 
3.8343734e-01 0.0000000e+00 2.4229690e-02 
4.0774703e-01 0.0000000e+00 2.6300114e-02 
4.3036813e-01 0.0000000e+00 2.7736282e-02 
4.5481184e-01 0.0000000e+00 2.9172450e-02 
4.7933966e-01 0.0000000e+00 3.0608619e-02 
5.0221300e-01 0.0000000e+00 3.2044787e-02 
5.2170783e-01 0.0000000e+00 3.3456955e-02 
5.4004335e-01 0.0000000e+00 3.4389388e-02 
5.5960059e-01 0.0000000e+00 3.5297822e-02 
5.7901299e-01 0.0000000e+00 3.6182255e-02 
5.9700060e-01 0.0000000e+00 3.7042689e-02 
6.1236966e-01 0.0000000e+00 3.7879121e-02 
6.2668598e-01 0.0000000e+00 3.8366280e-02 
6.4164239e-01 0.0000000e+00 3.8853440e-02 
6.5631485e-01 0.0000000e+00 3.9316602e-02 
6.6985148e-01 0.0000000e+00 3.9755762e-02 
6.8148667e-01 0.0000000e+00 4.0170923e-02 
6.9212317e-01 0.0000000e+00 4.0362239e-02 
7.0280820e-01 0.0000000e+00 4.0529557e-02 
7.1310776e-01 0.0000000e+00 4.0696878e-02 
7.2260237e-01 0.0000000e+00 4.0864196e-02 
7.3088682e-01 0.0000000e+00 4.1007511e-02 
0.0000000e+00 0.0000000e+00 0.0000000e+00 
6.1870571e-02 0.0000000e+00 -1.7016000e-03 
1.2113019e-01 0.0000000e+00 -3.4032001e-03 
1.7518231e-01 0.0000000e+00 -5.1287999e-03 
2.2148798e-01 0.0000000e+00 -6.8544000e-03 
2.5753704e-01 0.0000000e+00 -8.6040003e-03 
2.8906024e-01 0.0000000e+00 -9.4984230e-03 
3.2195818e-01 0.0000000e+00 -1.0416846e-02 
3.5409078e-01 0.0000000e+00 -1.1359269e-02 
3.8340428e-01 0.0000000e+00 -1.2325691e-02 
4.0791705e-01 0.0000000e+00 -1.3292114e-02 
4.3077418e-01 0.0000000e+00 -1.3744282e-02 
4.5524424e-01 0.0000000e+00 -1.4220450e-02 
4.7960976e-01 0.0000000e+00 -1.4720618e-02 
5.0223970e-01 0.0000000e+00 -1.5244786e-02 
5.2158934e-01 0.0000000e+00 -1.5792955e-02 
5.3979778e-01 0.0000000e+00 -1.5981387e-02 
5.5917382e-01 0.0000000e+00 -1.6169820e-02 
5.7849181e-01 0.0000000e+00 -1.6358254e-02 
5.9654063e-01 0.0000000e+00 -1.6570687e-02 
6.1216676e-01 0.0000000e+00 -1.6783120e-02 
6.2669295e-01 0.0000000e+00 -1.6766282e-02 
6.4163172e-01 0.0000000e+00 -1.6773442e-02 
6.5619338e-01 0.0000000e+00 -1.6804602e-02 
6.6966039e-01 0.0000000e+00 -1.6835762e-02 
6.8134385e-01 0.0000000e+00 -1.6890923e-02 
6.9199419e-01 0.0000000e+00 -1.6842240e-02 
7.0256293e-01 0.0000000e+00 -1.6817559e-02 
7.1276414e-01 0.0000000e+00 -1.6792877e-02 
7.2234040e-01 0.0000000e+00 -1.6792195e-02 
7.3109221e-01 0.0000000e+00 -1.6791513e-02 
2.5757536e-01 0.0000000e+00 -1.5154757e-02 
2.5760177e-01 0.0000000e+00 -6.3491911e-03 
2.5762820e-01 0.0000000e+00 1.5306793e-02 
2.5760663e-01 0.0000000e+00 2.3225691e-02 
4.0784824e-01 0.0000000e+00 2.2884957e-03 
4.0790144e-01 0.0000000e+00 3.1730416e-03 
4.0795463e-01 0.0000000e+00 1.1954415e-02 
4.0795985e-01 0.0000000e+00 1.1863675e-02 
5.2177054e-01 0.0000000e+00 1.2184697e-02 
5.2178520e-01 0.0000000e+00 8.7234536e-03 
5.2175194e-01 0.0000000e+00 1.0639268e-02 
5.2167064e-01 0.0000000e+00 6.1893840e-03 
6.1241543e-01 0.0000000e+00 1.9588079e-02 
6.1241329e-01 0.0000000e+00 1.3318922e-02 
6.1236310e-01 0.0000000e+00 1.0394983e-02 
6.1226493e-01 0.0000000e+00 2.8307915e-03 
6.8153489e-01 0.0000000e+00 2.4580140e-02 
6.8153512e-01 0.0000000e+00 1.5889373e-02 
6.8148738e-01 0.0000000e+00 9.0343738e-03 
6.8143964e-01 0.0000000e+00 -4.7310768e-04 
7.3102391e-01 0.0000000e+00 2.8427832e-02 
7.3111296e-01 0.0000000e+00 1.8757652e-02 
7.3115402e-01 0.0000000e+00 9.2518115e-03 
7.3114711e-01 0.0000000e+00 -2.1436559e-03 
ROTATION 3 86  float
0.0000000e+00 1.0399004e-01 0.0000000e+00 
0.0000000e+00 1.0177383e-01 0.0000000e+00 
0.0000000e+00 9.5197208e-02 0.0000000e+00 
0.0000000e+00 8.4332168e-02 0.0000000e+00 
0.0000000e+00 6.9178715e-02 0.0000000e+00 
0.0000000e+00 4.9808849e-02 0.0000000e+00 
0.0000000e+00 5.4300796e-02 0.0000000e+00 
0.0000000e+00 5.4943595e-02 0.0000000e+00 
0.0000000e+00 5.1881250e-02 0.0000000e+00 
0.0000000e+00 4.5257758e-02 0.0000000e+00 
0.0000000e+00 3.5217121e-02 0.0000000e+00 
0.0000000e+00 3.9703596e-02 0.0000000e+00 
0.0000000e+00 4.1292526e-02 0.0000000e+00 
0.0000000e+00 3.9983902e-02 0.0000000e+00 
0.0000000e+00 3.5777733e-02 0.0000000e+00 
0.0000000e+00 2.8746013e-02 0.0000000e+00 
0.0000000e+00 3.1968866e-02 0.0000000e+00 
0.0000000e+00 3.2842278e-02 0.0000000e+00 
0.0000000e+00 3.1510241e-02 0.0000000e+00 
0.0000000e+00 2.8116765e-02 0.0000000e+00 
0.0000000e+00 2.2805840e-02 0.0000000e+00 
0.0000000e+00 2.4654610e-02 0.0000000e+00 
0.0000000e+00 2.4939418e-02 0.0000000e+00 
0.0000000e+00 2.3732262e-02 0.0000000e+00 
0.0000000e+00 2.1177143e-02 0.0000000e+00 
0.0000000e+00 1.7418062e-02 0.0000000e+00 
0.0000000e+00 1.7896494e-02 0.0000000e+00 
0.0000000e+00 1.7603694e-02 0.0000000e+00 
0.0000000e+00 1.6611662e-02 0.0000000e+00 
0.0000000e+00 1.4920400e-02 0.0000000e+00 
0.0000000e+00 1.2601905e-02 0.0000000e+00 
0.0000000e+00 1.0384288e-01 0.0000000e+00 
0.0000000e+00 1.0166709e-01 0.0000000e+00 
0.0000000e+00 9.5139712e-02 0.0000000e+00 
0.0000000e+00 8.4332749e-02 0.0000000e+00 
0.0000000e+00 6.9318205e-02 0.0000000e+00 
0.0000000e+00 5.0168071e-02 0.0000000e+00 
0.0000000e+00 5.4290760e-02 0.0000000e+00 
0.0000000e+00 5.4774594e-02 0.0000000e+00 
0.0000000e+00 5.1763572e-02 0.0000000e+00 
0.0000000e+00 4.5401696e-02 0.0000000e+00 
0.0000000e+00 3.5760965e-02 0.0000000e+00 
0.0000000e+00 3.9928414e-02 0.0000000e+00 
0.0000000e+00 4.1161407e-02 0.0000000e+00 
0.0000000e+00 3.9603949e-02 0.0000000e+00 
0.0000000e+00 3.5400040e-02 0.0000000e+00 
0.0000000e+00 2.8693682e-02 0.0000000e+00 
0.0000000e+00 3.1660821e-02 0.0000000e+00 
0.0000000e+00 3.2585405e-02 0.0000000e+00 
0.0000000e+00 3.1467438e-02 0.0000000e+00 
0.0000000e+00 2.8378911e-02 0.0000000e+00 
0.0000000e+00 2.3391830e-02 0.0000000e+00 
0.0000000e+00 2.4785448e-02 0.0000000e+00 
0.0000000e+00 2.4791030e-02 0.0000000e+00 
0.0000000e+00 2.3552574e-02 0.0000000e+00 
0.0000000e+00 2.1142082e-02 0.0000000e+00 
0.0000000e+00 1.7631553e-02 0.0000000e+00 
0.0000000e+00 1.7770030e-02 0.0000000e+00 
0.0000000e+00 1.7383739e-02 0.0000000e+00 
0.0000000e+00 1.6544679e-02 0.0000000e+00 
0.0000000e+00 1.5324851e-02 0.0000000e+00 
0.0000000e+00 1.3796255e-02 0.0000000e+00 
0.0000000e+00 5.4337876e-03 0.0000000e+00 
0.0000000e+00 -1.6401021e-02 0.0000000e+00 
0.0000000e+00 -1.5983576e-02 0.0000000e+00 
0.0000000e+00 6.3981214e-03 0.0000000e+00 
0.0000000e+00 7.2432607e-03 0.0000000e+00 
0.0000000e+00 -6.3724853e-03 0.0000000e+00 
0.0000000e+00 -5.9181163e-03 0.0000000e+00 
0.0000000e+00 8.3183674e-03 0.0000000e+00 
0.0000000e+00 8.5306866e-03 0.0000000e+00 
0.0000000e+00 -1.0350095e-03 0.0000000e+00 
0.0000000e+00 -5.2707584e-04 0.0000000e+00 
0.0000000e+00 9.4784871e-03 0.0000000e+00 
0.0000000e+00 8.9803236e-03 0.0000000e+00 
0.0000000e+00 2.6733638e-03 0.0000000e+00 
0.0000000e+00 3.3089616e-03 0.0000000e+00 
0.0000000e+00 1.0311117e-02 0.0000000e+00 
0.0000000e+00 9.3659442e-03 0.0000000e+00 
0.0000000e+00 5.8220341e-03 0.0000000e+00 
0.0000000e+00 6.2103323e-03 0.0000000e+00 
0.0000000e+00 1.0242838e-02 0.0000000e+00 
0.0000000e+00 8.8415025e-03 0.0000000e+00 
0.0000000e+00 7.6567358e-03 0.0000000e+00 
0.0000000e+00 8.4716063e-03 0.0000000e+00 
0.0000000e+00 1.0710113e-02 0.0000000e+00 
REACTION 3 86  float
-3.0780661e+01 -0.0000000e+00 -1.3189999e+02 
-4.5474735e-13 -0.0000000e+00 -0.0000000e+00 
-3.1832315e-12 -0.0000000e+00 -0.0000000e+00 
-7.2759576e-12 -0.0000000e+00 -5.6843419e-14 
-5.0022209e-12 -0.0000000e+00 -1.7053026e-13 
1.8644641e-11 -0.0000000e+00 1.8971491e-12 
-2.2282620e-11 -0.0000000e+00 3.4106051e-13 
-4.5474735e-13 -0.0000000e+00 -0.0000000e+00 
1.5461410e-11 -0.0000000e+00 2.2737368e-13 
-7.2759576e-12 -0.0000000e+00 1.1368684e-13 
1.5916157e-12 -0.0000000e+00 -2.3234747e-12 
-5.0022209e-12 -0.0000000e+00 2.5011104e-12 
6.8894224e-11 -0.0000000e+00 -0.0000000e+00 
-2.4328983e-11 -0.0000000e+00 -0.0000000e+00 
-1.5234036e-11 -0.0000000e+00 2.2737368e-13 
1.9554136e-11 -0.0000000e+00 1.2789769e-13 
9.5496944e-12 -0.0000000e+00 -4.5474735e-13 
-1.7280399e-11 -0.0000000e+00 2.2737368e-13 
-4.6384230e-11 -0.0000000e+00 6.8212103e-13 
-3.9790393e-12 -0.0000000e+00 -2.2737368e-13 
-7.3896445e-12 -0.0000000e+00 1.0814460e-11 
7.9580786e-12 -0.0000000e+00 2.2737368e-13 
-1.5347723e-11 -0.0000000e+00 2.2737368e-13 
-5.3432814e-12 -0.0000000e+00 6.8212103e-13 
2.2168933e-11 -0.0000000e+00 -2.2737368e-13 
1.0459189e-11 -0.0000000e+00 6.4943606e-12 
-2.5465852e-11 -0.0000000e+00 1.3642421e-12 
-1.8985702e-11 -0.0000000e+00 4.5474735e-13 
1.5461410e-11 -0.0000000e+00 -4.5474735e-13 
-4.8885340e-11 -0.0000000e+00 -2.2737368e-13 
1.2505552e-11 -0.0000000e+00 -2.8421709e-13 
-3.0219339e+01 -0.0000000e+00 7.0900002e+01 
-1.3642421e-12 -0.0000000e+00 2.8421709e-14 
-3.1832315e-12 -0.0000000e+00 -2.8421709e-14 
-7.2759576e-12 -0.0000000e+00 -2.8421709e-14 
-7.2759576e-12 -0.0000000e+00 2.8421709e-13 
1.6370905e-11 -0.0000000e+00 -5.6843419e-14 
-2.9103830e-11 -0.0000000e+00 -0.0000000e+00 
-8.1854523e-12 -0.0000000e+00 -5.6843419e-14 
6.1390892e-12 -0.0000000e+00 -5.6843419e-14 
-1.2278178e-11 -0.0000000e+00 -2.2737368e-13 
-1.0004442e-11 -0.0000000e+00 5.6843419e-14 
6.5938366e-12 -0.0000000e+00 -1.1368684e-13 
1.8189894e-11 -0.0000000e+00 -0.0000000e+00 
-1.0459189e-11 -0.0000000e+00 -3.4106051e-13 
3.5697667e-11 -0.0000000e+00 -1.1368684e-13 
1.9781510e-11 -0.0000000e+00 1.7053026e-13 
1.4779289e-11 -0.0000000e+00 1.1368684e-13 
-2.2737368e-11 -0.0000000e+00 -0.0000000e+00 
-6.2300387e-11 -0.0000000e+00 -1.1368684e-13 
-2.5011104e-12 -0.0000000e+00 -2.2737368e-13 
6.1390892e-11 -0.0000000e+00 -1.1368684e-13 
6.5938366e-12 -0.0000000e+00 1.1346479e-13 
-2.3987923e-11 -0.0000000e+00 -1.1390888e-13 
3.2969183e-12 -0.0000000e+00 -2.2737368e-13 
-4.9794835e-11 -0.0000000e+00 -0.0000000e+00 
2.0691004e-11 -0.0000000e+00 -2.8421709e-14 
-9.7770680e-12 -0.0000000e+00 -1.1390888e-13 
-4.0699888e-11 -0.0000000e+00 -1.1368684e-13 
-7.7307050e-12 -0.0000000e+00 -2.2204460e-16 
-1.6257218e-11 -0.0000000e+00 2.2737368e-13 
-1.1390888e-13 -0.0000000e+00 -2.8643754e-14 
-1.8192114e-12 -0.0000000e+00 -1.5845103e-12 
-1.8189894e-12 -0.0000000e+00 1.4210855e-13 
-3.6382009e-12 -0.0000000e+00 1.4210855e-14 
9.0927266e-13 -0.0000000e+00 -1.2789769e-13 
-1.8192114e-12 -0.0000000e+00 -2.3447910e-13 
-0.0000000e+00 -0.0000000e+00 2.1671553e-12 
-1.8192114e-12 -0.0000000e+00 -4.9737992e-14 
-2.2204460e-16 -0.0000000e+00 7.2475359e-13 
-3.6382009e-12 -0.0000000e+00 -1.5702994e-12 
-2.2204460e-16 -0.0000000e+00 6.2527761e-13 
-1.8192114e-12 -0.0000000e+00 -3.6237680e-13 
-1.8189894e-12 -0.0000000e+00 -2.4158453e-13 
-9.0951691e-12 -0.0000000e+00 -1.0032863e-11 
3.6377568e-12 -0.0000000e+00 1.4850343e-12 
-7.2759576e-12 -0.0000000e+00 3.1974423e-13 
-0.0000000e+00 -0.0000000e+00 -2.1316282e-12 
-1.8192114e-12 -0.0000000e+00 -5.4214411e-12 
-3.6382009e-12 -0.0000000e+00 -2.0605739e-13 
1.8189894e-12 -0.0000000e+00 5.6843419e-13 
-2.2204460e-16 -0.0000000e+00 4.1211479e-13 
-2.2204460e-16 -0.0000000e+00 -1.4210855e-14 
-3.6382009e-12 -0.0000000e+00 -7.1054274e-14 
-2.2204460e-16 -0.0000000e+00 -9.9698028e-14 
-1.8192114e-12 -0.0000000e+00 4.2410520e-14 
REACTION_MOMENT 3 86  float
-0.0000000e+00 2.6147973e-12 -0.0000000e+00 
-0.0000000e+00 -4.3200998e-12 -0.0000000e+00 
-0.0000000e+00 -6.8212103e-13 -0.0000000e+00 
-0.0000000e+00 3.4106051e-13 -0.0000000e+00 
-0.0000000e+00 -1.1368684e-12 -0.0000000e+00 
-0.0000000e+00 2.7569058e-12 -0.0000000e+00 
-0.0000000e+00 3.4106051e-13 -0.0000000e+00 
-0.0000000e+00 -5.6843419e-13 -0.0000000e+00 
-0.0000000e+00 1.2960300e-11 -0.0000000e+00 
-0.0000000e+00 3.0695446e-12 -0.0000000e+00 
-0.0000000e+00 -7.8443918e-12 -0.0000000e+00 
-0.0000000e+00 9.6633812e-13 -0.0000000e+00 
-0.0000000e+00 2.4215296e-11 -0.0000000e+00 
-0.0000000e+00 1.9326762e-11 -0.0000000e+00 
-0.0000000e+00 -8.1854523e-12 -0.0000000e+00 
-0.0000000e+00 1.0984991e-11 -0.0000000e+00 
-0.0000000e+00 -8.5265128e-13 -0.0000000e+00 
-0.0000000e+00 1.4097168e-11 -0.0000000e+00 
-0.0000000e+00 4.6043169e-12 -0.0000000e+00 
-0.0000000e+00 -1.1198154e-11 -0.0000000e+00 
-0.0000000e+00 -1.2192913e-11 -0.0000000e+00 
-0.0000000e+00 -1.9497293e-11 -0.0000000e+00 
-0.0000000e+00 -5.7127636e-12 -0.0000000e+00 
-0.0000000e+00 8.8391516e-12 -0.0000000e+00 
-0.0000000e+00 1.2875034e-11 -0.0000000e+00 
-0.0000000e+00 -9.5923269e-13 -0.0000000e+00 
-0.0000000e+00 9.1233687e-12 -0.0000000e+00 
-0.0000000e+00 1.0118129e-11 -0.0000000e+00 
-0.0000000e+00 4.2348347e-12 -0.0000000e+00 
-0.0000000e+00 -9.0949470e-13 -0.0000000e+00 
-0.0000000e+00 5.3717031e-12 -0.0000000e+00 
-0.0000000e+00 -4.5474735e-13 -0.0000000e+00 
-0.0000000e+00 1.1368684e-13 -0.0000000e+00 
-0.0000000e+00 1.9326762e-12 -0.0000000e+00 
-0.0000000e+00 6.8212103e-12 -0.0000000e+00 
-0.0000000e+00 -2.0463631e-12 -0.0000000e+00 
-0.0000000e+00 1.0572876e-11 -0.0000000e+00 
-0.0000000e+00 2.9103830e-11 -0.0000000e+00 
-0.0000000e+00 -4.4906301e-12 -0.0000000e+00 
-0.0000000e+00 -9.6633812e-12 -0.0000000e+00 
-0.0000000e+00 -1.3642421e-12 -0.0000000e+00 
-0.0000000e+00 9.8907549e-12 -0.0000000e+00 
-0.0000000e+00 2.3305802e-12 -0.0000000e+00 
-0.0000000e+00 -6.8780537e-12 -0.0000000e+00 
-0.0000000e+00 3.9904080e-11 -0.0000000e+00 
-0.0000000e+00 1.9895197e-12 -0.0000000e+00 
-0.0000000e+00 -6.9348971e-12 -0.0000000e+00 
-0.0000000e+00 1.0459189e-11 -0.0000000e+00 
-0.0000000e+00 -1.2505552e-12 -0.0000000e+00 
-0.0000000e+00 -9.5212727e-12 -0.0000000e+00 
-0.0000000e+00 -2.7796432e-11 -0.0000000e+00 
-0.0000000e+00 -9.0949470e-13 -0.0000000e+00 
-0.0000000e+00 1.3926638e-12 -0.0000000e+00 
-0.0000000e+00 -5.2295945e-12 -0.0000000e+00 
-0.0000000e+00 -1.6456170e-11 -0.0000000e+00 
-0.0000000e+00 -8.5265128e-14 -0.0000000e+00 
-0.0000000e+00 -1.7422508e-11 -0.0000000e+00 
-0.0000000e+00 5.0874860e-12 -0.0000000e+00 
-0.0000000e+00 -1.8218316e-11 -0.0000000e+00 
-0.0000000e+00 -1.8047785e-12 -0.0000000e+00 
-0.0000000e+00 -1.6981971e-11 -0.0000000e+00 
-0.0000000e+00 2.3590019e-12 -0.0000000e+00 
-0.0000000e+00 -1.7053026e-13 -0.0000000e+00 
-0.0000000e+00 -9.9475983e-14 -0.0000000e+00 
-0.0000000e+00 -1.1013412e-13 -0.0000000e+00 
-0.0000000e+00 -2.8421709e-14 -0.0000000e+00 
-0.0000000e+00 -1.7763568e-13 -0.0000000e+00 
-0.0000000e+00 3.8724579e-13 -0.0000000e+00 
-0.0000000e+00 -5.6843419e-14 -0.0000000e+00 
-0.0000000e+00 -9.9475983e-14 -0.0000000e+00 
-0.0000000e+00 -1.6839863e-12 -0.0000000e+00 
-0.0000000e+00 2.3092639e-14 -0.0000000e+00 
-0.0000000e+00 -4.5474735e-13 -0.0000000e+00 
-0.0000000e+00 -2.8421709e-14 -0.0000000e+00 
-0.0000000e+00 -3.4034997e-12 -0.0000000e+00 
-0.0000000e+00 9.5035091e-13 -0.0000000e+00 
-0.0000000e+00 -1.2434498e-13 -0.0000000e+00 
-0.0000000e+00 -1.7053026e-13 -0.0000000e+00 
-0.0000000e+00 -1.1937118e-12 -0.0000000e+00 
-0.0000000e+00 -2.5224267e-13 -0.0000000e+00 
-0.0000000e+00 5.9685590e-13 -0.0000000e+00 
-0.0000000e+00 -1.5631940e-13 -0.0000000e+00 
-0.0000000e+00 2.8421709e-14 -0.0000000e+00 
-0.0000000e+00 -2.1316282e-14 -0.0000000e+00 
-0.0000000e+00 -0.0000000e+00 -0.0000000e+00 
-0.0000000e+00 -2.1316282e-14 -0.0000000e+00 
VOLUME_ACCELERATION 3 86  float
0.0000000e+00 0.0000000e+00 0.0000000e+00 
0.0000000e+00 0.0000000e+00 0.0000000e+00 
0.0000000e+00 0.0000000e+00 0.0000000e+00 
0.0000000e+00 0.0000000e+00 0.0000000e+00 
0.0000000e+00 0.0000000e+00 0.0000000e+00 
0.0000000e+00 0.0000000e+00 0.0000000e+00 
0.0000000e+00 0.0000000e+00 0.0000000e+00 
0.0000000e+00 0.0000000e+00 0.0000000e+00 
0.0000000e+00 0.0000000e+00 0.0000000e+00 
0.0000000e+00 0.0000000e+00 0.0000000e+00 
0.0000000e+00 0.0000000e+00 0.0000000e+00 
0.0000000e+00 0.0000000e+00 0.0000000e+00 
0.0000000e+00 0.0000000e+00 0.0000000e+00 
0.0000000e+00 0.0000000e+00 0.0000000e+00 
0.0000000e+00 0.0000000e+00 0.0000000e+00 
0.0000000e+00 0.0000000e+00 0.0000000e+00 
0.0000000e+00 0.0000000e+00 0.0000000e+00 
0.0000000e+00 0.0000000e+00 0.0000000e+00 
0.0000000e+00 0.0000000e+00 0.0000000e+00 
0.0000000e+00 0.0000000e+00 0.0000000e+00 
0.0000000e+00 0.0000000e+00 0.0000000e+00 
0.0000000e+00 0.0000000e+00 0.0000000e+00 
0.0000000e+00 0.0000000e+00 0.0000000e+00 
0.0000000e+00 0.0000000e+00 0.0000000e+00 
0.0000000e+00 0.0000000e+00 0.0000000e+00 
0.0000000e+00 0.0000000e+00 0.0000000e+00 
0.0000000e+00 0.0000000e+00 0.0000000e+00 
0.0000000e+00 0.0000000e+00 0.0000000e+00 
0.0000000e+00 0.0000000e+00 0.0000000e+00 
0.0000000e+00 0.0000000e+00 0.0000000e+00 
0.0000000e+00 0.0000000e+00 0.0000000e+00 
0.0000000e+00 0.0000000e+00 0.0000000e+00 
0.0000000e+00 0.0000000e+00 0.0000000e+00 
0.0000000e+00 0.0000000e+00 0.0000000e+00 
0.0000000e+00 0.0000000e+00 0.0000000e+00 
0.0000000e+00 0.0000000e+00 0.0000000e+00 
0.0000000e+00 0.0000000e+00 0.0000000e+00 
0.0000000e+00 0.0000000e+00 0.0000000e+00 
0.0000000e+00 0.0000000e+00 0.0000000e+00 
0.0000000e+00 0.0000000e+00 0.0000000e+00 
0.0000000e+00 0.0000000e+00 0.0000000e+00 
0.0000000e+00 0.0000000e+00 0.0000000e+00 
0.0000000e+00 0.0000000e+00 0.0000000e+00 
0.0000000e+00 0.0000000e+00 0.0000000e+00 
0.0000000e+00 0.0000000e+00 0.0000000e+00 
0.0000000e+00 0.0000000e+00 0.0000000e+00 
0.0000000e+00 0.0000000e+00 0.0000000e+00 
0.0000000e+00 0.0000000e+00 0.0000000e+00 
0.0000000e+00 0.0000000e+00 0.0000000e+00 
0.0000000e+00 0.0000000e+00 0.0000000e+00 
0.0000000e+00 0.0000000e+00 0.0000000e+00 
0.0000000e+00 0.0000000e+00 0.0000000e+00 
0.0000000e+00 0.0000000e+00 0.0000000e+00 
0.0000000e+00 0.0000000e+00 0.0000000e+00 
0.0000000e+00 0.0000000e+00 0.0000000e+00 
0.0000000e+00 0.0000000e+00 0.0000000e+00 
0.0000000e+00 0.0000000e+00 0.0000000e+00 
0.0000000e+00 0.0000000e+00 0.0000000e+00 
0.0000000e+00 0.0000000e+00 0.0000000e+00 
0.0000000e+00 0.0000000e+00 0.0000000e+00 
0.0000000e+00 0.0000000e+00 0.0000000e+00 
0.0000000e+00 0.0000000e+00 0.0000000e+00 
0.0000000e+00 0.0000000e+00 0.0000000e+00 
0.0000000e+00 0.0000000e+00 0.0000000e+00 
0.0000000e+00 0.0000000e+00 0.0000000e+00 
0.0000000e+00 0.0000000e+00 0.0000000e+00 
0.0000000e+00 0.0000000e+00 0.0000000e+00 
0.0000000e+00 0.0000000e+00 0.0000000e+00 
0.0000000e+00 0.0000000e+00 0.0000000e+00 
0.0000000e+00 0.0000000e+00 0.0000000e+00 
0.0000000e+00 0.0000000e+00 0.0000000e+00 
0.0000000e+00 0.0000000e+00 0.0000000e+00 
0.0000000e+00 0.0000000e+00 0.0000000e+00 
0.0000000e+00 0.0000000e+00 0.0000000e+00 
0.0000000e+00 0.0000000e+00 0.0000000e+00 
0.0000000e+00 0.0000000e+00 0.0000000e+00 
0.0000000e+00 0.0000000e+00 0.0000000e+00 
0.0000000e+00 0.0000000e+00 0.0000000e+00 
0.0000000e+00 0.0000000e+00 0.0000000e+00 
0.0000000e+00 0.0000000e+00 0.0000000e+00 
0.0000000e+00 0.0000000e+00 0.0000000e+00 
0.0000000e+00 0.0000000e+00 0.0000000e+00 
0.0000000e+00 0.0000000e+00 0.0000000e+00 
0.0000000e+00 0.0000000e+00 0.0000000e+00 
0.0000000e+00 0.0000000e+00 0.0000000e+00 
0.0000000e+00 0.0000000e+00 0.0000000e+00 
POINT_LOAD 3 86  float
0.0000000e+00 0.0000000e+00 0.0000000e+00 
1.0000000e+00 0.0000000e+00 1.0000000e+00 
0.0000000e+00 0.0000000e+00 0.0000000e+00 
0.0000000e+00 0.0000000e+00 0.0000000e+00 
1.0000000e+00 0.0000000e+00 1.0000000e+00 
0.0000000e+00 0.0000000e+00 0.0000000e+00 
1.0000000e+00 0.0000000e+00 1.0000000e+00 
1.0000000e+00 0.0000000e+00 1.0000000e+00 
1.0000000e+00 0.0000000e+00 1.0000000e+00 
1.0000000e+00 0.0000000e+00 1.0000000e+00 
1.0000000e+00 0.0000000e+00 1.0000000e+00 
0.0000000e+00 0.0000000e+00 0.0000000e+00 
0.0000000e+00 0.0000000e+00 0.0000000e+00 
0.0000000e+00 0.0000000e+00 0.0000000e+00 
1.0000000e+00 0.0000000e+00 1.0000000e+00 
1.0000000e+00 0.0000000e+00 1.0000000e+00 
1.0000000e+00 0.0000000e+00 1.0000000e+00 
1.0000000e+00 0.0000000e+00 1.0000000e+00 
1.0000000e+00 0.0000000e+00 1.0000000e+00 
1.0000000e+00 0.0000000e+00 1.0000000e+00 
1.0000000e+00 0.0000000e+00 1.0000000e+00 
0.0000000e+00 0.0000000e+00 0.0000000e+00 
1.0000000e+00 0.0000000e+00 1.0000000e+00 
1.0000000e+00 0.0000000e+00 1.0000000e+00 
1.0000000e+00 0.0000000e+00 1.0000000e+00 
1.0000000e+00 0.0000000e+00 1.0000000e+00 
1.0000000e+00 0.0000000e+00 1.0000000e+00 
0.0000000e+00 0.0000000e+00 0.0000000e+00 
0.0000000e+00 0.0000000e+00 0.0000000e+00 
1.0000000e+00 0.0000000e+00 1.0000000e+00 
1.0000000e+00 0.0000000e+00 1.0000000e+00 
0.0000000e+00 0.0000000e+00 0.0000000e+00 
0.0000000e+00 0.0000000e+00 0.0000000e+00 
1.0000000e+00 0.0000000e+00 1.0000000e+00 
0.0000000e+00 0.0000000e+00 0.0000000e+00 
1.0000000e+00 0.0000000e+00 1.0000000e+00 
1.0000000e+00 0.0000000e+00 1.0000000e+00 
1.0000000e+00 0.0000000e+00 1.0000000e+00 
1.0000000e+00 0.0000000e+00 1.0000000e+00 
1.0000000e+00 0.0000000e+00 1.0000000e+00 
0.0000000e+00 0.0000000e+00 0.0000000e+00 
1.0000000e+00 0.0000000e+00 1.0000000e+00 
1.0000000e+00 0.0000000e+00 1.0000000e+00 
1.0000000e+00 0.0000000e+00 1.0000000e+00 
1.0000000e+00 0.0000000e+00 1.0000000e+00 
1.0000000e+00 0.0000000e+00 1.0000000e+00 
1.0000000e+00 0.0000000e+00 1.0000000e+00 
0.0000000e+00 0.0000000e+00 0.0000000e+00 
0.0000000e+00 0.0000000e+00 0.0000000e+00 
1.0000000e+00 0.0000000e+00 1.0000000e+00 
0.0000000e+00 0.0000000e+00 0.0000000e+00 
1.0000000e+00 0.0000000e+00 1.0000000e+00 
1.0000000e+00 0.0000000e+00 1.0000000e+00 
1.0000000e+00 0.0000000e+00 1.0000000e+00 
0.0000000e+00 0.0000000e+00 0.0000000e+00 
1.0000000e+00 0.0000000e+00 1.0000000e+00 
1.0000000e+00 0.0000000e+00 1.0000000e+00 
1.0000000e+00 0.0000000e+00 1.0000000e+00 
0.0000000e+00 0.0000000e+00 0.0000000e+00 
1.0000000e+00 0.0000000e+00 1.0000000e+00 
0.0000000e+00 0.0000000e+00 0.0000000e+00 
1.0000000e+00 0.0000000e+00 1.0000000e+00 
1.0000000e+00 0.0000000e+00 1.0000000e+00 
0.0000000e+00 0.0000000e+00 0.0000000e+00 
1.0000000e+00 0.0000000e+00 1.0000000e+00 
1.0000000e+00 0.0000000e+00 1.0000000e+00 
1.0000000e+00 0.0000000e+00 1.0000000e+00 
0.0000000e+00 0.0000000e+00 0.0000000e+00 
1.0000000e+00 0.0000000e+00 1.0000000e+00 
1.0000000e+00 0.0000000e+00 1.0000000e+00 
1.0000000e+00 0.0000000e+00 1.0000000e+00 
1.0000000e+00 0.0000000e+00 1.0000000e+00 
1.0000000e+00 0.0000000e+00 1.0000000e+00 
0.0000000e+00 0.0000000e+00 0.0000000e+00 
1.0000000e+00 0.0000000e+00 1.0000000e+00 
1.0000000e+00 0.0000000e+00 1.0000000e+00 
1.0000000e+00 0.0000000e+00 1.0000000e+00 
0.0000000e+00 0.0000000e+00 0.0000000e+00 
1.0000000e+00 0.0000000e+00 1.0000000e+00 
1.0000000e+00 0.0000000e+00 1.0000000e+00 
0.0000000e+00 0.0000000e+00 0.0000000e+00 
1.0000000e+00 0.0000000e+00 1.0000000e+00 
1.0000000e+00 0.0000000e+00 1.0000000e+00 
1.0000000e+00 0.0000000e+00 1.0000000e+00 
1.0000000e+00 0.0000000e+00 1.0000000e+00 
1.0000000e+00 0.0000000e+00 1.0000000e+00 
POINT_MOMENT 3 86  float
0.0000000e+00 0.0000000e+00 0.0000000e+00 
0.0000000e+00 0.0000000e+00 0.0000000e+00 
0.0000000e+00 0.0000000e+00 0.0000000e+00 
0.0000000e+00 0.0000000e+00 0.0000000e+00 
0.0000000e+00 0.0000000e+00 0.0000000e+00 
0.0000000e+00 0.0000000e+00 0.0000000e+00 
0.0000000e+00 0.0000000e+00 0.0000000e+00 
0.0000000e+00 0.0000000e+00 0.0000000e+00 
0.0000000e+00 0.0000000e+00 0.0000000e+00 
0.0000000e+00 0.0000000e+00 0.0000000e+00 
0.0000000e+00 0.0000000e+00 0.0000000e+00 
0.0000000e+00 0.0000000e+00 0.0000000e+00 
0.0000000e+00 0.0000000e+00 0.0000000e+00 
0.0000000e+00 0.0000000e+00 0.0000000e+00 
0.0000000e+00 0.0000000e+00 0.0000000e+00 
0.0000000e+00 0.0000000e+00 0.0000000e+00 
0.0000000e+00 0.0000000e+00 0.0000000e+00 
0.0000000e+00 0.0000000e+00 0.0000000e+00 
0.0000000e+00 0.0000000e+00 0.0000000e+00 
0.0000000e+00 0.0000000e+00 0.0000000e+00 
0.0000000e+00 0.0000000e+00 0.0000000e+00 
0.0000000e+00 0.0000000e+00 0.0000000e+00 
0.0000000e+00 0.0000000e+00 0.0000000e+00 
0.0000000e+00 0.0000000e+00 0.0000000e+00 
0.0000000e+00 0.0000000e+00 0.0000000e+00 
0.0000000e+00 0.0000000e+00 0.0000000e+00 
0.0000000e+00 0.0000000e+00 0.0000000e+00 
0.0000000e+00 0.0000000e+00 0.0000000e+00 
0.0000000e+00 0.0000000e+00 0.0000000e+00 
0.0000000e+00 0.0000000e+00 0.0000000e+00 
0.0000000e+00 0.0000000e+00 0.0000000e+00 
0.0000000e+00 0.0000000e+00 0.0000000e+00 
0.0000000e+00 0.0000000e+00 0.0000000e+00 
0.0000000e+00 0.0000000e+00 0.0000000e+00 
0.0000000e+00 0.0000000e+00 0.0000000e+00 
0.0000000e+00 0.0000000e+00 0.0000000e+00 
0.0000000e+00 0.0000000e+00 0.0000000e+00 
0.0000000e+00 0.0000000e+00 0.0000000e+00 
0.0000000e+00 0.0000000e+00 0.0000000e+00 
0.0000000e+00 0.0000000e+00 0.0000000e+00 
0.0000000e+00 0.0000000e+00 0.0000000e+00 
0.0000000e+00 0.0000000e+00 0.0000000e+00 
0.0000000e+00 0.0000000e+00 0.0000000e+00 
0.0000000e+00 0.0000000e+00 0.0000000e+00 
0.0000000e+00 0.0000000e+00 0.0000000e+00 
0.0000000e+00 0.0000000e+00 0.0000000e+00 
0.0000000e+00 0.0000000e+00 0.0000000e+00 
0.0000000e+00 0.0000000e+00 0.0000000e+00 
0.0000000e+00 0.0000000e+00 0.0000000e+00 
0.0000000e+00 0.0000000e+00 0.0000000e+00 
0.0000000e+00 0.0000000e+00 0.0000000e+00 
0.0000000e+00 0.0000000e+00 0.0000000e+00 
0.0000000e+00 0.0000000e+00 0.0000000e+00 
0.0000000e+00 0.0000000e+00 0.0000000e+00 
0.0000000e+00 0.0000000e+00 0.0000000e+00 
0.0000000e+00 0.0000000e+00 0.0000000e+00 
0.0000000e+00 0.0000000e+00 0.0000000e+00 