# vtk DataFile Version 4.0
vtk output
ASCII
DATASET UNSTRUCTURED_GRID
POINTS 2 float
0.0000000e+00 0.0000000e+00 0.0000000e+00 
3.0000000e+00 0.0000000e+00 0.0000000e+00 

CELLS 1 3
2 0 1

CELL_TYPES 1
3
POINT_DATA 2
FIELD FieldData 4
DISPLACEMENT 3 2  float
0.0000000e+00 0.0000000e+00 0.0000000e+00 
0.0000000e+00 2.0615843e+14 0.0000000e+00 
REACTION 3 2  float
-0.0000000e+00 1.0307922e+18 -0.0000000e+00 
-0.0000000e+00 1.0307922e+18 -0.0000000e+00 
ROTATION 3 2  float
0.0000000e+00 0.0000000e+00 6.8719477e+13 
0.0000000e+00 0.0000000e+00 6.8719477e+13 
REACTION_MOMENT 3 2  float
-0.0000000e+00 -0.0000000e+00 -8.1920000e+03 
-0.0000000e+00 -0.0000000e+00 -0.0000000e+00 
CELL_DATA 1
FIELD FieldData 0
