# vtk DataFile Version 4.0
vtk output
ASCII
DATASET UNSTRUCTURED_GRID
POINTS 30 float
0.0000000e+00 0.0000000e+00 0.0000000e+00 
0.0000000e+00 0.0000000e+00 8.0000001e-01 
0.0000000e+00 0.0000000e+00 1.6000000e+00 
0.0000000e+00 0.0000000e+00 2.4000001e+00 
0.0000000e+00 0.0000000e+00 3.2000000e+00 
0.0000000e+00 0.0000000e+00 4.0000000e+00 
0.0000000e+00 0.0000000e+00 4.8000002e+00 
0.0000000e+00 0.0000000e+00 5.5999999e+00 
0.0000000e+00 0.0000000e+00 6.4000001e+00 
0.0000000e+00 0.0000000e+00 7.1999998e+00 
0.0000000e+00 0.0000000e+00 8.0000000e+00 
1.0000000e+01 0.0000000e+00 0.0000000e+00 
1.0000000e+01 0.0000000e+00 8.0000001e-01 
1.0000000e+01 0.0000000e+00 1.6000000e+00 
1.0000000e+01 0.0000000e+00 2.4000001e+00 
1.0000000e+01 0.0000000e+00 3.2000000e+00 
1.0000000e+01 0.0000000e+00 4.0000000e+00 
1.0000000e+01 0.0000000e+00 4.8000002e+00 
1.0000000e+01 0.0000000e+00 5.5999999e+00 
1.0000000e+01 0.0000000e+00 6.4000001e+00 
1.0000000e+01 0.0000000e+00 7.1999998e+00 
1.0000000e+01 0.0000000e+00 8.0000000e+00 
2.0000000e+00 0.0000000e+00 4.0000000e+00 
4.0000000e+00 0.0000000e+00 4.0000000e+00 
6.0000000e+00 0.0000000e+00 4.0000000e+00 
8.0000000e+00 0.0000000e+00 4.0000000e+00 
2.0000000e+00 0.0000000e+00 8.0000000e+00 
4.0000000e+00 0.0000000e+00 8.0000000e+00 
6.0000000e+00 0.0000000e+00 8.0000000e+00 
8.0000000e+00 0.0000000e+00 8.0000000e+00 

CELLS 30 90
2 0 1
2 1 2
2 2 3
2 3 4
2 4 5
2 5 6
2 6 7
2 7 8
2 8 9
2 9 10
2 11 12
2 12 13
2 13 14
2 14 15
2 15 16
2 16 17
2 17 18
2 18 19
2 19 20
2 20 21
2 5 22
2 22 23
2 23 24
2 24 25
2 25 16
2 10 26
2 26 27
2 27 28
2 28 29
2 29 21

CELL_TYPES 30
3
3
3
3
3
3
3
3
3
3
3
3
3
3
3
3
3
3
3
3
3
3
3
3
3
3
3
3
3
3
POINT_DATA 30
FIELD FieldData 7
DISPLACEMENT 3 30  float
0.0000000e+00 0.0000000e+00 0.0000000e+00 
-8.3404444e-03 0.0000000e+00 -1.4577089e-05 
-1.6285071e-02 0.0000000e+00 -3.1428077e-05 
-2.3423921e-02 0.0000000e+00 -4.8279060e-05 
-2.9364781e-02 0.0000000e+00 -6.5838271e-05 
-3.3800565e-02 0.0000000e+00 -8.3397485e-05 
-3.7352670e-02 0.0000000e+00 -9.0578418e-05 
-4.0767461e-02 0.0000000e+00 -9.4234470e-05 
-4.3919843e-02 0.0000000e+00 -9.5979383e-05 
-4.6644986e-02 0.0000000e+00 -9.6135198e-05 
-4.8774090e-02 0.0000000e+00 -9.7041797e-05 
0.0000000e+00 0.0000000e+00 0.0000000e+00 
-8.2910554e-03 0.0000000e+00 1.2744577e-05 
-1.6141118e-02 0.0000000e+00 2.5785424e-05 
-2.3211792e-02 0.0000000e+00 3.5797122e-05 
-2.9221542e-02 0.0000000e+00 4.4481530e-05 
-3.3831250e-02 0.0000000e+00 5.3165935e-05 
-3.7639420e-02 0.0000000e+00 5.3633143e-05 
-4.1266989e-02 0.0000000e+00 5.5568838e-05 
-4.4439197e-02 0.0000000e+00 6.0381157e-05 
-4.6979543e-02 0.0000000e+00 6.3386229e-05 
-4.8769280e-02 0.0000000e+00 6.5569417e-05 
-3.3810358e-02 0.0000000e+00 4.1895756e-03 
-3.3822589e-02 0.0000000e+00 2.0652465e-03 
-3.3827566e-02 0.0000000e+00 -2.2188881e-03 
-3.3832543e-02 0.0000000e+00 -4.3892330e-03 
-4.8776165e-02 0.0000000e+00 2.3153629e-03 
-4.8778240e-02 0.0000000e+00 1.7723914e-03 
-4.8780315e-02 0.0000000e+00 -3.7440434e-05 
-4.8774797e-02 0.0000000e+00 -1.3294681e-03 
ROTATION 3 30  float
0.0000000e+00 -1.0507281e-02 0.0000000e+00 
0.0000000e+00 -1.0262105e-02 0.0000000e+00 
0.0000000e+00 -9.5133176e-03 0.0000000e+00 
0.0000000e+00 -8.2476633e-03 0.0000000e+00 
0.0000000e+00 -6.5449462e-03 0.0000000e+00 
0.0000000e+00 -4.4849711e-03 0.0000000e+00 
0.0000000e+00 -4.3764217e-03 0.0000000e+00 
0.0000000e+00 -4.1352012e-03 0.0000000e+00 
0.0000000e+00 -3.7096720e-03 0.0000000e+00 
0.0000000e+00 -3.0668231e-03 0.0000000e+00 
0.0000000e+00 -2.2264656e-03 0.0000000e+00 
0.0000000e+00 -1.0460357e-02 0.0000000e+00 
0.0000000e+00 -1.0170742e-02 0.0000000e+00 
0.0000000e+00 -9.3858643e-03 0.0000000e+00 
0.0000000e+00 -8.2385596e-03 0.0000000e+00 
0.0000000e+00 -6.7114895e-03 0.0000000e+00 
0.0000000e+00 -4.7384487e-03 0.0000000e+00 
0.0000000e+00 -4.7122589e-03 0.0000000e+00 
0.0000000e+00 -4.2965370e-03 0.0000000e+00 
0.0000000e+00 -3.6007494e-03 0.0000000e+00 
0.0000000e+00 -2.7225513e-03 0.0000000e+00 
0.0000000e+00 -1.7468533e-03 0.0000000e+00 
0.0000000e+00 -1.7283081e-04 0.0000000e+00 
0.0000000e+00 1.9533283e-03 0.0000000e+00 
0.0000000e+00 1.9722132e-03 0.0000000e+00 
0.0000000e+00 -1.6046135e-04 0.0000000e+00 
0.0000000e+00 -3.2664867e-04 0.0000000e+00 
0.0000000e+00 7.2891044e-04 0.0000000e+00 
0.0000000e+00 9.4021176e-04 0.0000000e+00 
0.0000000e+00 1.6303170e-04 0.0000000e+00 
REACTION 3 30  float
2.4134570e+04 -0.0000000e+00 3.8264859e+04 
-5.7480065e-10 -0.0000000e+00 -0.0000000e+00 
3.2596290e-09 -0.0000000e+00 -2.9103830e-11 
1.3205863e-09 -0.0000000e+00 -0.0000000e+00 
5.1222742e-09 -0.0000000e+00 2.9103830e-11 
7.2905095e-09 -0.0000000e+00 -9.6406438e-10 
-8.0872269e-09 -0.0000000e+00 2.7175702e-09 
-2.4319888e-09 -0.0000000e+00 2.7011993e-10 
-8.7293301e-09 -0.0000000e+00 -5.0022209e-11 
-8.3491614e-10 -0.0000000e+00 -2.7284841e-11 
2.4392648e-09 -0.0000000e+00 3.4560799e-11 
2.8508977e+04 -0.0000000e+00 -3.3454516e+04 
-1.6079866e-09 -0.0000000e+00 -5.8207661e-11 
-5.1713869e-09 -0.0000000e+00 -2.5465852e-10 
6.3992047e-09 -0.0000000e+00 -1.9645086e-10 
8.6147338e-09 -0.0000000e+00 6.9849193e-10 
5.1222742e-09 -0.0000000e+00 2.0518200e-09 
3.2523531e-09 -0.0000000e+00 5.4569682e-12 
-4.1218300e-09 -0.0000000e+00 1.0913936e-11 
7.6597644e-09 -0.0000000e+00 6.0954335e-09 
-1.9263098e-09 -0.0000000e+00 7.2759576e-12 
-3.9453880e-09 -0.0000000e+00 -5.6825229e-09 
-2.2082531e-09 -0.0000000e+00 -3.7034624e-09 
-8.9294190e-09 -0.0000000e+00 6.2937033e-10 
-0.0000000e+00 -0.0000000e+00 5.7480065e-10 
-2.8721843e-09 -0.0000000e+00 -2.8012437e-10 
-7.4505806e-09 -0.0000000e+00 -4.0017767e-11 
7.4505806e-09 -0.0000000e+00 1.4551915e-11 
1.0126314e-08 -0.0000000e+00 5.2386895e-09 
-7.4505806e-09 -0.0000000e+00 -2.9103830e-11 
REACTION_MOMENT 3 30  float
-0.0000000e+00 -3.4924597e-10 -0.0000000e+00 
-0.0000000e+00 -6.9849193e-10 -0.0000000e+00 
-0.0000000e+00 9.3132257e-10 -0.0000000e+00 
-0.0000000e+00 3.8417056e-09 -0.0000000e+00 
-0.0000000e+00 -8.6729415e-09 -0.0000000e+00 
-0.0000000e+00 -2.1827873e-09 -0.0000000e+00 
-0.0000000e+00 -3.9581209e-09 -0.0000000e+00 
-0.0000000e+00 3.0850060e-09 -0.0000000e+00 
-0.0000000e+00 -3.1723175e-09 -0.0000000e+00 
-0.0000000e+00 -4.3073669e-09 -0.0000000e+00 
-0.0000000e+00 1.8917490e-10 -0.0000000e+00 
-0.0000000e+00 -1.1641532e-10 -0.0000000e+00 
-0.0000000e+00 2.3283064e-10 -0.0000000e+00 
-0.0000000e+00 -5.8207661e-10 -0.0000000e+00 
-0.0000000e+00 6.9849193e-10 -0.0000000e+00 
-0.0000000e+00 1.6298145e-09 -0.0000000e+00 
-0.0000000e+00 5.8207661e-11 -0.0000000e+00 
-0.0000000e+00 8.1490725e-10 -0.0000000e+00 
-0.0000000e+00 -8.3236955e-09 -0.0000000e+00 
-0.0000000e+00 5.2386895e-10 -0.0000000e+00 
-0.0000000e+00 -2.4447218e-09 -0.0000000e+00 
-0.0000000e+00 1.0622898e-09 -0.0000000e+00 
-0.0000000e+00 9.1677066e-10 -0.0000000e+00 
-0.0000000e+00 4.3655746e-10 -0.0000000e+00 
-0.0000000e+00 -1.0186341e-10 -0.0000000e+00 
-0.0000000e+00 -0.0000000e+00 -0.0000000e+00 
-0.0000000e+00 -1.4551915e-11 -0.0000000e+00 
-0.0000000e+00 1.4551915e-11 -0.0000000e+00 
-0.0000000e+00 -9.0949470e-12 -0.0000000e+00 
-0.0000000e+00 -1.0913936e-11 -0.0000000e+00 
VOLUME_ACCELERATION 3 30  float
0.0000000e+00 0.0000000e+00 0.0000000e+00 
0.0000000e+00 0.0000000e+00 0.0000000e+00 
0.0000000e+00 0.0000000e+00 0.0000000e+00 
0.0000000e+00 0.0000000e+00 0.0000000e+00 
0.0000000e+00 0.0000000e+00 0.0000000e+00 
0.0000000e+00 0.0000000e+00 0.0000000e+00 
0.0000000e+00 0.0000000e+00 0.0000000e+00 
0.0000000e+00 0.0000000e+00 0.0000000e+00 
0.0000000e+00 0.0000000e+00 0.0000000e+00 
0.0000000e+00 0.0000000e+00 0.0000000e+00 
0.0000000e+00 0.0000000e+00 0.0000000e+00 
0.0000000e+00 0.0000000e+00 0.0000000e+00 
0.0000000e+00 0.0000000e+00 0.0000000e+00 
0.0000000e+00 0.0000000e+00 0.0000000e+00 
0.0000000e+00 0.0000000e+00 0.0000000e+00 
0.0000000e+00 0.0000000e+00 0.0000000e+00 
0.0000000e+00 0.0000000e+00 0.0000000e+00 
0.0000000e+00 0.0000000e+00 0.0000000e+00 
0.0000000e+00 0.0000000e+00 0.0000000e+00 
0.0000000e+00 0.0000000e+00 0.0000000e+00 
0.0000000e+00 0.0000000e+00 0.0000000e+00 
0.0000000e+00 0.0000000e+00 0.0000000e+00 
0.0000000e+00 0.0000000e+00 0.0000000e+00 
0.0000000e+00 0.0000000e+00 0.0000000e+00 
0.0000000e+00 0.0000000e+00 0.0000000e+00 
0.0000000e+00 0.0000000e+00 0.0000000e+00 
0.0000000e+00 0.0000000e+00 0.0000000e+00 
0.0000000e+00 0.0000000e+00 0.0000000e+00 
0.0000000e+00 0.0000000e+00 0.0000000e+00 
0.0000000e+00 0.0000000e+00 0.0000000e+00 
POINT_LOAD 3 30  float
0.0000000e+00 0.0000000e+00 0.0000000e+00 
1.3049966e+03 0.0000000e+00 5.9689775e+03 
0.0000000e+00 0.0000000e+00 0.0000000e+00 
-7.8557632e+03 0.0000000e+00 1.8590939e+03 
0.0000000e+00 0.0000000e+00 0.0000000e+00 
-1.7314387e+03 0.0000000e+00 -9.0598164e+03 
1.9176548e+03 0.0000000e+00 -9.2528252e+03 
3.1653381e+03 0.0000000e+00 -5.0167178e+03 
8.4226524e+01 0.0000000e+00 -4.1714019e+03 
-2.0343969e+03 0.0000000e+00 1.9708184e+03 
-6.5254565e+03 0.0000000e+00 4.2687051e+03 
0.0000000e+00 0.0000000e+00 0.0000000e+00 
-8.2655195e+03 0.0000000e+00 -7.7770599e+02 
-4.8104658e+03 0.0000000e+00 7.9515117e+03 
6.5171177e+03 0.0000000e+00 3.4841421e+03 
0.0000000e+00 0.0000000e+00 0.0000000e+00 
0.0000000e+00 0.0000000e+00 0.0000000e+00 
-2.8362793e+03 0.0000000e+00 -3.8547795e+03 
-7.9392554e+03 0.0000000e+00 -7.5511392e+03 
-1.6737733e+03 0.0000000e+00 4.7440303e+03 
-6.6845366e+03 0.0000000e+00 2.1574238e+03 
4.3370142e+03 0.0000000e+00 -3.1891687e+03 
2.5594836e+03 0.0000000e+00 -1.9371239e+03 
-7.6135371e+03 0.0000000e+00 6.9749109e+02 
0.0000000e+00 0.0000000e+00 0.0000000e+00 
-6.5869023e+03 0.0000000e+00 4.6266201e+03 
0.0000000e+00 0.0000000e+00 0.0000000e+00 
0.0000000e+00 0.0000000e+00 0.0000000e+00 
-7.9720537e+03 0.0000000e+00 2.2715210e+03 
0.0000000e+00 0.0000000e+00 0.0000000e+00 
POINT_MOMENT 3 30  float
0.0000000e+00 0.0000000e+00 0.0000000e+00 
0.0000000e+00 0.0000000e+00 0.0000000e+00 
0.0000000e+00 0.0000000e+00 0.0000000e+00 
0.0000000e+00 0.0000000e+00 0.0000000e+00 
0.0000000e+00 0.0000000e+00 0.0000000e+00 
0.0000000e+00 0.0000000e+00 0.0000000e+00 
0.0000000e+00 0.0000000e+00 0.0000000e+00 
0.0000000e+00 0.0000000e+00 0.0000000e+00 
0.0000000e+00 0.0000000e+00 0.0000000e+00 
0.0000000e+00 0.0000000e+00 0.0000000e+00 
0.0000000e+00 0.0000000e+00 0.0000000e+00 
0.0000000e+00 0.0000000e+00 0.0000000e+00 
0.0000000e+00 0.0000000e+00 0.0000000e+00 
0.0000000e+00 0.0000000e+00 0.0000000e+00 
0.0000000e+00 0.0000000e+00 0.0000000e+00 
0.0000000e+00 0.0000000e+00 0.0000000e+00 
0.0000000e+00 0.0000000e+00 0.0000000e+00 
0.0000000e+00 0.0000000e+00 0.0000000e+00 
0.0000000e+00 0.0000000e+00 0.0000000e+00 
0.0000000e+00 0.0000000e+00 0.0000000e+00 
0.0000000e+00 0.0000000e+00 0.0000000e+00 
0.0000000e+00 0.0000000e+00 0.0000000e+00 
0.0000000e+00 0.0000000e+00 0.0000000e+00 
0.0000000e+00 0.0000000e+00 0.0000000e+00 
0.0000000e+00 0.0000000e+00 0.0000000e+00 
0.0000000e+00 0.0000000e+00 0.0000000e+00 
0.0000000e+00 0.0000000e+00 0.0000000e+00 
0.0000000e+00 0.0000000e+00 0.0000000e+00 
0.0000000e+00 0.0000000e+00 0.0000000e+00 
0.0000000e+00 0.0000000e+00 0.0000000e+00 
CELL_DATA 30
FIELD FieldData 9
YOUNG_MODULUS 1 30  float
2.1000000e+11
2.1000000e+11
2.1000000e+11
2.1000000e+11
2.1000000e+11
2.1000000e+11
2.1000000e+11
2.1000000e+11
2.1000000e+11
2.1000000e+11
2.1000000e+11
2.1000000e+11
2.1000000e+11
2.1000000e+11
2.1000000e+11
2.1000000e+11
2.1000000e+11
2.1000000e+11
2.1000000e+11
2.1000000e+11
2.1000000e+11
2.1000000e+11
2.1000000e+11
2.1000000e+11
2.1000000e+11
2.1000000e+11
2.1000000e+11
2.1000000e+11
2.1000000e+11
2.1000000e+11
DENSITY 1 30  float
7.8500000e+03
7.8500000e+03
7.8500000e+03
7.8500000e+03
7.8500000e+03
7.8500000e+03
7.8500000e+03
7.8500000e+03
7.8500000e+03
7.8500000e+03
7.8500000e+03
7.8500000e+03
7.8500000e+03
7.8500000e+03
7.8500000e+03
7.8500000e+03
7.8500000e+03
7.8500000e+03
7.8500000e+03
7.8500000e+03
7.8500000e+03
7.8500000e+03
7.8500000e+03
7.8500000e+03
7.8500000e+03
7.8500000e+03
7.8500000e+03
7.8500000e+03
7.8500000e+03
7.8500000e+03
CROSS_AREA 1 30  float
9.9999998e-03
9.9999998e-03
9.9999998e-03
9.9999998e-03
9.9999998e-03
9.9999998e-03
9.9999998e-03
9.9999998e-03
9.9999998e-03
9.9999998e-03
9.9999998e-03
9.9999998e-03
9.9999998e-03
9.9999998e-03
9.9999998e-03
9.9999998e-03
9.9999998e-03
9.9999998e-03
9.9999998e-03
9.9999998e-03
9.9999998e-03
9.9999998e-03
9.9999998e-03
9.9999998e-03
9.9999998e-03
9.9999998e-03
9.9999998e-03
9.9999998e-03
9.9999998e-03
9.9999998e-03
I22 1 30  float
1.5000001e-04
1.5000001e-04
1.5000001e-04
1.5000001e-04
1.5000001e-04
1.5000001e-04
1.5000001e-04
1.5000001e-04
1.5000001e-04
1.5000001e-04
1.5000001e-04
1.5000001e-04
1.5000001e-04
1.5000001e-04
1.5000001e-04
1.5000001e-04
1.5000001e-04
1.5000001e-04
1.5000001e-04
1.5000001e-04
1.5000001e-04
1.5000001e-04
1.5000001e-04
1.5000001e-04
1.5000001e-04
1.5000001e-04
1.5000001e-04
1.5000001e-04
1.5000001e-04
1.5000001e-04
I33 1 30  float
1.5000001e-04
1.5000001e-04
1.5000001e-04
1.5000001e-04
1.5000001e-04
1.5000001e-04
1.5000001e-04
1.5000001e-04
1.5000001e-04
1.5000001e-04
1.5000001e-04
1.5000001e-04
1.5000001e-04
1.5000001e-04
1.5000001e-04
1.5000001e-04
1.5000001e-04
1.5000001e-04
1.5000001e-04
1.5000001e-04
1.5000001e-04
1.5000001e-04
1.5000001e-04
1.5000001e-04
1.5000001e-04
1.5000001e-04
1.5000001e-04
1.5000001e-04
1.5000001e-04
1.5000001e-04
TORSIONAL_INERTIA 1 30  float
3.0000001e-04
3.0000001e-04
3.0000001e-04
3.0000001e-04
3.0000001e-04
3.0000001e-04
3.0000001e-04
3.0000001e-04
3.0000001e-04
3.0000001e-04
3.0000001e-04
3.0000001e-04
3.0000001e-04
3.0000001e-04
3.0000001e-04
3.0000001e-04
3.0000001e-04
3.0000001e-04
3.0000001e-04
3.0000001e-04
3.0000001e-04
3.0000001e-04
3.0000001e-04
3.0000001e-04
3.0000001e-04
3.0000001e-04
3.0000001e-04
3.0000001e-04
3.0000001e-04
3.0000001e-04
POISSON_RATIO 1 30  float
3.0000001e-01
3.0000001e-01
3.0000001e-01
3.0000001e-01
3.0000001e-01
3.0000001e-01
3.0000001e-01
3.0000001e-01
3.0000001e-01
3.0000001e-01
3.0000001e-01
3.0000001e-01
3.0000001e-01
3.0000001e-01
3.0000001e-01
3.0000001e-01
3.0000001e-01
3.0000001e-01
3.0000001e-01
3.0000001e-01
3.0000001e-01
3.0000001e-01
3.0000001e-01
3.0000001e-01
3.0000001e-01
3.0000001e-01
3.0000001e-01
3.0000001e-01
3.0000001e-01
3.0000001e-01
MOMENT 3 30  float
0.0000000e+00 9.6538281e+03 0.0000000e+00 
0.0000000e+00 2.9483482e+04 0.0000000e+00 
0.0000000e+00 4.9835137e+04 0.0000000e+00 
0.0000000e+00 6.7044484e+04 0.0000000e+00 
0.0000000e+00 8.1111523e+04 0.0000000e+00 
0.0000000e+00 4.2741201e+03 0.0000000e+00 
0.0000000e+00 9.4980654e+03 0.0000000e+00 
0.0000000e+00 1.6755207e+04 0.0000000e+00 
0.0000000e+00 2.5312176e+04 0.0000000e+00 
0.0000000e+00 3.3089078e+04 0.0000000e+00 
0.0000000e+00 1.1403591e+04 0.0000000e+00 
0.0000000e+00 3.0904564e+04 0.0000000e+00 
0.0000000e+00 4.5175141e+04 0.0000000e+00 
0.0000000e+00 6.0128383e+04 0.0000000e+00 
0.0000000e+00 7.7688469e+04 0.0000000e+00 
0.0000000e+00 1.0312251e+03 0.0000000e+00 
0.0000000e+00 1.6369044e+04 0.0000000e+00 
0.0000000e+00 2.7396648e+04 0.0000000e+00 
0.0000000e+00 3.4579043e+04 0.0000000e+00 
0.0000000e+00 3.8418113e+04 0.0000000e+00 
0.0000000e+00 6.7916203e+04 0.0000000e+00 
0.0000000e+00 3.3487004e+04 0.0000000e+00 
0.0000000e+00 2.9743671e+02 0.0000000e+00 
0.0000000e+00 -3.3589621e+04 0.0000000e+00 
0.0000000e+00 -7.2103305e+04 0.0000000e+00 
0.0000000e+00 2.9922117e+04 0.0000000e+00 
0.0000000e+00 1.6625057e+04 0.0000000e+00 
0.0000000e+00 3.3279956e+03 0.0000000e+00 
0.0000000e+00 -1.2240586e+04 0.0000000e+00 
0.0000000e+00 -3.0080689e+04 0.0000000e+00 
FORCE 3 30  float
-3.8264859e+04 0.0000000e+00 2.4134570e+04 
-4.4233836e+04 0.0000000e+00 2.5439566e+04 
-4.4233836e+04 0.0000000e+00 2.5439566e+04 
-4.6092930e+04 0.0000000e+00 1.7583803e+04 
-4.6092930e+04 0.0000000e+00 1.7583803e+04 
-1.8849953e+04 0.0000000e+00 5.5711040e+03 
-9.5971270e+03 0.0000000e+00 7.4887588e+03 
-4.5804087e+03 0.0000000e+00 1.0654098e+04 
-4.0900690e+02 0.0000000e+00 1.0738323e+04 
-2.3798252e+03 0.0000000e+00 8.7039268e+03 
3.3454516e+04 0.0000000e+00 2.8508977e+04 
3.4232223e+04 0.0000000e+00 2.0243457e+04 
2.6280711e+04 0.0000000e+00 1.5432991e+04 
2.2796568e+04 0.0000000e+00 2.1950109e+04 
2.2796568e+04 0.0000000e+00 2.1950109e+04 
1.2264180e+03 0.0000000e+00 2.0590414e+04 
5.0811978e+03 0.0000000e+00 1.7754135e+04 
1.2632337e+04 0.0000000e+00 9.8148789e+03 
7.8883066e+03 0.0000000e+00 8.1411055e+03 
5.7308828e+03 0.0000000e+00 1.4565690e+03 
-1.0281261e+04 0.0000000e+00 -1.8183162e+04 
-1.2840744e+04 0.0000000e+00 -1.6246039e+04 
-5.2272070e+03 0.0000000e+00 -1.6943529e+04 
-5.2272070e+03 0.0000000e+00 -1.6943529e+04 
1.3596953e+03 0.0000000e+00 -2.1570150e+04 
-2.1784705e+03 0.0000000e+00 -6.6485303e+03 
-2.1784705e+03 0.0000000e+00 -6.6485303e+03 
-2.1784705e+03 0.0000000e+00 -6.6485303e+03 
5.7935830e+03 0.0000000e+00 -8.9200518e+03 
5.7935830e+03 0.0000000e+00 -8.9200518e+03 
