# vtk DataFile Version 4.0
vtk output
ASCII
DATASET UNSTRUCTURED_GRID
POINTS 356 float
0.0000000e+00 0.0000000e+00 0.0000000e+00 
0.0000000e+00 0.0000000e+00 1.5000001e-01 
0.0000000e+00 0.0000000e+00 3.0000001e-01 
0.0000000e+00 0.0000000e+00 4.4999999e-01 
0.0000000e+00 0.0000000e+00 6.0000002e-01 
0.0000000e+00 0.0000000e+00 7.5000000e-01 
0.0000000e+00 0.0000000e+00 8.9999998e-01 
0.0000000e+00 0.0000000e+00 1.0500000e+00 
0.0000000e+00 0.0000000e+00 1.2000000e+00 
0.0000000e+00 0.0000000e+00 1.3500000e+00 
0.0000000e+00 0.0000000e+00 1.5000000e+00 
0.0000000e+00 0.0000000e+00 1.6500000e+00 
0.0000000e+00 0.0000000e+00 1.8000000e+00 
0.0000000e+00 0.0000000e+00 1.9500000e+00 
0.0000000e+00 0.0000000e+00 2.0999999e+00 
0.0000000e+00 0.0000000e+00 2.2500000e+00 
0.0000000e+00 0.0000000e+00 2.4000001e+00 
0.0000000e+00 0.0000000e+00 2.5500000e+00 
0.0000000e+00 0.0000000e+00 2.7000000e+00 
0.0000000e+00 0.0000000e+00 2.8499999e+00 
0.0000000e+00 0.0000000e+00 3.0000000e+00 
0.0000000e+00 0.0000000e+00 3.1500001e+00 
0.0000000e+00 0.0000000e+00 3.3000000e+00 
0.0000000e+00 0.0000000e+00 3.4500000e+00 
0.0000000e+00 0.0000000e+00 3.5999999e+00 
0.0000000e+00 0.0000000e+00 3.7500000e+00 
0.0000000e+00 0.0000000e+00 3.9000001e+00 
0.0000000e+00 0.0000000e+00 4.0500002e+00 
0.0000000e+00 0.0000000e+00 4.1999998e+00 
0.0000000e+00 0.0000000e+00 4.3499999e+00 
0.0000000e+00 0.0000000e+00 4.5000000e+00 
0.0000000e+00 0.0000000e+00 4.6500001e+00 
0.0000000e+00 0.0000000e+00 4.8000002e+00 
0.0000000e+00 0.0000000e+00 4.9499998e+00 
0.0000000e+00 0.0000000e+00 5.0999999e+00 
0.0000000e+00 0.0000000e+00 5.2500000e+00 
0.0000000e+00 0.0000000e+00 5.4000001e+00 
0.0000000e+00 0.0000000e+00 5.5500002e+00 
0.0000000e+00 0.0000000e+00 5.6999998e+00 
0.0000000e+00 0.0000000e+00 5.8499999e+00 
0.0000000e+00 0.0000000e+00 6.0000000e+00 
0.0000000e+00 0.0000000e+00 6.1500001e+00 
0.0000000e+00 0.0000000e+00 6.3000002e+00 
0.0000000e+00 0.0000000e+00 6.4499998e+00 
0.0000000e+00 0.0000000e+00 6.5999999e+00 
0.0000000e+00 0.0000000e+00 6.7500000e+00 
0.0000000e+00 0.0000000e+00 6.9000001e+00 
0.0000000e+00 0.0000000e+00 7.0500002e+00 
0.0000000e+00 0.0000000e+00 7.1999998e+00 
0.0000000e+00 0.0000000e+00 7.3499999e+00 
0.0000000e+00 0.0000000e+00 7.5000000e+00 
0.0000000e+00 0.0000000e+00 7.6500001e+00 
0.0000000e+00 0.0000000e+00 7.8000002e+00 
0.0000000e+00 0.0000000e+00 7.9499998e+00 
0.0000000e+00 0.0000000e+00 8.1000004e+00 
0.0000000e+00 0.0000000e+00 8.2500000e+00 
0.0000000e+00 0.0000000e+00 8.3999996e+00 
0.0000000e+00 0.0000000e+00 8.5500002e+00 
0.0000000e+00 0.0000000e+00 8.6999998e+00 
0.0000000e+00 0.0000000e+00 8.8500004e+00 
0.0000000e+00 0.0000000e+00 9.0000000e+00 
0.0000000e+00 0.0000000e+00 9.1499996e+00 
0.0000000e+00 0.0000000e+00 9.3000002e+00 
0.0000000e+00 0.0000000e+00 9.4499998e+00 
0.0000000e+00 0.0000000e+00 9.6000004e+00 
0.0000000e+00 0.0000000e+00 9.7500000e+00 
0.0000000e+00 0.0000000e+00 9.8999996e+00 
0.0000000e+00 0.0000000e+00 1.0050000e+01 
0.0000000e+00 0.0000000e+00 1.0200000e+01 
0.0000000e+00 0.0000000e+00 1.0350000e+01 
0.0000000e+00 0.0000000e+00 1.0500000e+01 
0.0000000e+00 0.0000000e+00 1.0650000e+01 
0.0000000e+00 0.0000000e+00 1.0800000e+01 
0.0000000e+00 0.0000000e+00 1.0950000e+01 
0.0000000e+00 0.0000000e+00 1.1100000e+01 
0.0000000e+00 0.0000000e+00 1.1250000e+01 
0.0000000e+00 0.0000000e+00 1.1400000e+01 
0.0000000e+00 0.0000000e+00 1.1550000e+01 
0.0000000e+00 0.0000000e+00 1.1700000e+01 
0.0000000e+00 0.0000000e+00 1.1850000e+01 
0.0000000e+00 0.0000000e+00 1.2000000e+01 
0.0000000e+00 0.0000000e+00 1.2150000e+01 
0.0000000e+00 0.0000000e+00 1.2300000e+01 
0.0000000e+00 0.0000000e+00 1.2450000e+01 
0.0000000e+00 0.0000000e+00 1.2600000e+01 
0.0000000e+00 0.0000000e+00 1.2750000e+01 
0.0000000e+00 0.0000000e+00 1.2900000e+01 
0.0000000e+00 0.0000000e+00 1.3050000e+01 
0.0000000e+00 0.0000000e+00 1.3200000e+01 
0.0000000e+00 0.0000000e+00 1.3350000e+01 
0.0000000e+00 0.0000000e+00 1.3500000e+01 
0.0000000e+00 0.0000000e+00 1.3650000e+01 
0.0000000e+00 0.0000000e+00 1.3800000e+01 
0.0000000e+00 0.0000000e+00 1.3950000e+01 
0.0000000e+00 0.0000000e+00 1.4100000e+01 
0.0000000e+00 0.0000000e+00 1.4250000e+01 
0.0000000e+00 0.0000000e+00 1.4400000e+01 
0.0000000e+00 0.0000000e+00 1.4550000e+01 
0.0000000e+00 0.0000000e+00 1.4700000e+01 
0.0000000e+00 0.0000000e+00 1.4850000e+01 
0.0000000e+00 0.0000000e+00 1.5000000e+01 
0.0000000e+00 0.0000000e+00 1.5150000e+01 
0.0000000e+00 0.0000000e+00 1.5300000e+01 
0.0000000e+00 0.0000000e+00 1.5450000e+01 
0.0000000e+00 0.0000000e+00 1.5600000e+01 
0.0000000e+00 0.0000000e+00 1.5750000e+01 
0.0000000e+00 0.0000000e+00 1.5900000e+01 
0.0000000e+00 0.0000000e+00 1.6049999e+01 
0.0000000e+00 0.0000000e+00 1.6200001e+01 
0.0000000e+00 0.0000000e+00 1.6350000e+01 
0.0000000e+00 0.0000000e+00 1.6500000e+01 
0.0000000e+00 0.0000000e+00 1.6650000e+01 
0.0000000e+00 0.0000000e+00 1.6799999e+01 
0.0000000e+00 0.0000000e+00 1.6950001e+01 
0.0000000e+00 0.0000000e+00 1.7100000e+01 
0.0000000e+00 0.0000000e+00 1.7250000e+01 
0.0000000e+00 0.0000000e+00 1.7400000e+01 
0.0000000e+00 0.0000000e+00 1.7549999e+01 
0.0000000e+00 0.0000000e+00 1.7700001e+01 
0.0000000e+00 0.0000000e+00 1.7850000e+01 
0.0000000e+00 0.0000000e+00 1.8000000e+01 
6.0000000e+00 0.0000000e+00 0.0000000e+00 
6.0000000e+00 0.0000000e+00 1.5000001e-01 
6.0000000e+00 0.0000000e+00 3.0000001e-01 
6.0000000e+00 0.0000000e+00 4.4999999e-01 
6.0000000e+00 0.0000000e+00 6.0000002e-01 
6.0000000e+00 0.0000000e+00 7.5000000e-01 
6.0000000e+00 0.0000000e+00 8.9999998e-01 
6.0000000e+00 0.0000000e+00 1.0500000e+00 
6.0000000e+00 0.0000000e+00 1.2000000e+00 
6.0000000e+00 0.0000000e+00 1.3500000e+00 
6.0000000e+00 0.0000000e+00 1.5000000e+00 
6.0000000e+00 0.0000000e+00 1.6500000e+00 
6.0000000e+00 0.0000000e+00 1.8000000e+00 
6.0000000e+00 0.0000000e+00 1.9500000e+00 
6.0000000e+00 0.0000000e+00 2.0999999e+00 
6.0000000e+00 0.0000000e+00 2.2500000e+00 
6.0000000e+00 0.0000000e+00 2.4000001e+00 
6.0000000e+00 0.0000000e+00 2.5500000e+00 
6.0000000e+00 0.0000000e+00 2.7000000e+00 
6.0000000e+00 0.0000000e+00 2.8499999e+00 
6.0000000e+00 0.0000000e+00 3.0000000e+00 
6.0000000e+00 0.0000000e+00 3.1500001e+00 
6.0000000e+00 0.0000000e+00 3.3000000e+00 
6.0000000e+00 0.0000000e+00 3.4500000e+00 
6.0000000e+00 0.0000000e+00 3.5999999e+00 
6.0000000e+00 0.0000000e+00 3.7500000e+00 
6.0000000e+00 0.0000000e+00 3.9000001e+00 
6.0000000e+00 0.0000000e+00 4.0500002e+00 
6.0000000e+00 0.0000000e+00 4.1999998e+00 
6.0000000e+00 0.0000000e+00 4.3499999e+00 
6.0000000e+00 0.0000000e+00 4.5000000e+00 
6.0000000e+00 0.0000000e+00 4.6500001e+00 
6.0000000e+00 0.0000000e+00 4.8000002e+00 
6.0000000e+00 0.0000000e+00 4.9499998e+00 
6.0000000e+00 0.0000000e+00 5.0999999e+00 
6.0000000e+00 0.0000000e+00 5.2500000e+00 
6.0000000e+00 0.0000000e+00 5.4000001e+00 
6.0000000e+00 0.0000000e+00 5.5500002e+00 
6.0000000e+00 0.0000000e+00 5.6999998e+00 
6.0000000e+00 0.0000000e+00 5.8499999e+00 
6.0000000e+00 0.0000000e+00 6.0000000e+00 
6.0000000e+00 0.0000000e+00 6.1500001e+00 
6.0000000e+00 0.0000000e+00 6.3000002e+00 
6.0000000e+00 0.0000000e+00 6.4499998e+00 
6.0000000e+00 0.0000000e+00 6.5999999e+00 
6.0000000e+00 0.0000000e+00 6.7500000e+00 
6.0000000e+00 0.0000000e+00 6.9000001e+00 
6.0000000e+00 0.0000000e+00 7.0500002e+00 
6.0000000e+00 0.0000000e+00 7.1999998e+00 
6.0000000e+00 0.0000000e+00 7.3499999e+00 
6.0000000e+00 0.0000000e+00 7.5000000e+00 
6.0000000e+00 0.0000000e+00 7.6500001e+00 
6.0000000e+00 0.0000000e+00 7.8000002e+00 
6.0000000e+00 0.0000000e+00 7.9499998e+00 
6.0000000e+00 0.0000000e+00 8.1000004e+00 
6.0000000e+00 0.0000000e+00 8.2500000e+00 
6.0000000e+00 0.0000000e+00 8.3999996e+00 
6.0000000e+00 0.0000000e+00 8.5500002e+00 
6.0000000e+00 0.0000000e+00 8.6999998e+00 
6.0000000e+00 0.0000000e+00 8.8500004e+00 
6.0000000e+00 0.0000000e+00 9.0000000e+00 
6.0000000e+00 0.0000000e+00 9.1499996e+00 
6.0000000e+00 0.0000000e+00 9.3000002e+00 
6.0000000e+00 0.0000000e+00 9.4499998e+00 
6.0000000e+00 0.0000000e+00 9.6000004e+00 
6.0000000e+00 0.0000000e+00 9.7500000e+00 
6.0000000e+00 0.0000000e+00 9.8999996e+00 
6.0000000e+00 0.0000000e+00 1.0050000e+01 
6.0000000e+00 0.0000000e+00 1.0200000e+01 
6.0000000e+00 0.0000000e+00 1.0350000e+01 
6.0000000e+00 0.0000000e+00 1.0500000e+01 
6.0000000e+00 0.0000000e+00 1.0650000e+01 
6.0000000e+00 0.0000000e+00 1.0800000e+01 
6.0000000e+00 0.0000000e+00 1.0950000e+01 
6.0000000e+00 0.0000000e+00 1.1100000e+01 
6.0000000e+00 0.0000000e+00 1.1250000e+01 
6.0000000e+00 0.0000000e+00 1.1400000e+01 
6.0000000e+00 0.0000000e+00 1.1550000e+01 
6.0000000e+00 0.0000000e+00 1.1700000e+01 
6.0000000e+00 0.0000000e+00 1.1850000e+01 
6.0000000e+00 0.0000000e+00 1.2000000e+01 
6.0000000e+00 0.0000000e+00 1.2150000e+01 
6.0000000e+00 0.0000000e+00 1.2300000e+01 
6.0000000e+00 0.0000000e+00 1.2450000e+01 
6.0000000e+00 0.0000000e+00 1.2600000e+01 
6.0000000e+00 0.0000000e+00 1.2750000e+01 
6.0000000e+00 0.0000000e+00 1.2900000e+01 
6.0000000e+00 0.0000000e+00 1.3050000e+01 
6.0000000e+00 0.0000000e+00 1.3200000e+01 
6.0000000e+00 0.0000000e+00 1.3350000e+01 
6.0000000e+00 0.0000000e+00 1.3500000e+01 
6.0000000e+00 0.0000000e+00 1.3650000e+01 
6.0000000e+00 0.0000000e+00 1.3800000e+01 
6.0000000e+00 0.0000000e+00 1.3950000e+01 
6.0000000e+00 0.0000000e+00 1.4100000e+01 
6.0000000e+00 0.0000000e+00 1.4250000e+01 
6.0000000e+00 0.0000000e+00 1.4400000e+01 
6.0000000e+00 0.0000000e+00 1.4550000e+01 
6.0000000e+00 0.0000000e+00 1.4700000e+01 
6.0000000e+00 0.0000000e+00 1.4850000e+01 
6.0000000e+00 0.0000000e+00 1.5000000e+01 
6.0000000e+00 0.0000000e+00 1.5150000e+01 
6.0000000e+00 0.0000000e+00 1.5300000e+01 
6.0000000e+00 0.0000000e+00 1.5450000e+01 
6.0000000e+00 0.0000000e+00 1.5600000e+01 
6.0000000e+00 0.0000000e+00 1.5750000e+01 
6.0000000e+00 0.0000000e+00 1.5900000e+01 
6.0000000e+00 0.0000000e+00 1.6049999e+01 
6.0000000e+00 0.0000000e+00 1.6200001e+01 
6.0000000e+00 0.0000000e+00 1.6350000e+01 
6.0000000e+00 0.0000000e+00 1.6500000e+01 
6.0000000e+00 0.0000000e+00 1.6650000e+01 
6.0000000e+00 0.0000000e+00 1.6799999e+01 
6.0000000e+00 0.0000000e+00 1.6950001e+01 
6.0000000e+00 0.0000000e+00 1.7100000e+01 
6.0000000e+00 0.0000000e+00 1.7250000e+01 
6.0000000e+00 0.0000000e+00 1.7400000e+01 
6.0000000e+00 0.0000000e+00 1.7549999e+01 
6.0000000e+00 0.0000000e+00 1.7700001e+01 
6.0000000e+00 0.0000000e+00 1.7850000e+01 
6.0000000e+00 0.0000000e+00 1.8000000e+01 
3.0000001e-01 0.0000000e+00 3.0000000e+00 
6.0000002e-01 0.0000000e+00 3.0000000e+00 
8.9999998e-01 0.0000000e+00 3.0000000e+00 
1.2000000e+00 0.0000000e+00 3.0000000e+00 
1.5000000e+00 0.0000000e+00 3.0000000e+00 
1.8000000e+00 0.0000000e+00 3.0000000e+00 
2.0999999e+00 0.0000000e+00 3.0000000e+00 
2.4000001e+00 0.0000000e+00 3.0000000e+00 
2.7000000e+00 0.0000000e+00 3.0000000e+00 
3.0000000e+00 0.0000000e+00 3.0000000e+00 
3.3000000e+00 0.0000000e+00 3.0000000e+00 
3.5999999e+00 0.0000000e+00 3.0000000e+00 
3.9000001e+00 0.0000000e+00 3.0000000e+00 
4.1999998e+00 0.0000000e+00 3.0000000e+00 
4.5000000e+00 0.0000000e+00 3.0000000e+00 
4.8000002e+00 0.0000000e+00 3.0000000e+00 
5.0999999e+00 0.0000000e+00 3.0000000e+00 
5.4000001e+00 0.0000000e+00 3.0000000e+00 
5.6999998e+00 0.0000000e+00 3.0000000e+00 
3.0000001e-01 0.0000000e+00 6.0000000e+00 
6.0000002e-01 0.0000000e+00 6.0000000e+00 
8.9999998e-01 0.0000000e+00 6.0000000e+00 
1.2000000e+00 0.0000000e+00 6.0000000e+00 
1.5000000e+00 0.0000000e+00 6.0000000e+00 
1.8000000e+00 0.0000000e+00 6.0000000e+00 
2.0999999e+00 0.0000000e+00 6.0000000e+00 
2.4000001e+00 0.0000000e+00 6.0000000e+00 
2.7000000e+00 0.0000000e+00 6.0000000e+00 
3.0000000e+00 0.0000000e+00 6.0000000e+00 
3.3000000e+00 0.0000000e+00 6.0000000e+00 
3.5999999e+00 0.0000000e+00 6.0000000e+00 
3.9000001e+00 0.0000000e+00 6.0000000e+00 
4.1999998e+00 0.0000000e+00 6.0000000e+00 
4.5000000e+00 0.0000000e+00 6.0000000e+00 
4.8000002e+00 0.0000000e+00 6.0000000e+00 
5.0999999e+00 0.0000000e+00 6.0000000e+00 
5.4000001e+00 0.0000000e+00 6.0000000e+00 
5.6999998e+00 0.0000000e+00 6.0000000e+00 
3.0000001e-01 0.0000000e+00 9.0000000e+00 
6.0000002e-01 0.0000000e+00 9.0000000e+00 
8.9999998e-01 0.0000000e+00 9.0000000e+00 
1.2000000e+00 0.0000000e+00 9.0000000e+00 
1.5000000e+00 0.0000000e+00 9.0000000e+00 
1.8000000e+00 0.0000000e+00 9.0000000e+00 
2.0999999e+00 0.0000000e+00 9.0000000e+00 
2.4000001e+00 0.0000000e+00 9.0000000e+00 
2.7000000e+00 0.0000000e+00 9.0000000e+00 
3.0000000e+00 0.0000000e+00 9.0000000e+00 
3.3000000e+00 0.0000000e+00 9.0000000e+00 
3.5999999e+00 0.0000000e+00 9.0000000e+00 
3.9000001e+00 0.0000000e+00 9.0000000e+00 
4.1999998e+00 0.0000000e+00 9.0000000e+00 
4.5000000e+00 0.0000000e+00 9.0000000e+00 
4.8000002e+00 0.0000000e+00 9.0000000e+00 
5.0999999e+00 0.0000000e+00 9.0000000e+00 
5.4000001e+00 0.0000000e+00 9.0000000e+00 
5.6999998e+00 0.0000000e+00 9.0000000e+00 
3.0000001e-01 0.0000000e+00 1.2000000e+01 
6.0000002e-01 0.0000000e+00 1.2000000e+01 
8.9999998e-01 0.0000000e+00 1.2000000e+01 
1.2000000e+00 0.0000000e+00 1.2000000e+01 
1.5000000e+00 0.0000000e+00 1.2000000e+01 
1.8000000e+00 0.0000000e+00 1.2000000e+01 
2.0999999e+00 0.0000000e+00 1.2000000e+01 
2.4000001e+00 0.0000000e+00 1.2000000e+01 
2.7000000e+00 0.0000000e+00 1.2000000e+01 
3.0000000e+00 0.0000000e+00 1.2000000e+01 
3.3000000e+00 0.0000000e+00 1.2000000e+01 
3.5999999e+00 0.0000000e+00 1.2000000e+01 
3.9000001e+00 0.0000000e+00 1.2000000e+01 
4.1999998e+00 0.0000000e+00 1.2000000e+01 
4.5000000e+00 0.0000000e+00 1.2000000e+01 
4.8000002e+00 0.0000000e+00 1.2000000e+01 
5.0999999e+00 0.0000000e+00 1.2000000e+01 
5.4000001e+00 0.0000000e+00 1.2000000e+01 
5.6999998e+00 0.0000000e+00 1.2000000e+01 
3.0000001e-01 0.0000000e+00 1.5000000e+01 
6.0000002e-01 0.0000000e+00 1.5000000e+01 
8.9999998e-01 0.0000000e+00 1.5000000e+01 
1.2000000e+00 0.0000000e+00 1.5000000e+01 
1.5000000e+00 0.0000000e+00 1.5000000e+01 
1.8000000e+00 0.0000000e+00 1.5000000e+01 
2.0999999e+00 0.0000000e+00 1.5000000e+01 
2.4000001e+00 0.0000000e+00 1.5000000e+01 
2.7000000e+00 0.0000000e+00 1.5000000e+01 
3.0000000e+00 0.0000000e+00 1.5000000e+01 
3.3000000e+00 0.0000000e+00 1.5000000e+01 
3.5999999e+00 0.0000000e+00 1.5000000e+01 
3.9000001e+00 0.0000000e+00 1.5000000e+01 
4.1999998e+00 0.0000000e+00 1.5000000e+01 
4.5000000e+00 0.0000000e+00 1.5000000e+01 
4.8000002e+00 0.0000000e+00 1.5000000e+01 
5.0999999e+00 0.0000000e+00 1.5000000e+01 
5.4000001e+00 0.0000000e+00 1.5000000e+01 
5.6999998e+00 0.0000000e+00 1.5000000e+01 
3.0000001e-01 0.0000000e+00 1.8000000e+01 
6.0000002e-01 0.0000000e+00 1.8000000e+01 
8.9999998e-01 0.0000000e+00 1.8000000e+01 
1.2000000e+00 0.0000000e+00 1.8000000e+01 
1.5000000e+00 0.0000000e+00 1.8000000e+01 
1.8000000e+00 0.0000000e+00 1.8000000e+01 
2.0999999e+00 0.0000000e+00 1.8000000e+01 
2.4000001e+00 0.0000000e+00 1.8000000e+01 
2.7000000e+00 0.0000000e+00 1.8000000e+01 
3.0000000e+00 0.0000000e+00 1.8000000e+01 
3.3000000e+00 0.0000000e+00 1.8000000e+01 
3.5999999e+00 0.0000000e+00 1.8000000e+01 
3.9000001e+00 0.0000000e+00 1.8000000e+01 
4.1999998e+00 0.0000000e+00 1.8000000e+01 
4.5000000e+00 0.0000000e+00 1.8000000e+01 
4.8000002e+00 0.0000000e+00 1.8000000e+01 
5.0999999e+00 0.0000000e+00 1.8000000e+01 
5.4000001e+00 0.0000000e+00 1.8000000e+01 
5.6999998e+00 0.0000000e+00 1.8000000e+01 

CELLS 360 1080
2 0 1
2 1 2
2 2 3
2 3 4
2 4 5
2 5 6
2 6 7
2 7 8
2 8 9
2 9 10
2 10 11
2 11 12
2 12 13
2 13 14
2 14 15
2 15 16
2 16 17
2 17 18
2 18 19
2 19 20
2 20 21
2 21 22
2 22 23
2 23 24
2 24 25
2 25 26
2 26 27
2 27 28
2 28 29
2 29 30
2 30 31
2 31 32
2 32 33
2 33 34
2 34 35
2 35 36
2 36 37
2 37 38
2 38 39
2 39 40
2 40 41
2 41 42
2 42 43
2 43 44
2 44 45
2 45 46
2 46 47
2 47 48
2 48 49
2 49 50
2 50 51
2 51 52
2 52 53
2 53 54
2 54 55
2 55 56
2 56 57
2 57 58
2 58 59
2 59 60
2 60 61
2 61 62
2 62 63
2 63 64
2 64 65
2 65 66
2 66 67
2 67 68
2 68 69
2 69 70
2 70 71
2 71 72
2 72 73
2 73 74
2 74 75
2 75 76
2 76 77
2 77 78
2 78 79
2 79 80
2 80 81
2 81 82
2 82 83
2 83 84
2 84 85
2 85 86
2 86 87
2 87 88
2 88 89
2 89 90
2 90 91
2 91 92
2 92 93
2 93 94
2 94 95
2 95 96
2 96 97
2 97 98
2 98 99
2 99 100
2 100 101
2 101 102
2 102 103
2 103 104
2 104 105
2 105 106
2 106 107
2 107 108
2 108 109
2 109 110
2 110 111
2 111 112
2 112 113
2 113 114
2 114 115
2 115 116
2 116 117
2 117 118
2 118 119
2 119 120
2 121 122
2 122 123
2 123 124
2 124 125
2 125 126
2 126 127
2 127 128
2 128 129
2 129 130
2 130 131
2 131 132
2 132 133
2 133 134
2 134 135
2 135 136
2 136 137
2 137 138
2 138 139
2 139 140
2 140 141
2 141 142
2 142 143
2 143 144
2 144 145
2 145 146
2 146 147
2 147 148
2 148 149
2 149 150
2 150 151
2 151 152
2 152 153
2 153 154
2 154 155
2 155 156
2 156 157
2 157 158
2 158 159
2 159 160
2 160 161
2 161 162
2 162 163
2 163 164
2 164 165
2 165 166
2 166 167
2 167 168
2 168 169
2 169 170
2 170 171
2 171 172
2 172 173
2 173 174
2 174 175
2 175 176
2 176 177
2 177 178
2 178 179
2 179 180
2 180 181
2 181 182
2 182 183
2 183 184
2 184 185
2 185 186
2 186 187
2 187 188
2 188 189
2 189 190
2 190 191
2 191 192
2 192 193
2 193 194
2 194 195
2 195 196
2 196 197
2 197 198
2 198 199
2 199 200
2 200 201
2 201 202
2 202 203
2 203 204
2 204 205
2 205 206
2 206 207
2 207 208
2 208 209
2 209 210
2 210 211
2 211 212
2 212 213
2 213 214
2 214 215
2 215 216
2 216 217
2 217 218
2 218 219
2 219 220
2 220 221
2 221 222
2 222 223
2 223 224
2 224 225
2 225 226
2 226 227
2 227 228
2 228 229
2 229 230
2 230 231
2 231 232
2 232 233
2 233 234
2 234 235
2 235 236
2 236 237
2 237 238
2 238 239
2 239 240
2 240 241
2 20 242
2 242 243
2 243 244
2 244 245
2 245 246
2 246 247
2 247 248
2 248 249
2 249 250
2 250 251
2 251 252
2 252 253
2 253 254
2 254 255
2 255 256
2 256 257
2 257 258
2 258 259
2 259 260
2 260 141
2 40 261
2 261 262
2 262 263
2 263 264
2 264 265
2 265 266
2 266 267
2 267 268
2 268 269
2 269 270
2 270 271
2 271 272
2 272 273
2 273 274
2 274 275
2 275 276
2 276 277
2 277 278
2 278 279
2 279 161
2 60 280
2 280 281
2 281 282
2 282 283
2 283 284
2 284 285
2 285 286
2 286 287
2 287 288
2 288 289
2 289 290
2 290 291
2 291 292
2 292 293
2 293 294
2 294 295
2 295 296
2 296 297
2 297 298
2 298 181
2 80 299
2 299 300
2 300 301
2 301 302
2 302 303
2 303 304
2 304 305
2 305 306
2 306 307
2 307 308
2 308 309
2 309 310
2 310 311
2 311 312
2 312 313
2 313 314
2 314 315
2 315 316
2 316 317
2 317 201
2 100 318
2 318 319
2 319 320
2 320 321
2 321 322
2 322 323
2 323 324
2 324 325
2 325 326
2 326 327
2 327 328
2 328 329
2 329 330
2 330 331
2 331 332
2 332 333
2 333 334
2 334 335
2 335 336
2 336 221
2 120 337
2 337 338
2 338 339
2 339 340
2 340 341
2 341 342
2 342 343
2 343 344
2 344 345
2 345 346
2 346 347
2 347 348
2 348 349
2 349 350
2 350 351
2 351 352
2 352 353
2 353 354
2 354 355
2 355 241

CELL_TYPES 360
3
3
3
3
3
3
3
3
3
3
3
3
3
3
3
3
3
3
3
3
3
3
3
3
3
3
3
3
3
3
3
3
3
3
3
3
3
3
3
3
3
3
3
3
3
3
3
3
3
3
3
3
3
3
3
3
3
3
3
3
3
3
3
3
3
3
3
3
3
3
3
3
3
3
3
3
3
3
3
3
3
3
3
3
3
3
3
3
3
3
3
3
3
3
3
3
3
3
3
3
3
3
3
3
3
3
3
3
3
3
3
3
3
3
3
3
3
3
3
3
3
3
3
3
3
3
3
3
3
3
3
3
3
3
3
3
3
3
3
3
3
3
3
3
3
3
3
3
3
3
3
3
3
3
3
3
3
3
3
3
3
3
3
3
3
3
3
3
3
3
3
3
3
3
3
3
3
3
3
3
3
3
3
3
3
3
3
3
3
3
3
3
3
3
3
3
3
3
3
3
3
3
3
3
3
3
3
3
3
3
3
3
3
3
3
3
3
3
3
3
3
3
3
3
3
3
3
3
3
3
3
3
3
3
3
3
3
3
3
3
3
3
3
3
3
3
3
3
3
3
3
3
3
3
3
3
3
3
3
3
3
3
3
3
3
3
3
3
3
3
3
3
3
3
3
3
3
3
3
3
3
3
3
3
3
3
3
3
3
3
3
3
3
3
3
3
3
3
3
3
3
3
3
3
3
3
3
3
3
3
3
3
3
3
3
3
3
3
3
3
3
3
3
3
3
3
3
3
3
3
3
3
3
3
3
3
3
3
3
3
3
3
3
3
3
3
3
3
3
3
3
3
3
3
3
3
3
3
3
3
POINT_DATA 356
FIELD FieldData 3
ADJOINT_DISPLACEMENT 3 356  float
0.0000000e+00 0.0000000e+00 0.0000000e+00 
-1.2402498e-06 0.0000000e+00 1.6219075e-06 
-4.9897899e-06 0.0000000e+00 3.2438149e-06 
-1.1291806e-05 0.0000000e+00 4.8657225e-06 
-2.0189485e-05 0.0000000e+00 6.4876299e-06 
-3.1726013e-05 0.0000000e+00 8.1095377e-06 
-4.5944573e-05 0.0000000e+00 9.7314451e-06 
-6.2888350e-05 0.0000000e+00 1.1353352e-05 
-8.2600542e-05 0.0000000e+00 1.2975260e-05 
-1.0512432e-04 0.0000000e+00 1.4597167e-05 
-1.3050287e-04 0.0000000e+00 1.6219075e-05 
-1.5877940e-04 0.0000000e+00 1.7840983e-05 
-1.8999707e-04 0.0000000e+00 1.9462890e-05 
-2.2419907e-04 0.0000000e+00 2.1084797e-05 
-2.6142859e-04 0.0000000e+00 2.2706705e-05 
-3.0172884e-04 0.0000000e+00 2.4328612e-05 
-3.4514297e-04 0.0000000e+00 2.5950520e-05 
-3.9171416e-04 0.0000000e+00 2.7572427e-05 
-4.4148564e-04 0.0000000e+00 2.9194334e-05 
-4.9450056e-04 0.0000000e+00 3.0816242e-05 
-5.5080210e-04 0.0000000e+00 3.2438151e-05 
-6.1265810e-04 0.0000000e+00 3.9466420e-05 
-6.8203261e-04 0.0000000e+00 4.6494690e-05 
-7.5851340e-04 0.0000000e+00 5.3522963e-05 
-8.4168825e-04 0.0000000e+00 6.0551232e-05 
-9.3114487e-04 0.0000000e+00 6.7579502e-05 
-1.0264710e-03 0.0000000e+00 7.4607771e-05 
-1.1272546e-03 0.0000000e+00 8.1636048e-05 
-1.2330831e-03 0.0000000e+00 8.8664317e-05 
-1.3435445e-03 0.0000000e+00 9.5692587e-05 
-1.4582264e-03 0.0000000e+00 1.0272086e-04 
-1.5767167e-03 0.0000000e+00 1.0974913e-04 
-1.6986029e-03 0.0000000e+00 1.1677740e-04 
-1.8234730e-03 0.0000000e+00 1.2380567e-04 
-1.9509146e-03 0.0000000e+00 1.3083394e-04 
-2.0805157e-03 0.0000000e+00 1.3786221e-04 
-2.2118636e-03 0.0000000e+00 1.4489048e-04 
-2.3445466e-03 0.0000000e+00 1.5191875e-04 
-2.4781520e-03 0.0000000e+00 1.5894702e-04 
-2.6122679e-03 0.0000000e+00 1.6597530e-04 
-2.7464817e-03 0.0000000e+00 1.7300357e-04 
-2.8879615e-03 0.0000000e+00 2.0886578e-04 
-3.0426185e-03 0.0000000e+00 2.4472797e-04 
-3.2081546e-03 0.0000000e+00 2.8059020e-04 
-3.3822723e-03 0.0000000e+00 3.1645241e-04 
-3.5626737e-03 0.0000000e+00 3.5231462e-04 
-3.7470609e-03 0.0000000e+00 3.8817682e-04 
-3.9331364e-03 0.0000000e+00 4.2403903e-04 
-4.1186023e-03 0.0000000e+00 4.5990123e-04 
-4.3011606e-03 0.0000000e+00 4.9576344e-04 
-4.4785137e-03 0.0000000e+00 5.3162564e-04 
-4.6483641e-03 0.0000000e+00 5.6748785e-04 
-4.8084138e-03 0.0000000e+00 6.0335005e-04 
-4.9563651e-03 0.0000000e+00 6.3921226e-04 
-5.0899200e-03 0.0000000e+00 6.7507447e-04 
-5.2067805e-03 0.0000000e+00 7.1093667e-04 
-5.3046499e-03 0.0000000e+00 7.4679888e-04 
-5.3812293e-03 0.0000000e+00 7.8266108e-04 
-5.4342216e-03 0.0000000e+00 8.1852329e-04 
-5.4613287e-03 0.0000000e+00 8.5438549e-04 
-5.4602525e-03 0.0000000e+00 8.9024776e-04 
-5.4517407e-03 0.0000000e+00 1.0744845e-03 
-5.4568364e-03 0.0000000e+00 1.2587215e-03 
-5.4736850e-03 0.0000000e+00 1.4429583e-03 
-5.5004340e-03 0.0000000e+00 1.6271950e-03 
-5.5352291e-03 0.0000000e+00 1.8114320e-03 
-5.5762171e-03 0.0000000e+00 1.9956687e-03 
-5.6215446e-03 0.0000000e+00 2.1799055e-03 
-5.6693573e-03 0.0000000e+00 2.3641426e-03 
-5.7178023e-03 0.0000000e+00 2.5483794e-03 
-5.7650255e-03 0.0000000e+00 2.7326162e-03 
-5.8091739e-03 0.0000000e+00 2.9168529e-03 
-5.8483933e-03 0.0000000e+00 3.1010897e-03 
-5.8808308e-03 0.0000000e+00 3.2853268e-03 
-5.9046326e-03 0.0000000e+00 3.4695636e-03 
-5.9179445e-03 0.0000000e+00 3.6538003e-03 
-5.9189135e-03 0.0000000e+00 3.8380371e-03 
-5.9056864e-03 0.0000000e+00 4.0222742e-03 
-5.8764089e-03 0.0000000e+00 4.2065107e-03 
-5.8292272e-03 0.0000000e+00 4.3907478e-03 
-5.7622888e-03 0.0000000e+00 4.5749848e-03 
-5.7965256e-03 0.0000000e+00 5.5217189e-03 
-6.0713845e-03 0.0000000e+00 6.4684530e-03 
-6.6127852e-03 0.0000000e+00 7.4151875e-03 
-7.4466453e-03 0.0000000e+00 8.3619216e-03 
-8.5988836e-03 0.0000000e+00 9.3086557e-03 
-1.0095419e-02 0.0000000e+00 1.0255390e-02 
-1.1962170e-02 0.0000000e+00 1.1202125e-02 
-1.4225055e-02 0.0000000e+00 1.2148859e-02 
-1.6909992e-02 0.0000000e+00 1.3095593e-02 
-2.0042900e-02 0.0000000e+00 1.4042327e-02 
-2.3649698e-02 0.0000000e+00 1.4989061e-02 
-2.7756305e-02 0.0000000e+00 1.5935795e-02 
-3.2388639e-02 0.0000000e+00 1.6882529e-02 
-3.7572619e-02 0.0000000e+00 1.7829265e-02 
-4.3334160e-02 0.0000000e+00 1.8776000e-02 
-4.9699184e-02 0.0000000e+00 1.9722734e-02 
-5.6693610e-02 0.0000000e+00 2.0669468e-02 
-6.4343356e-02 0.0000000e+00 2.1616202e-02 
-7.2674341e-02 0.0000000e+00 2.2562936e-02 
-8.1712484e-02 0.0000000e+00 2.3509670e-02 
-9.2349917e-02 0.0000000e+00 2.8374683e-02 
-1.0553513e-01 0.0000000e+00 3.3239696e-02 
-1.2137855e-01 0.0000000e+00 3.8104709e-02 
-1.3999060e-01 0.0000000e+00 4.2969722e-02 
-1.6148169e-01 0.0000000e+00 4.7834735e-02 
-1.8596226e-01 0.0000000e+00 5.2699745e-02 
-2.1354274e-01 0.0000000e+00 5.7564758e-02 
-2.4433354e-01 0.0000000e+00 6.2429771e-02 
-2.7844509e-01 0.0000000e+00 6.7294784e-02 
-3.1598783e-01 0.0000000e+00 7.2159797e-02 
-3.5707217e-01 0.0000000e+00 7.7024810e-02 
-4.0180853e-01 0.0000000e+00 8.1889823e-02 
-4.5030737e-01 0.0000000e+00 8.6754836e-02 
-5.0267905e-01 0.0000000e+00 9.1619849e-02 
-5.5903405e-01 0.0000000e+00 9.6484862e-02 
-6.1948282e-01 0.0000000e+00 1.0134988e-01 
-6.8413574e-01 0.0000000e+00 1.0621489e-01 
-7.5310320e-01 0.0000000e+00 1.1107990e-01 
-8.2649565e-01 0.0000000e+00 1.1594491e-01 
-9.0442359e-01 0.0000000e+00 1.2080992e-01 
0.0000000e+00 0.0000000e+00 0.0000000e+00 
5.1039063e-07 0.0000000e+00 -1.6219075e-06 
2.0703533e-06 0.0000000e+00 -3.2438149e-06 
4.7230737e-06 0.0000000e+00 -4.8657225e-06 
8.5117381e-06 0.0000000e+00 -6.4876299e-06 
1.3479532e-05 0.0000000e+00 -8.1095377e-06 
1.9669642e-05 0.0000000e+00 -9.7314451e-06 
2.7125252e-05 0.0000000e+00 -1.1353352e-05 
3.5889552e-05 0.0000000e+00 -1.2975260e-05 
4.6005724e-05 0.0000000e+00 -1.4597167e-05 
5.7516954e-05 0.0000000e+00 -1.6219075e-05 
7.0466434e-05 0.0000000e+00 -1.7840983e-05 
8.4897343e-05 0.0000000e+00 -1.9462890e-05 
1.0085287e-04 0.0000000e+00 -2.1084797e-05 
1.1837620e-04 0.0000000e+00 -2.2706705e-05 
1.3751052e-04 0.0000000e+00 -2.4328612e-05 
1.5829901e-04 0.0000000e+00 -2.5950520e-05 
1.8078486e-04 0.0000000e+00 -2.7572427e-05 
2.0501127e-04 0.0000000e+00 -2.9194334e-05 
2.3102140e-04 0.0000000e+00 -3.0816242e-05 
2.5885846e-04 0.0000000e+00 -3.2438151e-05 
2.8835732e-04 0.0000000e+00 -3.9466420e-05 
3.1904929e-04 0.0000000e+00 -4.6494690e-05 
3.5052211e-04 0.0000000e+00 -5.3522963e-05 
3.8236353e-04 0.0000000e+00 -6.0551232e-05 
4.1416133e-04 0.0000000e+00 -6.7579502e-05 
4.4550319e-04 0.0000000e+00 -7.4607771e-05 
4.7597694e-04 0.0000000e+00 -8.1636048e-05 
5.0517026e-04 0.0000000e+00 -8.8664317e-05 
5.3267099e-04 0.0000000e+00 -9.5692587e-05 
5.5806682e-04 0.0000000e+00 -1.0272086e-04 
5.8094552e-04 0.0000000e+00 -1.0974913e-04 
6.0089480e-04 0.0000000e+00 -1.1677740e-04 
6.1750249e-04 0.0000000e+00 -1.2380567e-04 
6.3035625e-04 0.0000000e+00 -1.3083394e-04 
6.3904392e-04 0.0000000e+00 -1.3786221e-04 
6.4315321e-04 0.0000000e+00 -1.4489048e-04 
6.4227189e-04 0.0000000e+00 -1.5191875e-04 
6.3598767e-04 0.0000000e+00 -1.5894702e-04 
6.2388834e-04 0.0000000e+00 -1.6597529e-04 
6.0556165e-04 0.0000000e+00 -1.7300357e-04 
5.7520031e-04 0.0000000e+00 -2.0886578e-04 
5.2573998e-04 0.0000000e+00 -2.4472797e-04 
4.5488289e-04 0.0000000e+00 -2.8059020e-04 
3.6033129e-04 0.0000000e+00 -3.1645241e-04 
2.3978742e-04 0.0000000e+00 -3.5231462e-04 
9.0953494e-05 0.0000000e+00 -3.8817682e-04 
-8.8468267e-05 0.0000000e+00 -4.2403903e-04 
-3.0077563e-04 0.0000000e+00 -4.5990123e-04 
-5.4826640e-04 0.0000000e+00 -4.9576344e-04 
-8.3323824e-04 0.0000000e+00 -5.3162564e-04 
-1.1579890e-03 0.0000000e+00 -5.6748785e-04 
-1.5248166e-03 0.0000000e+00 -6.0335005e-04 
-1.9360186e-03 0.0000000e+00 -6.3921226e-04 
-2.3938927e-03 0.0000000e+00 -6.7507447e-04 
-2.9007369e-03 0.0000000e+00 -7.1093667e-04 
-3.4588489e-03 0.0000000e+00 -7.4679888e-04 
-4.0705265e-03 0.0000000e+00 -7.8266108e-04 
-4.7380673e-03 0.0000000e+00 -8.1852329e-04 
-5.4637692e-03 0.0000000e+00 -8.5438549e-04 
-6.2499302e-03 0.0000000e+00 -8.9024776e-04 
-7.1425717e-03 0.0000000e+00 -1.0744845e-03 
-8.1874188e-03 0.0000000e+00 -1.2587215e-03 
-9.3863262e-03 0.0000000e+00 -1.4429583e-03 
-1.0741146e-02 0.0000000e+00 -1.6271950e-03 
-1.2253733e-02 0.0000000e+00 -1.8114320e-03 
-1.3925941e-02 0.0000000e+00 -1.9956687e-03 
-1.5759623e-02 0.0000000e+00 -2.1799055e-03 
-1.7756632e-02 0.0000000e+00 -2.3641426e-03 
-1.9918822e-02 0.0000000e+00 -2.5483794e-03 
-2.2248046e-02 0.0000000e+00 -2.7326162e-03 
-2.4746159e-02 0.0000000e+00 -2.9168529e-03 
-2.7415013e-02 0.0000000e+00 -3.1010897e-03 
-3.0256463e-02 0.0000000e+00 -3.2853268e-03 
-3.3272363e-02 0.0000000e+00 -3.4695636e-03 
-3.6464565e-02 0.0000000e+00 -3.6538003e-03 
-3.9834920e-02 0.0000000e+00 -3.8380371e-03 
-4.3385290e-02 0.0000000e+00 -4.0222742e-03 
-4.7117520e-02 0.0000000e+00 -4.2065107e-03 
-5.1033467e-02 0.0000000e+00 -4.3907478e-03 
-5.5134986e-02 0.0000000e+00 -4.5749848e-03 
-5.9644267e-02 0.0000000e+00 -5.5217189e-03 
-6.4764984e-02 0.0000000e+00 -6.4684530e-03 
-7.0471220e-02 0.0000000e+00 -7.4151875e-03 
-7.6737061e-02 0.0000000e+00 -8.3619216e-03 
-8.3536580e-02 0.0000000e+00 -9.3086557e-03 
-9.0843871e-02 0.0000000e+00 -1.0255390e-02 
-9.8632999e-02 0.0000000e+00 -1.1202125e-02 
-1.0687806e-01 0.0000000e+00 -1.2148859e-02 
-1.1555313e-01 0.0000000e+00 -1.3095593e-02 
-1.2463228e-01 0.0000000e+00 -1.4042327e-02 
-1.3408960e-01 0.0000000e+00 -1.4989061e-02 
-1.4389919e-01 0.0000000e+00 -1.5935795e-02 
-1.5403511e-01 0.0000000e+00 -1.6882529e-02 
-1.6447143e-01 0.0000000e+00 -1.7829265e-02 
-1.7518225e-01 0.0000000e+00 -1.8776000e-02 
-1.8614165e-01 0.0000000e+00 -1.9722734e-02 
-1.9732372e-01 0.0000000e+00 -2.0669468e-02 
-2.0870253e-01 0.0000000e+00 -2.1616202e-02 
-2.2025216e-01 0.0000000e+00 -2.2562936e-02 
-2.3194669e-01 0.0000000e+00 -2.3509670e-02 
-2.4465720e-01 0.0000000e+00 -2.8374683e-02 
-2.5919846e-01 0.0000000e+00 -3.3239696e-02 
-2.7546003e-01 0.0000000e+00 -3.8104709e-02 
-2.9333147e-01 0.0000000e+00 -4.2969722e-02 
-3.1270239e-01 0.0000000e+00 -4.7834735e-02 
-3.3346233e-01 0.0000000e+00 -5.2699745e-02 
-3.5550088e-01 0.0000000e+00 -5.7564758e-02 
-3.7870762e-01 0.0000000e+00 -6.2429771e-02 
-4.0297210e-01 0.0000000e+00 -6.7294784e-02 
-4.2818394e-01 0.0000000e+00 -7.2159797e-02 
-4.5423266e-01 0.0000000e+00 -7.7024810e-02 
-4.8100790e-01 0.0000000e+00 -8.1889823e-02 
-5.0839919e-01 0.0000000e+00 -8.6754836e-02 