# vtk DataFile Version 4.0
vtk output
ASCII
DATASET UNSTRUCTURED_GRID
POINTS 30 float
0.0000000e+00 0.0000000e+00 0.0000000e+00 
0.0000000e+00 0.0000000e+00 8.0000001e-01 
0.0000000e+00 0.0000000e+00 1.6000000e+00 
0.0000000e+00 0.0000000e+00 2.4000001e+00 
0.0000000e+00 0.0000000e+00 3.2000000e+00 
0.0000000e+00 0.0000000e+00 4.0000000e+00 
0.0000000e+00 0.0000000e+00 4.8000002e+00 
0.0000000e+00 0.0000000e+00 5.5999999e+00 
0.0000000e+00 0.0000000e+00 6.4000001e+00 
0.0000000e+00 0.0000000e+00 7.1999998e+00 
0.0000000e+00 0.0000000e+00 8.0000000e+00 
1.0000000e+01 0.0000000e+00 0.0000000e+00 
1.0000000e+01 0.0000000e+00 8.0000001e-01 
1.0000000e+01 0.0000000e+00 1.6000000e+00 
1.0000000e+01 0.0000000e+00 2.4000001e+00 
1.0000000e+01 0.0000000e+00 3.2000000e+00 
1.0000000e+01 0.0000000e+00 4.0000000e+00 
1.0000000e+01 0.0000000e+00 4.8000002e+00 
1.0000000e+01 0.0000000e+00 5.5999999e+00 
1.0000000e+01 0.0000000e+00 6.4000001e+00 
1.0000000e+01 0.0000000e+00 7.1999998e+00 
1.0000000e+01 0.0000000e+00 8.0000000e+00 
2.0000000e+00 0.0000000e+00 4.0000000e+00 
4.0000000e+00 0.0000000e+00 4.0000000e+00 
6.0000000e+00 0.0000000e+00 4.0000000e+00 
8.0000000e+00 0.0000000e+00 4.0000000e+00 
2.0000000e+00 0.0000000e+00 8.0000000e+00 
4.0000000e+00 0.0000000e+00 8.0000000e+00 
6.0000000e+00 0.0000000e+00 8.0000000e+00 
8.0000000e+00 0.0000000e+00 8.0000000e+00 

CELLS 30 90
2 0 1
2 1 2
2 2 3
2 3 4
2 4 5
2 5 6
2 6 7
2 7 8
2 8 9
2 9 10
2 11 12
2 12 13
2 13 14
2 14 15
2 15 16
2 16 17
2 17 18
2 18 19
2 19 20
2 20 21
2 5 22
2 22 23
2 23 24
2 24 25
2 25 16
2 10 26
2 26 27
2 27 28
2 28 29
2 29 21

CELL_TYPES 30
3
3
3
3
3
3
3
3
3
3
3
3
3
3
3
3
3
3
3
3
3
3
3
3
3
3
3
3
3
3
POINT_DATA 30
FIELD FieldData 7
DISPLACEMENT 3 30  float
0.0000000e+00 0.0000000e+00 0.0000000e+00 
4.3808571e-03 0.0000000e+00 2.5643524e-06 
8.5496316e-03 0.0000000e+00 5.1287047e-06 
1.2311949e-02 0.0000000e+00 7.9545425e-06 
1.5544273e-02 0.0000000e+00 1.0780381e-05 
1.8128820e-02 0.0000000e+00 1.6809254e-05 
2.0361505e-02 0.0000000e+00 1.8432602e-05 
2.2548279e-02 0.0000000e+00 1.8828498e-05 
2.4610408e-02 0.0000000e+00 1.9876601e-05 
2.6391502e-02 0.0000000e+00 2.0430971e-05 
2.7648034e-02 0.0000000e+00 2.0985339e-05 
0.0000000e+00 0.0000000e+00 0.0000000e+00 
4.5435685e-03 0.0000000e+00 -8.5053189e-06 
8.8204825e-03 0.0000000e+00 -1.7413877e-05 
1.2613325e-02 0.0000000e+00 -2.6322434e-05 
1.5742917e-02 0.0000000e+00 -3.5991627e-05 
1.8124523e-02 0.0000000e+00 -4.4708169e-05 
2.0166775e-02 0.0000000e+00 -4.9521317e-05 
2.2263406e-02 0.0000000e+00 -5.3439944e-05 
2.4279764e-02 0.0000000e+00 -5.5851189e-05 
2.6107548e-02 0.0000000e+00 -5.8262438e-05 
2.7674222e-02 0.0000000e+00 -5.8941256e-05 
1.8125532e-02 0.0000000e+00 -2.8904160e-03 
1.8125281e-02 0.0000000e+00 -1.8415424e-03 
1.8125027e-02 0.0000000e+00 7.1720785e-04 
1.8124776e-02 0.0000000e+00 2.1835733e-03 
2.7660877e-02 0.0000000e+00 -1.9709977e-04 
2.7665181e-02 0.0000000e+00 1.8909744e-03 
2.7670871e-02 0.0000000e+00 3.3156087e-03 
2.7670275e-02 0.0000000e+00 2.6971288e-03 
ROTATION 3 30  float
0.0000000e+00 5.5202553e-03 0.0000000e+00 
0.0000000e+00 5.3877039e-03 0.0000000e+00 
0.0000000e+00 4.9900487e-03 0.0000000e+00 
0.0000000e+00 4.3936986e-03 0.0000000e+00 
0.0000000e+00 3.6650614e-03 0.0000000e+00 
0.0000000e+00 2.7593174e-03 0.0000000e+00 
0.0000000e+00 2.7844778e-03 0.0000000e+00 
0.0000000e+00 2.6757459e-03 0.0000000e+00 
0.0000000e+00 2.4459178e-03 0.0000000e+00 
0.0000000e+00 1.9526675e-03 0.0000000e+00 
0.0000000e+00 1.1345090e-03 0.0000000e+00 
0.0000000e+00 5.7375780e-03 0.0000000e+00 
0.0000000e+00 5.5632256e-03 0.0000000e+00 
0.0000000e+00 5.0863288e-03 0.0000000e+00 
0.0000000e+00 4.3530487e-03 0.0000000e+00 
0.0000000e+00 3.4606080e-03 0.0000000e+00 
0.0000000e+00 2.4715126e-03 0.0000000e+00 
0.0000000e+00 2.6131202e-03 0.0000000e+00 
0.0000000e+00 2.5968116e-03 0.0000000e+00 
0.0000000e+00 2.4233374e-03 0.0000000e+00 
0.0000000e+00 2.1253768e-03 0.0000000e+00 
0.0000000e+00 1.8043757e-03 0.0000000e+00 
0.0000000e+00 2.8674281e-04 0.0000000e+00 
0.0000000e+00 -1.1187611e-03 0.0000000e+00 
0.0000000e+00 -1.2231341e-03 0.0000000e+00 
0.0000000e+00 -2.6376149e-05 0.0000000e+00 
0.0000000e+00 -7.1612449e-04 0.0000000e+00 
0.0000000e+00 -1.0749946e-03 0.0000000e+00 
0.0000000e+00 -2.5295987e-04 0.0000000e+00 
0.0000000e+00 8.7760232e-04 0.0000000e+00 
REACTION 3 30  float
-1.3048054e+04 -0.0000000e+00 -6.7314248e+03 
-0.0000000e+00 -0.0000000e+00 -0.0000000e+00 
9.1586116e-10 -0.0000000e+00 1.8189894e-12 
-3.4924597e-09 -0.0000000e+00 -0.0000000e+00 
-4.9567461e-09 -0.0000000e+00 -5.4569682e-12 
-5.6988938e-09 -0.0000000e+00 -5.9480953e-10 
1.0200893e-08 -0.0000000e+00 -8.3809937e-10 
-2.0554580e-09 -0.0000000e+00 8.3673513e-11 
2.2737368e-09 -0.0000000e+00 2.3419489e-11 
1.0477379e-09 -0.0000000e+00 7.2759576e-12 
-2.8267095e-09 -0.0000000e+00 3.6379788e-12 
-1.7162834e+04 -0.0000000e+00 2.2326463e+04 
1.5315891e-09 -0.0000000e+00 -3.6379788e-11 
6.9849193e-10 -0.0000000e+00 2.1827873e-10 
-3.7834980e-10 -0.0000000e+00 -4.0017767e-11 
-5.1450115e-09 -0.0000000e+00 -1.4188117e-10 
-4.5401976e-09 -0.0000000e+00 -4.3801265e-09 
-4.2382453e-09 -0.0000000e+00 1.8189894e-12 
7.2705006e-09 -0.0000000e+00 1.5461410e-11 
-5.0058588e-09 -0.0000000e+00 -1.0186341e-09 
-2.6484486e-09 -0.0000000e+00 -1.8189894e-12 
2.2100721e-09 -0.0000000e+00 2.3455868e-09 
-1.7644197e-09 -0.0000000e+00 2.0227162e-09 
7.4505806e-09 -0.0000000e+00 -5.0931703e-11 
-0.0000000e+00 -0.0000000e+00 6.4756023e-10 
7.4505806e-09 -0.0000000e+00 1.6734703e-10 
1.9645086e-10 -0.0000000e+00 -1.4551915e-11 
-3.6197889e-09 -0.0000000e+00 -1.2732926e-11 
-2.9249350e-09 -0.0000000e+00 -1.8571882e-09 
6.6538632e-09 -0.0000000e+00 2.9103830e-11 
REACTION_MOMENT 3 30  float
-0.0000000e+00 4.6566129e-10 -0.0000000e+00 
-0.0000000e+00 8.1490725e-10 -0.0000000e+00 
-0.0000000e+00 2.4447218e-09 -0.0000000e+00 
-0.0000000e+00 -1.0477379e-09 -0.0000000e+00 
-0.0000000e+00 2.8521754e-09 -0.0000000e+00 
-0.0000000e+00 -8.8766683e-10 -0.0000000e+00 
-0.0000000e+00 6.6938810e-10 -0.0000000e+00 
-0.0000000e+00 3.7834980e-09 -0.0000000e+00 
-0.0000000e+00 2.3865141e-09 -0.0000000e+00 
-0.0000000e+00 -3.6379788e-10 -0.0000000e+00 
-0.0000000e+00 -7.1304385e-10 -0.0000000e+00 
-0.0000000e+00 5.8207661e-11 -0.0000000e+00 
-0.0000000e+00 -0.0000000e+00 -0.0000000e+00 
-0.0000000e+00 1.1641532e-10 -0.0000000e+00 
-0.0000000e+00 -2.3283064e-10 -0.0000000e+00 
-0.0000000e+00 -0.0000000e+00 -0.0000000e+00 
-0.0000000e+00 -5.3842086e-10 -0.0000000e+00 
-0.0000000e+00 6.4028427e-10 -0.0000000e+00 
-0.0000000e+00 4.0745363e-09 -0.0000000e+00 
-0.0000000e+00 2.9103830e-11 -0.0000000e+00 
-0.0000000e+00 -6.6938810e-10 -0.0000000e+00 
-0.0000000e+00 -5.3842086e-10 -0.0000000e+00 
-0.0000000e+00 -2.4738256e-10 -0.0000000e+00 
-0.0000000e+00 -1.6734703e-10 -0.0000000e+00 
-0.0000000e+00 -2.1827873e-10 -0.0000000e+00 
-0.0000000e+00 -0.0000000e+00 -0.0000000e+00 
-0.0000000e+00 -0.0000000e+00 -0.0000000e+00 
-0.0000000e+00 -7.2759576e-12 -0.0000000e+00 
-0.0000000e+00 -7.2759576e-12 -0.0000000e+00 
-0.0000000e+00 -2.9103830e-11 -0.0000000e+00 
VOLUME_ACCELERATION 3 30  float
0.0000000e+00 0.0000000e+00 0.0000000e+00 
0.0000000e+00 0.0000000e+00 0.0000000e+00 
0.0000000e+00 0.0000000e+00 0.0000000e+00 
0.0000000e+00 0.0000000e+00 0.0000000e+00 
0.0000000e+00 0.0000000e+00 0.0000000e+00 
0.0000000e+00 0.0000000e+00 0.0000000e+00 
0.0000000e+00 0.0000000e+00 0.0000000e+00 
0.0000000e+00 0.0000000e+00 0.0000000e+00 
0.0000000e+00 0.0000000e+00 0.0000000e+00 
0.0000000e+00 0.0000000e+00 0.0000000e+00 
0.0000000e+00 0.0000000e+00 0.0000000e+00 
0.0000000e+00 0.0000000e+00 0.0000000e+00 
0.0000000e+00 0.0000000e+00 0.0000000e+00 
0.0000000e+00 0.0000000e+00 0.0000000e+00 
0.0000000e+00 0.0000000e+00 0.0000000e+00 
0.0000000e+00 0.0000000e+00 0.0000000e+00 
0.0000000e+00 0.0000000e+00 0.0000000e+00 
0.0000000e+00 0.0000000e+00 0.0000000e+00 
0.0000000e+00 0.0000000e+00 0.0000000e+00 
0.0000000e+00 0.0000000e+00 0.0000000e+00 
0.0000000e+00 0.0000000e+00 0.0000000e+00 
0.0000000e+00 0.0000000e+00 0.0000000e+00 
0.0000000e+00 0.0000000e+00 0.0000000e+00 
0.0000000e+00 0.0000000e+00 0.0000000e+00 
0.0000000e+00 0.0000000e+00 0.0000000e+00 
0.0000000e+00 0.0000000e+00 0.0000000e+00 
0.0000000e+00 0.0000000e+00 0.0000000e+00 
0.0000000e+00 0.0000000e+00 0.0000000e+00 
0.0000000e+00 0.0000000e+00 0.0000000e+00 
0.0000000e+00 0.0000000e+00 0.0000000e+00 
POINT_LOAD 3 30  float
0.0000000e+00 0.0000000e+00 0.0000000e+00 
0.0000000e+00 0.0000000e+00 0.0000000e+00 
6.5370488e+03 0.0000000e+00 -6.8639941e+02 
0.0000000e+00 0.0000000e+00 0.0000000e+00 
-4.4119302e+03 0.0000000e+00 -8.4079658e+03 
3.1752292e+03 0.0000000e+00 5.0045415e+03 
9.2173320e+03 0.0000000e+00 3.2220654e+03 
-7.9576895e+03 0.0000000e+00 -1.7120455e+03 
-6.0525381e+03 0.0000000e+00 1.2960543e+03 
0.0000000e+00 0.0000000e+00 0.0000000e+00 
2.5059541e+03 0.0000000e+00 -8.0089287e+03 
0.0000000e+00 0.0000000e+00 0.0000000e+00 
4.5439775e+03 0.0000000e+00 1.0585021e+03 
0.0000000e+00 0.0000000e+00 0.0000000e+00 
9.5703164e+03 0.0000000e+00 1.9966672e+03 
-3.4173425e+03 0.0000000e+00 -2.5007104e+03 
0.0000000e+00 0.0000000e+00 0.0000000e+00 
-3.1429971e+03 0.0000000e+00 -2.3481213e+03 
3.2168784e+03 0.0000000e+00 -3.9568684e+03 
0.0000000e+00 0.0000000e+00 0.0000000e+00 
9.9860566e+03 0.0000000e+00 -4.5476299e+03 
2.8507199e+02 0.0000000e+00 -5.2827515e+03 
-3.1860349e+03 0.0000000e+00 -3.6864492e+03 
0.0000000e+00 0.0000000e+00 0.0000000e+00 
0.0000000e+00 0.0000000e+00 0.0000000e+00 
0.0000000e+00 0.0000000e+00 0.0000000e+00 
8.9655986e+03 0.0000000e+00 -4.5669790e+03 
-1.4543905e+03 0.0000000e+00 9.4629990e+03 
6.5992930e+03 0.0000000e+00 4.2769453e+03 
-4.7689453e+03 0.0000000e+00 3.7920374e+03 
POINT_MOMENT 3 30  float
0.0000000e+00 0.0000000e+00 0.0000000e+00 
0.0000000e+00 0.0000000e+00 0.0000000e+00 
0.0000000e+00 0.0000000e+00 0.0000000e+00 
0.0000000e+00 0.0000000e+00 0.0000000e+00 
0.0000000e+00 0.0000000e+00 0.0000000e+00 
0.0000000e+00 0.0000000e+00 0.0000000e+00 
0.0000000e+00 0.0000000e+00 0.0000000e+00 
0.0000000e+00 0.0000000e+00 0.0000000e+00 
0.0000000e+00 0.0000000e+00 0.0000000e+00 
0.0000000e+00 0.0000000e+00 0.0000000e+00 
0.0000000e+00 0.0000000e+00 0.0000000e+00 
0.0000000e+00 0.0000000e+00 0.0000000e+00 
0.0000000e+00 0.0000000e+00 0.0000000e+00 
0.0000000e+00 0.0000000e+00 0.0000000e+00 
0.0000000e+00 0.0000000e+00 0.0000000e+00 
0.0000000e+00 0.0000000e+00 0.0000000e+00 
0.0000000e+00 0.0000000e+00 0.0000000e+00 
0.0000000e+00 0.0000000e+00 0.0000000e+00 
0.0000000e+00 0.0000000e+00 0.0000000e+00 
0.0000000e+00 0.0000000e+00 0.0000000e+00 
0.0000000e+00 0.0000000e+00 0.0000000e+00 
0.0000000e+00 0.0000000e+00 0.0000000e+00 
0.0000000e+00 0.0000000e+00 0.0000000e+00 
0.0000000e+00 0.0000000e+00 0.0000000e+00 
0.0000000e+00 0.0000000e+00 0.0000000e+00 
0.0000000e+00 0.0000000e+00 0.0000000e+00 
0.0000000e+00 0.0000000e+00 0.0000000e+00 
0.0000000e+00 0.0000000e+00 0.0000000e+00 
0.0000000e+00 0.0000000e+00 0.0000000e+00 
0.0000000e+00 0.0000000e+00 0.0000000e+00 
CELL_DATA 30
FIELD FieldData 9
YOUNG_MODULUS 1 30  float
2.1000000e+11
2.1000000e+11
2.1000000e+11
2.1000000e+11
2.1000000e+11
2.1000000e+11
2.1000000e+11
2.1000000e+11
2.1000000e+11
2.1000000e+11
2.1000000e+11
2.1000000e+11
2.1000000e+11
2.1000000e+11
2.1000000e+11
2.1000000e+11
2.1000000e+11
2.1000000e+11
2.1000000e+11
2.1000000e+11
2.1000000e+11
2.1000000e+11
2.1000000e+11
2.1000000e+11
2.1000000e+11
2.1000000e+11
2.1000000e+11
2.1000000e+11
2.1000000e+11
2.1000000e+11
DENSITY 1 30  float
7.8500000e+03
7.8500000e+03
7.8500000e+03
7.8500000e+03
7.8500000e+03
7.8500000e+03
7.8500000e+03
7.8500000e+03
7.8500000e+03
7.8500000e+03
7.8500000e+03
7.8500000e+03
7.8500000e+03
7.8500000e+03
7.8500000e+03
7.8500000e+03
7.8500000e+03
7.8500000e+03
7.8500000e+03
7.8500000e+03
7.8500000e+03
7.8500000e+03
7.8500000e+03
7.8500000e+03
7.8500000e+03
7.8500000e+03
7.8500000e+03
7.8500000e+03
7.8500000e+03
7.8500000e+03
CROSS_AREA 1 30  float
9.9999998e-03
9.9999998e-03
9.9999998e-03
9.9999998e-03
9.9999998e-03
9.9999998e-03
9.9999998e-03
9.9999998e-03
9.9999998e-03
9.9999998e-03
9.9999998e-03
9.9999998e-03
9.9999998e-03
9.9999998e-03
9.9999998e-03
9.9999998e-03
9.9999998e-03
9.9999998e-03
9.9999998e-03
9.9999998e-03
9.9999998e-03
9.9999998e-03
9.9999998e-03
9.9999998e-03
9.9999998e-03
9.9999998e-03
9.9999998e-03
9.9999998e-03
9.9999998e-03
9.9999998e-03
I22 1 30  float
1.5000001e-04
1.5000001e-04
1.5000001e-04
1.5000001e-04
1.5000001e-04
1.5000001e-04
1.5000001e-04
1.5000001e-04
1.5000001e-04
1.5000001e-04
1.5000001e-04
1.5000001e-04
1.5000001e-04
1.5000001e-04
1.5000001e-04
1.5000001e-04
1.5000001e-04
1.5000001e-04
1.5000001e-04
1.5000001e-04
1.5000001e-04
1.5000001e-04
1.5000001e-04
1.5000001e-04
1.5000001e-04
1.5000001e-04
1.5000001e-04
1.5000001e-04
1.5000001e-04
1.5000001e-04
I33 1 30  float
1.5000001e-04
1.5000001e-04
1.5000001e-04
1.5000001e-04
1.5000001e-04
1.5000001e-04
1.5000001e-04
1.5000001e-04
1.5000001e-04
1.5000001e-04
1.5000001e-04
1.5000001e-04
1.5000001e-04
1.5000001e-04
1.5000001e-04
1.5000001e-04
1.5000001e-04
1.5000001e-04
1.5000001e-04
1.5000001e-04
1.5000001e-04
1.5000001e-04
1.5000001e-04
1.5000001e-04
1.5000001e-04
1.5000001e-04
1.5000001e-04
1.5000001e-04
1.5000001e-04
1.5000001e-04
TORSIONAL_INERTIA 1 30  float
3.0000001e-04
3.0000001e-04
3.0000001e-04
3.0000001e-04
3.0000001e-04
3.0000001e-04
3.0000001e-04
3.0000001e-04
3.0000001e-04
3.0000001e-04
3.0000001e-04
3.0000001e-04
3.0000001e-04
3.0000001e-04
3.0000001e-04
3.0000001e-04
3.0000001e-04
3.0000001e-04
3.0000001e-04
3.0000001e-04
3.0000001e-04
3.0000001e-04
3.0000001e-04
3.0000001e-04
3.0000001e-04
3.0000001e-04
3.0000001e-04
3.0000001e-04
3.0000001e-04
3.0000001e-04
POISSON_RATIO 1 30  float
3.0000001e-01
3.0000001e-01
3.0000001e-01
3.0000001e-01
3.0000001e-01
3.0000001e-01
3.0000001e-01
3.0000001e-01
3.0000001e-01
3.0000001e-01
3.0000001e-01
3.0000001e-01
3.0000001e-01
3.0000001e-01
3.0000001e-01
3.0000001e-01
3.0000001e-01
3.0000001e-01
3.0000001e-01
3.0000001e-01
3.0000001e-01
3.0000001e-01
3.0000001e-01
3.0000001e-01
3.0000001e-01
3.0000001e-01
3.0000001e-01
3.0000001e-01
3.0000001e-01
3.0000001e-01
MOMENT 3 30  float
0.0000000e+00 -5.2192217e+03 0.0000000e+00 
0.0000000e+00 -1.5657665e+04 0.0000000e+00 
0.0000000e+00 -2.3481287e+04 0.0000000e+00 
0.0000000e+00 -2.8690092e+04 0.0000000e+00 
0.0000000e+00 -3.5663668e+04 0.0000000e+00 
0.0000000e+00 9.9069080e+02 0.0000000e+00 
0.0000000e+00 -4.2813232e+03 0.0000000e+00 
0.0000000e+00 -9.0494805e+03 0.0000000e+00 
0.0000000e+00 -1.9421729e+04 0.0000000e+00 
0.0000000e+00 -3.2214990e+04 0.0000000e+00 
0.0000000e+00 -6.8651338e+03 0.0000000e+00 
0.0000000e+00 -1.8777811e+04 0.0000000e+00 
0.0000000e+00 -2.8872896e+04 0.0000000e+00 
0.0000000e+00 -3.5139855e+04 0.0000000e+00 
0.0000000e+00 -3.8945625e+04 0.0000000e+00 
0.0000000e+00 5.5758003e+03 0.0000000e+00 
0.0000000e+00 -6.4215118e+02 0.0000000e+00 
0.0000000e+00 -6.8305503e+03 0.0000000e+00 
0.0000000e+00 -1.1732198e+04 0.0000000e+00 
0.0000000e+00 -1.2639423e+04 0.0000000e+00 
0.0000000e+00 -3.8943051e+04 0.0000000e+00 
0.0000000e+00 -2.2136688e+04 0.0000000e+00 
0.0000000e+00 -1.6438746e+03 0.0000000e+00 
0.0000000e+00 1.8848938e+04 0.0000000e+00 
0.0000000e+00 3.9341750e+04 0.0000000e+00 
0.0000000e+00 -2.9147477e+04 0.0000000e+00 
0.0000000e+00 -5.6522046e+03 0.0000000e+00 
0.0000000e+00 1.2947047e+04 0.0000000e+00 
0.0000000e+00 1.7806355e+04 0.0000000e+00 
0.0000000e+00 1.4596680e+04 0.0000000e+00 
FORCE 3 30  float
6.7314248e+03 0.0000000e+00 -1.3048054e+04 
6.7314248e+03 0.0000000e+00 -1.3048054e+04 
7.4178242e+03 0.0000000e+00 -6.5110049e+03 
7.4178242e+03 0.0000000e+00 -6.5110049e+03 
1.5825790e+04 0.0000000e+00 -1.0922936e+04 
4.2612920e+03 0.0000000e+00 -1.1198684e+04 
1.0392266e+03 0.0000000e+00 -1.9813514e+03 
2.7512722e+03 0.0000000e+00 -9.9390410e+03 
1.4552178e+03 0.0000000e+00 -1.5991579e+04 
1.4552178e+03 0.0000000e+00 -1.5991579e+04 
-2.2326463e+04 0.0000000e+00 -1.7162834e+04 
-2.3384965e+04 0.0000000e+00 -1.2618857e+04 
-2.3384965e+04 0.0000000e+00 -1.2618857e+04 
-2.5381631e+04 0.0000000e+00 -3.0485408e+03 
-2.2880922e+04 0.0000000e+00 -6.4658833e+03 
-1.2634515e+04 0.0000000e+00 -6.2009409e+03 
-1.0286394e+04 0.0000000e+00 -9.3439375e+03 
-6.3295254e+03 0.0000000e+00 -6.1270596e+03 
-6.3295254e+03 0.0000000e+00 -6.1270596e+03 
-1.7818955e+03 0.0000000e+00 3.8589973e+03 
-3.4509773e+03 0.0000000e+00 6.5599565e+03 
-2.6494220e+02 0.0000000e+00 1.0246406e+04 
-2.6494220e+02 0.0000000e+00 1.0246406e+04 
-2.6494220e+02 0.0000000e+00 1.0246406e+04 
-2.6494220e+02 0.0000000e+00 1.0246406e+04 
1.3485625e+04 0.0000000e+00 9.4641465e+03 
4.5200264e+03 0.0000000e+00 1.4031125e+04 
5.9744170e+03 0.0000000e+00 4.5681265e+03 
-6.2487585e+02 0.0000000e+00 2.9118134e+02 
4.1440693e+03 0.0000000e+00 -3.5008562e+03 
