# vtk DataFile Version 4.0
vtk output
ASCII
DATASET UNSTRUCTURED_GRID
POINTS 212 float
0.0000000e+00 0.0000000e+00 0.0000000e+00 
0.0000000e+00 0.0000000e+00 2.5000000e-01 
0.0000000e+00 0.0000000e+00 5.0000000e-01 
0.0000000e+00 0.0000000e+00 7.5000000e-01 
0.0000000e+00 0.0000000e+00 1.0000000e+00 
0.0000000e+00 0.0000000e+00 1.2500000e+00 
0.0000000e+00 0.0000000e+00 1.5000000e+00 
0.0000000e+00 0.0000000e+00 1.7500000e+00 
0.0000000e+00 0.0000000e+00 2.0000000e+00 
0.0000000e+00 0.0000000e+00 2.2500000e+00 
0.0000000e+00 0.0000000e+00 2.5000000e+00 
0.0000000e+00 0.0000000e+00 2.7500000e+00 
0.0000000e+00 0.0000000e+00 3.0000000e+00 
0.0000000e+00 0.0000000e+00 3.2500000e+00 
0.0000000e+00 0.0000000e+00 3.5000000e+00 
0.0000000e+00 0.0000000e+00 3.7500000e+00 
0.0000000e+00 0.0000000e+00 4.0000000e+00 
0.0000000e+00 0.0000000e+00 4.2500000e+00 
0.0000000e+00 0.0000000e+00 4.5000000e+00 
0.0000000e+00 0.0000000e+00 4.7500000e+00 
0.0000000e+00 0.0000000e+00 5.0000000e+00 
0.0000000e+00 0.0000000e+00 5.2500000e+00 
0.0000000e+00 0.0000000e+00 5.5000000e+00 
0.0000000e+00 0.0000000e+00 5.7500000e+00 
0.0000000e+00 0.0000000e+00 6.0000000e+00 
0.0000000e+00 0.0000000e+00 6.2500000e+00 
0.0000000e+00 0.0000000e+00 6.5000000e+00 
0.0000000e+00 0.0000000e+00 6.7500000e+00 
0.0000000e+00 0.0000000e+00 7.0000000e+00 
0.0000000e+00 0.0000000e+00 7.2500000e+00 
0.0000000e+00 0.0000000e+00 7.5000000e+00 
0.0000000e+00 0.0000000e+00 7.7500000e+00 
0.0000000e+00 0.0000000e+00 8.0000000e+00 
0.0000000e+00 0.0000000e+00 8.2500000e+00 
0.0000000e+00 0.0000000e+00 8.5000000e+00 
0.0000000e+00 0.0000000e+00 8.7500000e+00 
0.0000000e+00 0.0000000e+00 9.0000000e+00 
0.0000000e+00 0.0000000e+00 9.2500000e+00 
0.0000000e+00 0.0000000e+00 9.5000000e+00 
0.0000000e+00 0.0000000e+00 9.7500000e+00 
0.0000000e+00 0.0000000e+00 1.0000000e+01 
0.0000000e+00 0.0000000e+00 1.0250000e+01 
0.0000000e+00 0.0000000e+00 1.0500000e+01 
0.0000000e+00 0.0000000e+00 1.0750000e+01 
0.0000000e+00 0.0000000e+00 1.1000000e+01 
0.0000000e+00 0.0000000e+00 1.1250000e+01 
0.0000000e+00 0.0000000e+00 1.1500000e+01 
0.0000000e+00 0.0000000e+00 1.1750000e+01 
0.0000000e+00 0.0000000e+00 1.2000000e+01 
0.0000000e+00 0.0000000e+00 1.2250000e+01 
0.0000000e+00 0.0000000e+00 1.2500000e+01 
0.0000000e+00 0.0000000e+00 1.2750000e+01 
0.0000000e+00 0.0000000e+00 1.3000000e+01 
0.0000000e+00 0.0000000e+00 1.3250000e+01 
0.0000000e+00 0.0000000e+00 1.3500000e+01 
0.0000000e+00 0.0000000e+00 1.3750000e+01 
0.0000000e+00 0.0000000e+00 1.4000000e+01 
0.0000000e+00 0.0000000e+00 1.4250000e+01 
0.0000000e+00 0.0000000e+00 1.4500000e+01 
0.0000000e+00 0.0000000e+00 1.4750000e+01 
0.0000000e+00 0.0000000e+00 1.5000000e+01 
0.0000000e+00 0.0000000e+00 1.5250000e+01 
0.0000000e+00 0.0000000e+00 1.5500000e+01 
0.0000000e+00 0.0000000e+00 1.5750000e+01 
0.0000000e+00 0.0000000e+00 1.6000000e+01 
0.0000000e+00 0.0000000e+00 1.6250000e+01 
0.0000000e+00 0.0000000e+00 1.6500000e+01 
0.0000000e+00 0.0000000e+00 1.6750000e+01 
0.0000000e+00 0.0000000e+00 1.7000000e+01 
0.0000000e+00 0.0000000e+00 1.7250000e+01 
0.0000000e+00 0.0000000e+00 1.7500000e+01 
0.0000000e+00 0.0000000e+00 1.7750000e+01 
0.0000000e+00 0.0000000e+00 1.8000000e+01 
5.0000000e-01 0.0000000e+00 3.0000000e+00 
5.0000000e-01 0.0000000e+00 6.0000000e+00 
5.0000000e-01 0.0000000e+00 9.0000000e+00 
5.0000000e-01 0.0000000e+00 1.2000000e+01 
5.0000000e-01 0.0000000e+00 1.5000000e+01 
5.0000000e-01 0.0000000e+00 1.8000000e+01 
1.0000000e+00 0.0000000e+00 3.0000000e+00 
1.0000000e+00 0.0000000e+00 6.0000000e+00 
1.0000000e+00 0.0000000e+00 9.0000000e+00 
1.0000000e+00 0.0000000e+00 1.2000000e+01 
1.0000000e+00 0.0000000e+00 1.5000000e+01 
1.0000000e+00 0.0000000e+00 1.8000000e+01 
1.5000000e+00 0.0000000e+00 3.0000000e+00 
1.5000000e+00 0.0000000e+00 6.0000000e+00 
1.5000000e+00 0.0000000e+00 9.0000000e+00 
1.5000000e+00 0.0000000e+00 1.2000000e+01 
1.5000000e+00 0.0000000e+00 1.5000000e+01 
1.5000000e+00 0.0000000e+00 1.8000000e+01 
2.0000000e+00 0.0000000e+00 3.0000000e+00 
2.0000000e+00 0.0000000e+00 6.0000000e+00 
2.0000000e+00 0.0000000e+00 9.0000000e+00 
2.0000000e+00 0.0000000e+00 1.2000000e+01 
2.0000000e+00 0.0000000e+00 1.5000000e+01 
2.0000000e+00 0.0000000e+00 1.8000000e+01 
2.5000000e+00 0.0000000e+00 3.0000000e+00 
2.5000000e+00 0.0000000e+00 6.0000000e+00 
2.5000000e+00 0.0000000e+00 9.0000000e+00 
2.5000000e+00 0.0000000e+00 1.2000000e+01 
2.5000000e+00 0.0000000e+00 1.5000000e+01 
2.5000000e+00 0.0000000e+00 1.8000000e+01 
3.0000000e+00 0.0000000e+00 3.0000000e+00 
3.0000000e+00 0.0000000e+00 6.0000000e+00 
3.0000000e+00 0.0000000e+00 9.0000000e+00 
3.0000000e+00 0.0000000e+00 1.2000000e+01 
3.0000000e+00 0.0000000e+00 1.5000000e+01 
3.0000000e+00 0.0000000e+00 1.8000000e+01 
3.5000000e+00 0.0000000e+00 3.0000000e+00 
3.5000000e+00 0.0000000e+00 6.0000000e+00 
3.5000000e+00 0.0000000e+00 9.0000000e+00 
3.5000000e+00 0.0000000e+00 1.2000000e+01 
3.5000000e+00 0.0000000e+00 1.5000000e+01 
3.5000000e+00 0.0000000e+00 1.8000000e+01 
4.0000000e+00 0.0000000e+00 3.0000000e+00 
4.0000000e+00 0.0000000e+00 6.0000000e+00 
4.0000000e+00 0.0000000e+00 9.0000000e+00 
4.0000000e+00 0.0000000e+00 1.2000000e+01 
4.0000000e+00 0.0000000e+00 1.5000000e+01 
4.0000000e+00 0.0000000e+00 1.8000000e+01 
4.5000000e+00 0.0000000e+00 3.0000000e+00 
4.5000000e+00 0.0000000e+00 6.0000000e+00 
4.5000000e+00 0.0000000e+00 9.0000000e+00 
4.5000000e+00 0.0000000e+00 1.2000000e+01 
4.5000000e+00 0.0000000e+00 1.5000000e+01 
4.5000000e+00 0.0000000e+00 1.8000000e+01 
5.0000000e+00 0.0000000e+00 3.0000000e+00 
5.0000000e+00 0.0000000e+00 6.0000000e+00 
5.0000000e+00 0.0000000e+00 9.0000000e+00 
5.0000000e+00 0.0000000e+00 1.2000000e+01 
5.0000000e+00 0.0000000e+00 1.5000000e+01 
5.0000000e+00 0.0000000e+00 1.8000000e+01 
5.5000000e+00 0.0000000e+00 3.0000000e+00 
5.5000000e+00 0.0000000e+00 6.0000000e+00 
5.5000000e+00 0.0000000e+00 9.0000000e+00 
5.5000000e+00 0.0000000e+00 1.2000000e+01 
5.5000000e+00 0.0000000e+00 1.5000000e+01 
5.5000000e+00 0.0000000e+00 1.8000000e+01 
6.0000000e+00 0.0000000e+00 0.0000000e+00 
6.0000000e+00 0.0000000e+00 2.5000000e-01 
6.0000000e+00 0.0000000e+00 5.0000000e-01 
6.0000000e+00 0.0000000e+00 7.5000000e-01 
6.0000000e+00 0.0000000e+00 1.0000000e+00 
6.0000000e+00 0.0000000e+00 1.2500000e+00 
6.0000000e+00 0.0000000e+00 1.5000000e+00 
6.0000000e+00 0.0000000e+00 1.7500000e+00 
6.0000000e+00 0.0000000e+00 2.0000000e+00 
6.0000000e+00 0.0000000e+00 2.2500000e+00 
6.0000000e+00 0.0000000e+00 2.5000000e+00 
6.0000000e+00 0.0000000e+00 2.7500000e+00 
6.0000000e+00 0.0000000e+00 3.0000000e+00 
6.0000000e+00 0.0000000e+00 3.2500000e+00 
6.0000000e+00 0.0000000e+00 3.5000000e+00 
6.0000000e+00 0.0000000e+00 3.7500000e+00 
6.0000000e+00 0.0000000e+00 4.0000000e+00 
6.0000000e+00 0.0000000e+00 4.2500000e+00 
6.0000000e+00 0.0000000e+00 4.5000000e+00 
6.0000000e+00 0.0000000e+00 4.7500000e+00 
6.0000000e+00 0.0000000e+00 5.0000000e+00 
6.0000000e+00 0.0000000e+00 5.2500000e+00 
6.0000000e+00 0.0000000e+00 5.5000000e+00 
6.0000000e+00 0.0000000e+00 5.7500000e+00 
6.0000000e+00 0.0000000e+00 6.0000000e+00 
6.0000000e+00 0.0000000e+00 6.2500000e+00 
6.0000000e+00 0.0000000e+00 6.5000000e+00 
6.0000000e+00 0.0000000e+00 6.7500000e+00 
6.0000000e+00 0.0000000e+00 7.0000000e+00 
6.0000000e+00 0.0000000e+00 7.2500000e+00 
6.0000000e+00 0.0000000e+00 7.5000000e+00 
6.0000000e+00 0.0000000e+00 7.7500000e+00 
6.0000000e+00 0.0000000e+00 8.0000000e+00 
6.0000000e+00 0.0000000e+00 8.2500000e+00 
6.0000000e+00 0.0000000e+00 8.5000000e+00 
6.0000000e+00 0.0000000e+00 8.7500000e+00 
6.0000000e+00 0.0000000e+00 9.0000000e+00 
6.0000000e+00 0.0000000e+00 9.2500000e+00 
6.0000000e+00 0.0000000e+00 9.5000000e+00 
6.0000000e+00 0.0000000e+00 9.7500000e+00 
6.0000000e+00 0.0000000e+00 1.0000000e+01 
6.0000000e+00 0.0000000e+00 1.0250000e+01 
6.0000000e+00 0.0000000e+00 1.0500000e+01 
6.0000000e+00 0.0000000e+00 1.0750000e+01 
6.0000000e+00 0.0000000e+00 1.1000000e+01 
6.0000000e+00 0.0000000e+00 1.1250000e+01 
6.0000000e+00 0.0000000e+00 1.1500000e+01 
6.0000000e+00 0.0000000e+00 1.1750000e+01 
6.0000000e+00 0.0000000e+00 1.2000000e+01 
6.0000000e+00 0.0000000e+00 1.2250000e+01 
6.0000000e+00 0.0000000e+00 1.2500000e+01 
6.0000000e+00 0.0000000e+00 1.2750000e+01 
6.0000000e+00 0.0000000e+00 1.3000000e+01 
6.0000000e+00 0.0000000e+00 1.3250000e+01 
6.0000000e+00 0.0000000e+00 1.3500000e+01 
6.0000000e+00 0.0000000e+00 1.3750000e+01 
6.0000000e+00 0.0000000e+00 1.4000000e+01 
6.0000000e+00 0.0000000e+00 1.4250000e+01 
6.0000000e+00 0.0000000e+00 1.4500000e+01 
6.0000000e+00 0.0000000e+00 1.4750000e+01 
6.0000000e+00 0.0000000e+00 1.5000000e+01 
6.0000000e+00 0.0000000e+00 1.5250000e+01 
6.0000000e+00 0.0000000e+00 1.5500000e+01 
6.0000000e+00 0.0000000e+00 1.5750000e+01 
6.0000000e+00 0.0000000e+00 1.6000000e+01 
6.0000000e+00 0.0000000e+00 1.6250000e+01 
6.0000000e+00 0.0000000e+00 1.6500000e+01 
6.0000000e+00 0.0000000e+00 1.6750000e+01 
6.0000000e+00 0.0000000e+00 1.7000000e+01 
6.0000000e+00 0.0000000e+00 1.7250000e+01 
6.0000000e+00 0.0000000e+00 1.7500000e+01 
6.0000000e+00 0.0000000e+00 1.7750000e+01 
6.0000000e+00 0.0000000e+00 1.8000000e+01 

CELLS 216 648
2 0 1
2 1 2
2 2 3
2 3 4
2 4 5
2 5 6
2 6 7
2 7 8
2 8 9
2 9 10
2 10 11
2 11 12
2 12 13
2 13 14
2 14 15
2 15 16
2 16 17
2 17 18
2 18 19
2 19 20
2 20 21
2 21 22
2 22 23
2 23 24
2 24 25
2 25 26
2 26 27
2 27 28
2 28 29
2 29 30
2 30 31
2 31 32
2 32 33
2 33 34
2 34 35
2 35 36
2 36 37
2 37 38
2 38 39
2 39 40
2 40 41
2 41 42
2 42 43
2 43 44
2 44 45
2 45 46
2 46 47
2 47 48
2 48 49
2 49 50
2 50 51
2 51 52
2 52 53
2 53 54
2 54 55
2 55 56
2 56 57
2 57 58
2 58 59
2 59 60
2 60 61
2 61 62
2 62 63
2 63 64
2 64 65
2 65 66
2 66 67
2 67 68
2 68 69
2 69 70
2 70 71
2 71 72
2 139 140
2 140 141
2 141 142
2 142 143
2 143 144
2 144 145
2 145 146
2 146 147
2 147 148
2 148 149
2 149 150
2 150 151
2 151 152
2 152 153
2 153 154
2 154 155
2 155 156
2 156 157
2 157 158
2 158 159
2 159 160
2 160 161
2 161 162
2 162 163
2 163 164
2 164 165
2 165 166
2 166 167
2 167 168
2 168 169
2 169 170
2 170 171
2 171 172
2 172 173
2 173 174
2 174 175
2 175 176
2 176 177
2 177 178
2 178 179
2 179 180
2 180 181
2 181 182
2 182 183
2 183 184
2 184 185
2 185 186
2 186 187
2 187 188
2 188 189
2 189 190
2 190 191
2 191 192
2 192 193
2 193 194
2 194 195
2 195 196
2 196 197
2 197 198
2 198 199
2 199 200
2 200 201
2 201 202
2 202 203
2 203 204
2 204 205
2 205 206
2 206 207
2 207 208
2 208 209
2 209 210
2 210 211
2 12 73
2 73 79
2 79 85
2 85 91
2 91 97
2 97 103
2 103 109
2 109 115
2 115 121
2 121 127
2 127 133
2 133 151
2 24 74
2 74 80
2 80 86
2 86 92
2 92 98
2 98 104
2 104 110
2 110 116
2 116 122
2 122 128
2 128 134
2 134 163
2 36 75
2 75 81
2 81 87
2 87 93
2 93 99
2 99 105
2 105 111
2 111 117
2 117 123
2 123 129
2 129 135
2 135 175
2 48 76
2 76 82
2 82 88
2 88 94
2 94 100
2 100 106
2 106 112
2 112 118
2 118 124
2 124 130
2 130 136
2 136 187
2 60 77
2 77 83
2 83 89
2 89 95
2 95 101
2 101 107
2 107 113
2 113 119
2 119 125
2 125 131
2 131 137
2 137 199
2 72 78
2 78 84
2 84 90
2 90 96
2 96 102
2 102 108
2 108 114
2 114 120
2 120 126
2 126 132
2 132 138
2 138 211

CELL_TYPES 216
3
3
3
3
3
3
3
3
3
3
3
3
3
3
3
3
3
3
3
3
3
3
3
3
3
3
3
3
3
3
3
3
3
3
3
3
3
3
3
3
3
3
3
3
3
3
3
3
3
3
3
3
3
3
3
3
3
3
3
3
3
3
3
3
3
3
3
3
3
3
3
3
3
3
3
3
3
3
3
3
3
3
3
3
3
3
3
3
3
3
3
3
3
3
3
3
3
3
3
3
3
3
3
3
3
3
3
3
3
3
3
3
3
3
3
3
3
3
3
3
3
3
3
3
3
3
3
3
3
3
3
3
3
3
3
3
3
3
3
3
3
3
3
3
3
3
3
3
3
3
3
3
3
3
3
3
3
3
3
3
3
3
3
3
3
3
3
3
3
3
3
3
3
3
3
3
3
3
3
3
3
3
3
3
3
3
3
3
3
3
3
3
3
3
3
3
3
3
3
3
3
3
3
3
3
3
3
3
3
3
3
3
3
3
3
3
POINT_DATA 212
FIELD FieldData 3
ADJOINT_DISPLACEMENT 3 212  float
0.0000000e+00 0.0000000e+00 0.0000000e+00 
-8.5944608e-03 0.0000000e+00 4.4490058e-15 
-1.7110832e-02 0.0000000e+00 8.8980117e-15 
-2.5471020e-02 0.0000000e+00 1.3347017e-14 
-3.3596937e-02 0.0000000e+00 1.7796023e-14 
-4.1410495e-02 0.0000000e+00 2.2245030e-14 
-4.8833597e-02 0.0000000e+00 2.6694035e-14 
-5.5788159e-02 0.0000000e+00 3.1143040e-14 
-6.2196087e-02 0.0000000e+00 3.5592047e-14 
-6.7979291e-02 0.0000000e+00 4.0041053e-14 
-7.3059678e-02 0.0000000e+00 4.4490060e-14 
-7.7359162e-02 0.0000000e+00 4.8939067e-14 
-8.0799647e-02 0.0000000e+00 5.3388070e-14 
-8.4093943e-02 0.0000000e+00 3.6278783e-05 
-8.8329092e-02 0.0000000e+00 7.2557566e-05 
-9.3988366e-02 0.0000000e+00 1.0883635e-04 
-1.0155506e-01 0.0000000e+00 1.4511513e-04 
-1.1151243e-01 0.0000000e+00 1.8139392e-04 
-1.2434377e-01 0.0000000e+00 2.1767270e-04 
-1.4053236e-01 0.0000000e+00 2.5395150e-04 
-1.6056146e-01 0.0000000e+00 2.9023027e-04 
-1.8491437e-01 0.0000000e+00 3.2650906e-04 
-2.1407434e-01 0.0000000e+00 3.6278783e-04 
-2.4852468e-01 0.0000000e+00 3.9906663e-04 
-2.8874865e-01 0.0000000e+00 4.3534540e-04 
-3.2891342e-01 0.0000000e+00 3.9707482e-04 
-3.6319089e-01 0.0000000e+00 3.5880422e-04 
-3.9207149e-01 0.0000000e+00 3.2053364e-04 
-4.1604561e-01 0.0000000e+00 2.8226306e-04 
-4.3560368e-01 0.0000000e+00 2.4399247e-04 
-4.5123613e-01 0.0000000e+00 2.0572188e-04 
-4.6343336e-01 0.0000000e+00 1.6745129e-04 
-4.7268578e-01 0.0000000e+00 1.2918070e-04 
-4.7948378e-01 0.0000000e+00 9.0910122e-05 
-4.8431784e-01 0.0000000e+00 5.2639531e-05 
-4.8767832e-01 0.0000000e+00 1.4368945e-05 
-4.9005565e-01 0.0000000e+00 -2.3901643e-05 
-4.9240443e-01 0.0000000e+00 -3.1879368e-05 
-4.9528098e-01 0.0000000e+00 -3.9857092e-05 
-4.9857837e-01 0.0000000e+00 -4.7834816e-05 
-5.0218970e-01 0.0000000e+00 -5.5812539e-05 
-5.0600803e-01 0.0000000e+00 -6.3790263e-05 
-5.0992650e-01 0.0000000e+00 -7.1767987e-05 
-5.1383805e-01 0.0000000e+00 -7.9745711e-05 
-5.1763588e-01 0.0000000e+00 -8.7723434e-05 
-5.2121300e-01 0.0000000e+00 -9.5701158e-05 
-5.2446252e-01 0.0000000e+00 -1.0367888e-04 
-5.2727747e-01 0.0000000e+00 -1.1165661e-04 
-5.2955097e-01 0.0000000e+00 -1.1963433e-04 
-5.3137881e-01 0.0000000e+00 -1.2129446e-04 
-5.3294265e-01 0.0000000e+00 -1.2295459e-04 
-5.3426427e-01 0.0000000e+00 -1.2461471e-04 
-5.3536534e-01 0.0000000e+00 -1.2627484e-04 
-5.3626758e-01 0.0000000e+00 -1.2793497e-04 
-5.3699279e-01 0.0000000e+00 -1.2959509e-04 
-5.3756273e-01 0.0000000e+00 -1.3125522e-04 
-5.3799903e-01 0.0000000e+00 -1.3291536e-04 
-5.3832352e-01 0.0000000e+00 -1.3457549e-04 
-5.3855795e-01 0.0000000e+00 -1.3623561e-04 
-5.3872401e-01 0.0000000e+00 -1.3789574e-04 
-5.3884345e-01 0.0000000e+00 -1.3955586e-04 
-5.3895861e-01 0.0000000e+00 -1.3988755e-04 
-5.3909469e-01 0.0000000e+00 -1.4021921e-04 
-5.3924799e-01 0.0000000e+00 -1.4055090e-04 
-5.3941482e-01 0.0000000e+00 -1.4088256e-04 
-5.3959131e-01 0.0000000e+00 -1.4121424e-04 
-5.3977382e-01 0.0000000e+00 -1.4154593e-04 
-5.3995854e-01 0.0000000e+00 -1.4187759e-04 
-5.4014170e-01 0.0000000e+00 -1.4220928e-04 
-5.4031956e-01 0.0000000e+00 -1.4254094e-04 
-5.4048836e-01 0.0000000e+00 -1.4287262e-04 
-5.4064441e-01 0.0000000e+00 -1.4320429e-04 
-5.4078388e-01 0.0000000e+00 -1.4353597e-04 
-8.1084013e-02 0.0000000e+00 3.3715852e-03 
-2.8875226e-01 0.0000000e+00 1.1185588e-01 
-4.8975307e-01 0.0000000e+00 1.9791424e-03 
-5.2961612e-01 0.0000000e+00 3.1225660e-03 
-5.3883052e-01 0.0000000e+00 -2.5009844e-05 
-5.4078579e-01 0.0000000e+00 7.7466539e-05 
-8.1368372e-02 0.0000000e+00 2.3104413e-03 
-2.8875586e-01 0.0000000e+00 2.7146015e-01 
-4.8945048e-01 0.0000000e+00 4.2925193e-04 
-5.2968132e-01 0.0000000e+00 5.1137349e-03 
-5.3881764e-01 0.0000000e+00 -6.6931243e-05 
-5.4078764e-01 0.0000000e+00 2.2771496e-04 
-8.1652731e-02 0.0000000e+00 -2.0375173e-03 
-2.8875950e-01 0.0000000e+00 4.7689340e-01 
-4.8914790e-01 0.0000000e+00 -3.7167324e-03 
-5.2974647e-01 0.0000000e+00 6.0534216e-03 
-5.3880471e-01 0.0000000e+00 -2.2335911e-04 
-5.4078954e-01 0.0000000e+00 3.1768571e-04 
-8.1937090e-02 0.0000000e+00 -8.5263764e-03 
-2.8876311e-01 0.0000000e+00 7.2580087e-01 
-4.8884535e-01 0.0000000e+00 -9.5019704e-03 
-5.2981162e-01 0.0000000e+00 6.1411769e-03 
-5.3879178e-01 0.0000000e+00 -4.5233249e-04 
-5.4079145e-01 0.0000000e+00 3.5785520e-04 
-8.2221448e-02 0.0000000e+00 -1.6010223e-02 
-2.8876671e-01 0.0000000e+00 5.1582789e-01 
-4.8854277e-01 0.0000000e+00 -1.5969619e-02 
-5.2987683e-01 0.0000000e+00 5.5765496e-03 
-5.3877890e-01 0.0000000e+00 -7.1189046e-04 
-5.4079336e-01 0.0000000e+00 3.5869985e-04 
-8.2505807e-02 0.0000000e+00 -2.3343142e-02 
-2.8877035e-01 0.0000000e+00 3.4461966e-01 
-4.8824018e-01 0.0000000e+00 -2.2162842e-02 
-5.2994198e-01 0.0000000e+00 4.5590899e-03 
-5.3876597e-01 0.0000000e+00 -9.6007204e-04 
-5.4079527e-01 0.0000000e+00 3.3069609e-04 
-8.2790174e-02 0.0000000e+00 -2.9379221e-02 
-2.8877395e-01 0.0000000e+00 2.0982143e-01 
-4.8793760e-01 0.0000000e+00 -2.7124794e-02 
-5.3000718e-01 0.0000000e+00 3.2883473e-03 
-5.3875309e-01 0.0000000e+00 -1.1549162e-03 
-5.4079717e-01 0.0000000e+00 2.8432030e-04 
-8.3074532e-02 0.0000000e+00 -3.2972544e-02 
-2.8877756e-01 0.0000000e+00 1.0907849e-01 
-4.8763502e-01 0.0000000e+00 -2.9898638e-02 
-5.3007233e-01 0.0000000e+00 1.9638718e-03 
-5.3874016e-01 0.0000000e+00 -1.2544622e-03 
-5.4079908e-01 0.0000000e+00 2.3004893e-04 
-8.3358891e-02 0.0000000e+00 -3.2977197e-02 
-2.8878117e-01 0.0000000e+00 4.0036086e-02 
-4.8733243e-01 0.0000000e+00 -2.9527530e-02 
-5.3013754e-01 0.0000000e+00 7.8521302e-04 
-5.3872722e-01 0.0000000e+00 -1.2167490e-03 
-5.4080099e-01 0.0000000e+00 1.7835840e-04 
-8.3643250e-02 0.0000000e+00 -2.8247267e-02 
-2.8878480e-01 0.0000000e+00 3.3947031e-04 
-4.8702985e-01 0.0000000e+00 -2.5054632e-02 
-5.3020269e-01 0.0000000e+00 -4.8079339e-05 
-5.3871435e-01 0.0000000e+00 -9.9981541e-04 
-5.4080290e-01 0.0000000e+00 1.3972512e-04 
-8.3927609e-02 0.0000000e+00 -1.7636839e-02 
-2.8878841e-01 0.0000000e+00 -1.2366093e-02 
-4.8672727e-01 0.0000000e+00 -1.5523101e-02 
-5.3026789e-01 0.0000000e+00 -3.3645547e-04 
-5.3870142e-01 0.0000000e+00 -5.6170084e-04 
-5.4080480e-01 0.0000000e+00 1.2462550e-04 
0.0000000e+00 0.0000000e+00 0.0000000e+00 
-5.1565077e-03 0.0000000e+00 -4.7383286e-15 
-1.0391106e-02 0.0000000e+00 -9.4766605e-15 
-1.5781885e-02 0.0000000e+00 -1.4214995e-14 
-2.1406936e-02 0.0000000e+00 -1.8953396e-14 
-2.7344348e-02 0.0000000e+00 -2.3691742e-14 
-3.3672214e-02 0.0000000e+00 -2.8430082e-14 
-4.0468622e-02 0.0000000e+00 -3.3168404e-14 
-4.7811661e-02 0.0000000e+00 -3.7906761e-14 
-5.5779427e-02 0.0000000e+00 -4.2645561e-14 
-6.4450003e-02 0.0000000e+00 -4.7384466e-14 
-7.3901489e-02 0.0000000e+00 -5.2123263e-14 
-8.4211968e-02 0.0000000e+00 -5.6862176e-14 
-9.6387513e-02 0.0000000e+00 -3.6278783e-05 
-1.1105995e-01 0.0000000e+00 -7.2557566e-05 
-1.2774600e-01 0.0000000e+00 -1.0883635e-04 
-1.4596237e-01 0.0000000e+00 -1.4511513e-04 
-1.6522580e-01 0.0000000e+00 -1.8139392e-04 
-1.8505302e-01 0.0000000e+00 -2.1767270e-04 
-2.0496073e-01 0.0000000e+00 -2.5395150e-04 
-2.2446565e-01 0.0000000e+00 -2.9023027e-04 
-2.4308454e-01 0.0000000e+00 -3.2650906e-04 
-2.6033407e-01 0.0000000e+00 -3.6278783e-04 
-2.7573100e-01 0.0000000e+00 -3.9906663e-04 
-2.8879201e-01 0.0000000e+00 -4.3534540e-04 
-3.0181789e-01 0.0000000e+00 -3.9707482e-04 
-3.1710458e-01 0.0000000e+00 -3.5880422e-04 
-3.3416164e-01 0.0000000e+00 -3.2053364e-04 
-3.5249871e-01 0.0000000e+00 -2.8226306e-04 
-3.7162530e-01 0.0000000e+00 -2.4399247e-04 
-3.9105108e-01 0.0000000e+00 -2.0572188e-04 
-4.1028559e-01 0.0000000e+00 -1.6745129e-04 
-4.2883843e-01 0.0000000e+00 -1.2918070e-04 
-4.4621915e-01 0.0000000e+00 -9.0910122e-05 
-4.6193740e-01 0.0000000e+00 -5.2639531e-05 
-4.7550270e-01 0.0000000e+00 -1.4368945e-05 
-4.8642468e-01 0.0000000e+00 2.3901643e-05 
-4.9518400e-01 0.0000000e+00 3.1879368e-05 
-5.0265962e-01 0.0000000e+00 3.9857092e-05 
-5.0895834e-01 0.0000000e+00 4.7834816e-05 
-5.1418722e-01 0.0000000e+00 5.5812539e-05 
-5.1845312e-01 0.0000000e+00 6.3790263e-05 
-5.2186298e-01 0.0000000e+00 7.1767987e-05 
-5.2452374e-01 0.0000000e+00 7.9745711e-05 
-5.2654231e-01 0.0000000e+00 8.7723434e-05 
-5.2802557e-01 0.0000000e+00 9.5701158e-05 
-5.2908051e-01 0.0000000e+00 1.0367888e-04 
-5.2981400e-01 0.0000000e+00 1.1165661e-04 
-5.3033304e-01 0.0000000e+00 1.1963433e-04 
-5.3084105e-01 0.0000000e+00 1.2129446e-04 
-5.3145576e-01 0.0000000e+00 1.2295459e-04 
-5.3215545e-01 0.0000000e+00 1.2461471e-04 
-5.3291833e-01 0.0000000e+00 1.2627484e-04 
-5.3372270e-01 0.0000000e+00 1.2793497e-04 
-5.3454679e-01 0.0000000e+00 1.2959509e-04 
-5.3536892e-01 0.0000000e+00 1.3125522e-04 
-5.3616726e-01 0.0000000e+00 1.3291536e-04 
-5.3692013e-01 0.0000000e+00 1.3457549e-04 
-5.3760576e-01 0.0000000e+00 1.3623561e-04 
-5.3820246e-01 0.0000000e+00 1.3789574e-04 
-5.3868848e-01 0.0000000e+00 1.3955586e-04 
-5.3908443e-01 0.0000000e+00 1.3988755e-04 
-5.3942800e-01 0.0000000e+00 1.4021921e-04 
-5.3972286e-01 0.0000000e+00 1.4055090e-04 
-5.3997284e-01 0.0000000e+00 1.4088256e-04 
-5.4018170e-01 0.0000000e+00 1.4121424e-04 
-5.4035312e-01 0.0000000e+00 1.4154593e-04 
-5.4049093e-01 0.0000000e+00 1.4187759e-04 
-5.4059887e-01 0.0000000e+00 1.4220928e-04 
-5.4068065e-01 0.0000000e+00 1.4254094e-04 
-5.4074001e-01 0.0000000e+00 1.4287262e-04 
-5.4078078e-01 0.0000000e+00 1.4320429e-04 
-5.4080665e-01 0.0000000e+00 1.4353597e-04 
ADJOINT_ROTATION 3 212  float
0.0000000e+00 -3.4429904e-02 0.0000000e+00 
0.0000000e+00 -3.4273721e-02 0.0000000e+00 
0.0000000e+00 -3.3805180e-02 0.0000000e+00 
0.0000000e+00 -3.3024274e-02 0.0000000e+00 
0.0000000e+00 -3.1931009e-02 0.0000000e+00 
0.0000000e+00 -3.0525379e-02 0.0000000e+00 
0.0000000e+00 -2.8807389e-02 0.0000000e+00 
0.0000000e+00 -2.6777035e-02 0.0000000e+00 
0.0000000e+00 -2.4434321e-02 0.0000000e+00 
0.0000000e+00 -2.1779245e-02 0.0000000e+00 
0.0000000e+00 -1.8811805e-02 0.0000000e+00 
0.0000000e+00 -1.5532005e-02 0.0000000e+00 
0.0000000e+00 -1.1939842e-02 0.0000000e+00 
0.0000000e+00 -1.4736697e-02 0.0000000e+00 
0.0000000e+00 -1.9466665e-02 0.0000000e+00 
0.0000000e+00 -2.6129745e-02 0.0000000e+00 
0.0000000e+00 -3.4725938e-02 0.0000000e+00 
0.0000000e+00 -4.5255244e-02 0.0000000e+00 
0.0000000e+00 -5.7717659e-02 0.0000000e+00 
0.0000000e+00 -7.2113186e-02 0.0000000e+00 
0.0000000e+00 -8.8441826e-02 0.0000000e+00 
0.0000000e+00 -1.0670359e-01 0.0000000e+00 
0.0000000e+00 -1.2689845e-01 0.0000000e+00 
0.0000000e+00 -1.4902642e-01 0.0000000e+00 
0.0000000e+00 -1.7308752e-01 0.0000000e+00 
0.0000000e+00 -1.4855753e-01 0.0000000e+00 
0.0000000e+00 -1.2598918e-01 0.0000000e+00 
0.0000000e+00 -1.0538250e-01 0.0000000e+00 
0.0000000e+00 -8.6737476e-02 0.0000000e+00 
0.0000000e+00 -7.0054106e-02 0.0000000e+00 
0.0000000e+00 -5.5332396e-02 0.0000000e+00 
0.0000000e+00 -4.2572342e-02 0.0000000e+00 
0.0000000e+00 -3.1773943e-02 0.0000000e+00 
0.0000000e+00 -2.2937201e-02 0.0000000e+00 
0.0000000e+00 -1.6062116e-02 0.0000000e+00 
0.0000000e+00 -1.1148688e-02 0.0000000e+00 
0.0000000e+00 -8.1969164e-03 0.0000000e+00 
0.0000000e+00 -1.0521898e-02 0.0000000e+00 
0.0000000e+00 -1.2419179e-02 0.0000000e+00 
0.0000000e+00 -1.3888760e-02 0.0000000e+00 
0.0000000e+00 -1.4930640e-02 0.0000000e+00 
0.0000000e+00 -1.5544820e-02 0.0000000e+00 
0.0000000e+00 -1.5731299e-02 0.0000000e+00 
0.0000000e+00 -1.5490077e-02 0.0000000e+00 
0.0000000e+00 -1.4821156e-02 0.0000000e+00 
0.0000000e+00 -1.3724534e-02 0.0000000e+00 
0.0000000e+00 -1.2200212e-02 0.0000000e+00 
0.0000000e+00 -1.0248189e-02 0.0000000e+00 
0.0000000e+00 -7.8684650e-03 0.0000000e+00 
0.0000000e+00 -6.7689517e-03 0.0000000e+00 
0.0000000e+00 -5.7563963e-03 0.0000000e+00 
0.0000000e+00 -4.8307991e-03 0.0000000e+00 
0.0000000e+00 -3.9921599e-03 0.0000000e+00 
0.0000000e+00 -3.2404782e-03 0.0000000e+00 
0.0000000e+00 -2.5757549e-03 0.0000000e+00 
0.0000000e+00 -1.9979896e-03 0.0000000e+00 
0.0000000e+00 -1.5071824e-03 0.0000000e+00 
0.0000000e+00 -1.1033331e-03 0.0000000e+00 
0.0000000e+00 -7.8644184e-04 0.0000000e+00 
0.0000000e+00 -5.5650866e-04 0.0000000e+00 
0.0000000e+00 -4.1353342e-04 0.0000000e+00 
0.0000000e+00 -5.0495885e-04 0.0000000e+00 
0.0000000e+00 -5.8137067e-04 0.0000000e+00 
0.0000000e+00 -6.4276892e-04 0.0000000e+00 
0.0000000e+00 -6.8915368e-04 0.0000000e+00 
0.0000000e+00 -7.2052481e-04 0.0000000e+00 
0.0000000e+00 -7.3688244e-04 0.0000000e+00 
0.0000000e+00 -7.3822652e-04 0.0000000e+00 
0.0000000e+00 -7.2455697e-04 0.0000000e+00 
0.0000000e+00 -6.9587392e-04 0.0000000e+00 
0.0000000e+00 -6.5217732e-04 0.0000000e+00 
0.0000000e+00 -5.9346715e-04 0.0000000e+00 
0.0000000e+00 -5.1974342e-04 0.0000000e+00 
0.0000000e+00 -1.9284701e-03 0.0000000e+00 
0.0000000e+00 -2.7180973e-01 0.0000000e+00 
0.0000000e+00 -1.3420665e-04 0.0000000e+00 
0.0000000e+00 -5.1668524e-03 0.0000000e+00 
0.0000000e+00 -5.8637641e-05 0.0000000e+00 
0.0000000e+00 -3.6775880e-04 0.0000000e+00 
0.0000000e+00 5.7910737e-03 0.0000000e+00 
0.0000000e+00 -3.6582243e-01 0.0000000e+00 
0.0000000e+00 6.0148216e-03 0.0000000e+00 
0.0000000e+00 -2.8643392e-03 0.0000000e+00 
0.0000000e+00 2.1233625e-04 0.0000000e+00 
0.0000000e+00 -2.3672702e-04 0.0000000e+00 
0.0000000e+00 1.1218790e-02 0.0000000e+00 
0.0000000e+00 -4.5512566e-01 0.0000000e+00 
0.0000000e+00 1.0250169e-02 0.0000000e+00 
0.0000000e+00 -9.6092548e-04 0.0000000e+00 
0.0000000e+00 3.9938823e-04 0.0000000e+00 
0.0000000e+00 -1.2664810e-04 0.0000000e+00 
0.0000000e+00 1.4354677e-02 0.0000000e+00 
0.0000000e+00 -5.3971940e-01 0.0000000e+00 
0.0000000e+00 1.2571834e-02 0.0000000e+00 
0.0000000e+00 5.4338877e-04 0.0000000e+00 
0.0000000e+00 5.0251832e-04 0.0000000e+00 
0.0000000e+00 -3.7521997e-05 0.0000000e+00 
0.0000000e+00 1.5198736e-02 0.0000000e+00 
0.0000000e+00 3.8039634e-01 0.0000000e+00 
0.0000000e+00 1.2979819e-02 0.0000000e+00 
0.0000000e+00 1.6486036e-03 0.0000000e+00 
0.0000000e+00 5.2172650e-04 0.0000000e+00 
0.0000000e+00 3.0651263e-05 0.0000000e+00 
0.0000000e+00 1.3750969e-02 0.0000000e+00 
0.0000000e+00 3.0522156e-01 0.0000000e+00 
0.0000000e+00 1.1474121e-02 0.0000000e+00 
0.0000000e+00 2.3547187e-03 0.0000000e+00 
0.0000000e+00 4.5701279e-04 0.0000000e+00 
0.0000000e+00 7.7871693e-05 0.0000000e+00 
0.0000000e+00 1.0011372e-02 0.0000000e+00 
0.0000000e+00 2.3475625e-01 0.0000000e+00 
0.0000000e+00 8.0547426e-03 0.0000000e+00 
0.0000000e+00 2.6617346e-03 0.0000000e+00 
0.0000000e+00 3.0837717e-04 0.0000000e+00 
0.0000000e+00 1.0413928e-04 0.0000000e+00 
0.0000000e+00 3.9799474e-03 0.0000000e+00 
0.0000000e+00 1.6900043e-01 0.0000000e+00 
0.0000000e+00 2.7216824e-03 0.0000000e+00 
0.0000000e+00 2.5696510e-03 0.0000000e+00 
0.0000000e+00 7.5819647e-05 0.0000000e+00 
0.0000000e+00 1.0945403e-04 0.0000000e+00 
0.0000000e+00 -4.3433052e-03 0.0000000e+00 
0.0000000e+00 1.0795411e-01 0.0000000e+00 
0.0000000e+00 -4.5250589e-03 0.0000000e+00 
0.0000000e+00 2.0784677e-03 0.0000000e+00 
0.0000000e+00 -2.4065978e-04 0.0000000e+00 
0.0000000e+00 9.3815950e-05 0.0000000e+00 
0.0000000e+00 -1.4958386e-02 0.0000000e+00 
0.0000000e+00 5.1617265e-02 0.0000000e+00 
0.0000000e+00 -1.3685482e-02 0.0000000e+00 
0.0000000e+00 1.1881851e-03 0.0000000e+00 
0.0000000e+00 -6.4106111e-04 0.0000000e+00 
0.0000000e+00 5.7225036e-05 0.0000000e+00 
0.0000000e+00 -2.7865294e-02 0.0000000e+00 
0.0000000e+00 -1.0098252e-05 0.0000000e+00 
0.0000000e+00 -2.4759587e-02 0.0000000e+00 
0.0000000e+00 -1.0119709e-04 0.0000000e+00 
0.0000000e+00 -1.1253844e-03 0.0000000e+00 
0.0000000e+00 -3.1871645e-07 0.0000000e+00 
0.0000000e+00 -2.0573970e-02 0.0000000e+00 
0.0000000e+00 -2.0730151e-02 0.0000000e+00 
0.0000000e+00 -2.1198694e-02 0.0000000e+00 
0.0000000e+00 -2.1979598e-02 0.0000000e+00 
0.0000000e+00 -2.3072865e-02 0.0000000e+00 
0.0000000e+00 -2.4478495e-02 0.0000000e+00 
0.0000000e+00 -2.6196485e-02 0.0000000e+00 
0.0000000e+00 -2.8226838e-02 0.0000000e+00 
0.0000000e+00 -3.0569553e-02 0.0000000e+00 
0.0000000e+00 -3.3224631e-02 0.0000000e+00 
0.0000000e+00 -3.6192067e-02 0.0000000e+00 
0.0000000e+00 -3.9471868e-02 0.0000000e+00 
0.0000000e+00 -4.3064032e-02 0.0000000e+00 
0.0000000e+00 -5.4018144e-02 0.0000000e+00 
0.0000000e+00 -6.3039146e-02 0.0000000e+00 
0.0000000e+00 -7.0127033e-02 0.0000000e+00 
0.0000000e+00 -7.5281806e-02 0.0000000e+00 
0.0000000e+00 -7.8503475e-02 0.0000000e+00 
0.0000000e+00 -7.9792023e-02 0.0000000e+00 
0.0000000e+00 -7.9147466e-02 0.0000000e+00 
0.0000000e+00 -7.6569788e-02 0.0000000e+00 
0.0000000e+00 -7.2059005e-02 0.0000000e+00 
0.0000000e+00 -6.5615110e-02 0.0000000e+00 
0.0000000e+00 -5.7238098e-02 0.0000000e+00 
0.0000000e+00 -4.6927977e-02 0.0000000e+00 
0.0000000e+00 -5.6952037e-02 0.0000000e+00 
0.0000000e+00 -6.5014444e-02 0.0000000e+00 
0.0000000e+00 -7.1115188e-02 0.0000000e+00 
0.0000000e+00 -7.5254284e-02 0.0000000e+00 
0.0000000e+00 -7.7431716e-02 0.0000000e+00 
0.0000000e+00 -7.7647492e-02 0.0000000e+00 
0.0000000e+00 -7.5901613e-02 0.0000000e+00 
0.0000000e+00 -7.2194077e-02 0.0000000e+00 
0.0000000e+00 -6.6524886e-02 0.0000000e+00 
0.0000000e+00 -5.8894038e-02 0.0000000e+00 
0.0000000e+00 -4.9301535e-02 0.0000000e+00 
0.0000000e+00 -3.7747372e-02 0.0000000e+00 
0.0000000e+00 -3.2398544e-02 0.0000000e+00 
0.0000000e+00 -2.7477419e-02 0.0000000e+00 
0.0000000e+00 -2.2983992e-02 0.0000000e+00 
0.0000000e+00 -1.8918267e-02 0.0000000e+00 
0.0000000e+00 -1.5280242e-02 0.0000000e+00 
0.0000000e+00 -1.2069917e-02 0.0000000e+00 
0.0000000e+00 -9.2872931e-03 0.0000000e+00 
0.0000000e+00 -6.9323690e-03 0.0000000e+00 
0.0000000e+00 -5.0051459e-03 0.0000000e+00 
0.0000000e+00 -3.5056230e-03 0.0000000e+00 
0.0000000e+00 -2.4338006e-03 0.0000000e+00 
0.0000000e+00 -1.7896787e-03 0.0000000e+00 
0.0000000e+00 -2.2599436e-03 0.0000000e+00 
0.0000000e+00 -2.6432506e-03 0.0000000e+00 
0.0000000e+00 -2.9395998e-03 0.0000000e+00 
0.0000000e+00 -3.1489907e-03 0.0000000e+00 
0.0000000e+00 -3.2714235e-03 0.0000000e+00 
0.0000000e+00 -3.3068985e-03 0.0000000e+00 
0.0000000e+00 -3.2554152e-03 0.0000000e+00 
0.0000000e+00 -3.1169741e-03 0.0000000e+00 
0.0000000e+00 -2.8915750e-03 0.0000000e+00 
0.0000000e+00 -2.5792178e-03 0.0000000e+00 
0.0000000e+00 -2.1799027e-03 0.0000000e+00 
0.0000000e+00 -1.6936294e-03 0.0000000e+00 
0.0000000e+00 -1.4764870e-03 0.0000000e+00 
0.0000000e+00 -1.2743581e-03 0.0000000e+00 