# vtk DataFile Version 4.0
vtk output
ASCII
DATASET UNSTRUCTURED_GRID
POINTS 212 float
0.0000000e+00 0.0000000e+00 0.0000000e+00 
0.0000000e+00 0.0000000e+00 2.5000000e-01 
0.0000000e+00 0.0000000e+00 5.0000000e-01 
0.0000000e+00 0.0000000e+00 7.5000000e-01 
0.0000000e+00 0.0000000e+00 1.0000000e+00 
0.0000000e+00 0.0000000e+00 1.2500000e+00 
0.0000000e+00 0.0000000e+00 1.5000000e+00 
0.0000000e+00 0.0000000e+00 1.7500000e+00 
0.0000000e+00 0.0000000e+00 2.0000000e+00 
0.0000000e+00 0.0000000e+00 2.2500000e+00 
0.0000000e+00 0.0000000e+00 2.5000000e+00 
0.0000000e+00 0.0000000e+00 2.7500000e+00 
0.0000000e+00 0.0000000e+00 3.0000000e+00 
0.0000000e+00 0.0000000e+00 3.2500000e+00 
0.0000000e+00 0.0000000e+00 3.5000000e+00 
0.0000000e+00 0.0000000e+00 3.7500000e+00 
0.0000000e+00 0.0000000e+00 4.0000000e+00 
0.0000000e+00 0.0000000e+00 4.2500000e+00 
0.0000000e+00 0.0000000e+00 4.5000000e+00 
0.0000000e+00 0.0000000e+00 4.7500000e+00 
0.0000000e+00 0.0000000e+00 5.0000000e+00 
0.0000000e+00 0.0000000e+00 5.2500000e+00 
0.0000000e+00 0.0000000e+00 5.5000000e+00 
0.0000000e+00 0.0000000e+00 5.7500000e+00 
0.0000000e+00 0.0000000e+00 6.0000000e+00 
0.0000000e+00 0.0000000e+00 6.2500000e+00 
0.0000000e+00 0.0000000e+00 6.5000000e+00 
0.0000000e+00 0.0000000e+00 6.7500000e+00 
0.0000000e+00 0.0000000e+00 7.0000000e+00 
0.0000000e+00 0.0000000e+00 7.2500000e+00 
0.0000000e+00 0.0000000e+00 7.5000000e+00 
0.0000000e+00 0.0000000e+00 7.7500000e+00 
0.0000000e+00 0.0000000e+00 8.0000000e+00 
0.0000000e+00 0.0000000e+00 8.2500000e+00 
0.0000000e+00 0.0000000e+00 8.5000000e+00 
0.0000000e+00 0.0000000e+00 8.7500000e+00 
0.0000000e+00 0.0000000e+00 9.0000000e+00 
0.0000000e+00 0.0000000e+00 9.2500000e+00 
0.0000000e+00 0.0000000e+00 9.5000000e+00 
0.0000000e+00 0.0000000e+00 9.7500000e+00 
0.0000000e+00 0.0000000e+00 1.0000000e+01 
0.0000000e+00 0.0000000e+00 1.0250000e+01 
0.0000000e+00 0.0000000e+00 1.0500000e+01 
0.0000000e+00 0.0000000e+00 1.0750000e+01 
0.0000000e+00 0.0000000e+00 1.1000000e+01 
0.0000000e+00 0.0000000e+00 1.1250000e+01 
0.0000000e+00 0.0000000e+00 1.1500000e+01 
0.0000000e+00 0.0000000e+00 1.1750000e+01 
0.0000000e+00 0.0000000e+00 1.2000000e+01 
0.0000000e+00 0.0000000e+00 1.2250000e+01 
0.0000000e+00 0.0000000e+00 1.2500000e+01 
0.0000000e+00 0.0000000e+00 1.2750000e+01 
0.0000000e+00 0.0000000e+00 1.3000000e+01 
0.0000000e+00 0.0000000e+00 1.3250000e+01 
0.0000000e+00 0.0000000e+00 1.3500000e+01 
0.0000000e+00 0.0000000e+00 1.3750000e+01 
0.0000000e+00 0.0000000e+00 1.4000000e+01 
0.0000000e+00 0.0000000e+00 1.4250000e+01 
0.0000000e+00 0.0000000e+00 1.4500000e+01 
0.0000000e+00 0.0000000e+00 1.4750000e+01 
0.0000000e+00 0.0000000e+00 1.5000000e+01 
0.0000000e+00 0.0000000e+00 1.5250000e+01 
0.0000000e+00 0.0000000e+00 1.5500000e+01 
0.0000000e+00 0.0000000e+00 1.5750000e+01 
0.0000000e+00 0.0000000e+00 1.6000000e+01 
0.0000000e+00 0.0000000e+00 1.6250000e+01 
0.0000000e+00 0.0000000e+00 1.6500000e+01 
0.0000000e+00 0.0000000e+00 1.6750000e+01 
0.0000000e+00 0.0000000e+00 1.7000000e+01 
0.0000000e+00 0.0000000e+00 1.7250000e+01 
0.0000000e+00 0.0000000e+00 1.7500000e+01 
0.0000000e+00 0.0000000e+00 1.7750000e+01 
0.0000000e+00 0.0000000e+00 1.8000000e+01 
5.0000000e-01 0.0000000e+00 3.0000000e+00 
5.0000000e-01 0.0000000e+00 6.0000000e+00 
5.0000000e-01 0.0000000e+00 9.0000000e+00 
5.0000000e-01 0.0000000e+00 1.2000000e+01 
5.0000000e-01 0.0000000e+00 1.5000000e+01 
5.0000000e-01 0.0000000e+00 1.8000000e+01 
1.0000000e+00 0.0000000e+00 3.0000000e+00 
1.0000000e+00 0.0000000e+00 6.0000000e+00 
1.0000000e+00 0.0000000e+00 9.0000000e+00 
1.0000000e+00 0.0000000e+00 1.2000000e+01 
1.0000000e+00 0.0000000e+00 1.5000000e+01 
1.0000000e+00 0.0000000e+00 1.8000000e+01 
1.5000000e+00 0.0000000e+00 3.0000000e+00 
1.5000000e+00 0.0000000e+00 6.0000000e+00 
1.5000000e+00 0.0000000e+00 9.0000000e+00 
1.5000000e+00 0.0000000e+00 1.2000000e+01 
1.5000000e+00 0.0000000e+00 1.5000000e+01 
1.5000000e+00 0.0000000e+00 1.8000000e+01 
2.0000000e+00 0.0000000e+00 3.0000000e+00 
2.0000000e+00 0.0000000e+00 6.0000000e+00 
2.0000000e+00 0.0000000e+00 9.0000000e+00 
2.0000000e+00 0.0000000e+00 1.2000000e+01 
2.0000000e+00 0.0000000e+00 1.5000000e+01 
2.0000000e+00 0.0000000e+00 1.8000000e+01 
2.5000000e+00 0.0000000e+00 3.0000000e+00 
2.5000000e+00 0.0000000e+00 6.0000000e+00 
2.5000000e+00 0.0000000e+00 9.0000000e+00 
2.5000000e+00 0.0000000e+00 1.2000000e+01 
2.5000000e+00 0.0000000e+00 1.5000000e+01 
2.5000000e+00 0.0000000e+00 1.8000000e+01 
3.0000000e+00 0.0000000e+00 3.0000000e+00 
3.0000000e+00 0.0000000e+00 6.0000000e+00 
3.0000000e+00 0.0000000e+00 9.0000000e+00 
3.0000000e+00 0.0000000e+00 1.2000000e+01 
3.0000000e+00 0.0000000e+00 1.5000000e+01 
3.0000000e+00 0.0000000e+00 1.8000000e+01 
3.5000000e+00 0.0000000e+00 3.0000000e+00 
3.5000000e+00 0.0000000e+00 6.0000000e+00 
3.5000000e+00 0.0000000e+00 9.0000000e+00 
3.5000000e+00 0.0000000e+00 1.2000000e+01 
3.5000000e+00 0.0000000e+00 1.5000000e+01 
3.5000000e+00 0.0000000e+00 1.8000000e+01 
4.0000000e+00 0.0000000e+00 3.0000000e+00 
4.0000000e+00 0.0000000e+00 6.0000000e+00 
4.0000000e+00 0.0000000e+00 9.0000000e+00 
4.0000000e+00 0.0000000e+00 1.2000000e+01 
4.0000000e+00 0.0000000e+00 1.5000000e+01 
4.0000000e+00 0.0000000e+00 1.8000000e+01 
4.5000000e+00 0.0000000e+00 3.0000000e+00 
4.5000000e+00 0.0000000e+00 6.0000000e+00 
4.5000000e+00 0.0000000e+00 9.0000000e+00 
4.5000000e+00 0.0000000e+00 1.2000000e+01 
4.5000000e+00 0.0000000e+00 1.5000000e+01 
4.5000000e+00 0.0000000e+00 1.8000000e+01 
5.0000000e+00 0.0000000e+00 3.0000000e+00 
5.0000000e+00 0.0000000e+00 6.0000000e+00 
5.0000000e+00 0.0000000e+00 9.0000000e+00 
5.0000000e+00 0.0000000e+00 1.2000000e+01 
5.0000000e+00 0.0000000e+00 1.5000000e+01 
5.0000000e+00 0.0000000e+00 1.8000000e+01 
5.5000000e+00 0.0000000e+00 3.0000000e+00 
5.5000000e+00 0.0000000e+00 6.0000000e+00 
5.5000000e+00 0.0000000e+00 9.0000000e+00 
5.5000000e+00 0.0000000e+00 1.2000000e+01 
5.5000000e+00 0.0000000e+00 1.5000000e+01 
5.5000000e+00 0.0000000e+00 1.8000000e+01 
6.0000000e+00 0.0000000e+00 0.0000000e+00 
6.0000000e+00 0.0000000e+00 2.5000000e-01 
6.0000000e+00 0.0000000e+00 5.0000000e-01 
6.0000000e+00 0.0000000e+00 7.5000000e-01 
6.0000000e+00 0.0000000e+00 1.0000000e+00 
6.0000000e+00 0.0000000e+00 1.2500000e+00 
6.0000000e+00 0.0000000e+00 1.5000000e+00 
6.0000000e+00 0.0000000e+00 1.7500000e+00 
6.0000000e+00 0.0000000e+00 2.0000000e+00 
6.0000000e+00 0.0000000e+00 2.2500000e+00 
6.0000000e+00 0.0000000e+00 2.5000000e+00 
6.0000000e+00 0.0000000e+00 2.7500000e+00 
6.0000000e+00 0.0000000e+00 3.0000000e+00 
6.0000000e+00 0.0000000e+00 3.2500000e+00 
6.0000000e+00 0.0000000e+00 3.5000000e+00 
6.0000000e+00 0.0000000e+00 3.7500000e+00 
6.0000000e+00 0.0000000e+00 4.0000000e+00 
6.0000000e+00 0.0000000e+00 4.2500000e+00 
6.0000000e+00 0.0000000e+00 4.5000000e+00 
6.0000000e+00 0.0000000e+00 4.7500000e+00 
6.0000000e+00 0.0000000e+00 5.0000000e+00 
6.0000000e+00 0.0000000e+00 5.2500000e+00 
6.0000000e+00 0.0000000e+00 5.5000000e+00 
6.0000000e+00 0.0000000e+00 5.7500000e+00 
6.0000000e+00 0.0000000e+00 6.0000000e+00 
6.0000000e+00 0.0000000e+00 6.2500000e+00 
6.0000000e+00 0.0000000e+00 6.5000000e+00 
6.0000000e+00 0.0000000e+00 6.7500000e+00 
6.0000000e+00 0.0000000e+00 7.0000000e+00 
6.0000000e+00 0.0000000e+00 7.2500000e+00 
6.0000000e+00 0.0000000e+00 7.5000000e+00 
6.0000000e+00 0.0000000e+00 7.7500000e+00 
6.0000000e+00 0.0000000e+00 8.0000000e+00 
6.0000000e+00 0.0000000e+00 8.2500000e+00 
6.0000000e+00 0.0000000e+00 8.5000000e+00 
6.0000000e+00 0.0000000e+00 8.7500000e+00 
6.0000000e+00 0.0000000e+00 9.0000000e+00 
6.0000000e+00 0.0000000e+00 9.2500000e+00 
6.0000000e+00 0.0000000e+00 9.5000000e+00 
6.0000000e+00 0.0000000e+00 9.7500000e+00 
6.0000000e+00 0.0000000e+00 1.0000000e+01 
6.0000000e+00 0.0000000e+00 1.0250000e+01 
6.0000000e+00 0.0000000e+00 1.0500000e+01 
6.0000000e+00 0.0000000e+00 1.0750000e+01 
6.0000000e+00 0.0000000e+00 1.1000000e+01 
6.0000000e+00 0.0000000e+00 1.1250000e+01 
6.0000000e+00 0.0000000e+00 1.1500000e+01 
6.0000000e+00 0.0000000e+00 1.1750000e+01 
6.0000000e+00 0.0000000e+00 1.2000000e+01 
6.0000000e+00 0.0000000e+00 1.2250000e+01 
6.0000000e+00 0.0000000e+00 1.2500000e+01 
6.0000000e+00 0.0000000e+00 1.2750000e+01 
6.0000000e+00 0.0000000e+00 1.3000000e+01 
6.0000000e+00 0.0000000e+00 1.3250000e+01 
6.0000000e+00 0.0000000e+00 1.3500000e+01 
6.0000000e+00 0.0000000e+00 1.3750000e+01 
6.0000000e+00 0.0000000e+00 1.4000000e+01 
6.0000000e+00 0.0000000e+00 1.4250000e+01 
6.0000000e+00 0.0000000e+00 1.4500000e+01 
6.0000000e+00 0.0000000e+00 1.4750000e+01 
6.0000000e+00 0.0000000e+00 1.5000000e+01 
6.0000000e+00 0.0000000e+00 1.5250000e+01 
6.0000000e+00 0.0000000e+00 1.5500000e+01 
6.0000000e+00 0.0000000e+00 1.5750000e+01 
6.0000000e+00 0.0000000e+00 1.6000000e+01 
6.0000000e+00 0.0000000e+00 1.6250000e+01 
6.0000000e+00 0.0000000e+00 1.6500000e+01 
6.0000000e+00 0.0000000e+00 1.6750000e+01 
6.0000000e+00 0.0000000e+00 1.7000000e+01 
6.0000000e+00 0.0000000e+00 1.7250000e+01 
6.0000000e+00 0.0000000e+00 1.7500000e+01 
6.0000000e+00 0.0000000e+00 1.7750000e+01 
6.0000000e+00 0.0000000e+00 1.8000000e+01 

CELLS 216 648
2 0 1
2 1 2
2 2 3
2 3 4
2 4 5
2 5 6
2 6 7
2 7 8
2 8 9
2 9 10
2 10 11
2 11 12
2 12 13
2 13 14
2 14 15
2 15 16
2 16 17
2 17 18
2 18 19
2 19 20
2 20 21
2 21 22
2 22 23
2 23 24
2 24 25
2 25 26
2 26 27
2 27 28
2 28 29
2 29 30
2 30 31
2 31 32
2 32 33
2 33 34
2 34 35
2 35 36
2 36 37
2 37 38
2 38 39
2 39 40
2 40 41
2 41 42
2 42 43
2 43 44
2 44 45
2 45 46
2 46 47
2 47 48
2 48 49
2 49 50
2 50 51
2 51 52
2 52 53
2 53 54
2 54 55
2 55 56
2 56 57
2 57 58
2 58 59
2 59 60
2 60 61
2 61 62
2 62 63
2 63 64
2 64 65
2 65 66
2 66 67
2 67 68
2 68 69
2 69 70
2 70 71
2 71 72
2 139 140
2 140 141
2 141 142
2 142 143
2 143 144
2 144 145
2 145 146
2 146 147
2 147 148
2 148 149
2 149 150
2 150 151
2 151 152
2 152 153
2 153 154
2 154 155
2 155 156
2 156 157
2 157 158
2 158 159
2 159 160
2 160 161
2 161 162
2 162 163
2 163 164
2 164 165
2 165 166
2 166 167
2 167 168
2 168 169
2 169 170
2 170 171
2 171 172
2 172 173
2 173 174
2 174 175
2 175 176
2 176 177
2 177 178
2 178 179
2 179 180
2 180 181
2 181 182
2 182 183
2 183 184
2 184 185
2 185 186
2 186 187
2 187 188
2 188 189
2 189 190
2 190 191
2 191 192
2 192 193
2 193 194
2 194 195
2 195 196
2 196 197
2 197 198
2 198 199
2 199 200
2 200 201
2 201 202
2 202 203
2 203 204
2 204 205
2 205 206
2 206 207
2 207 208
2 208 209
2 209 210
2 210 211
2 12 73
2 73 79
2 79 85
2 85 91
2 91 97
2 97 103
2 103 109
2 109 115
2 115 121
2 121 127
2 127 133
2 133 151
2 24 74
2 74 80
2 80 86
2 86 92
2 92 98
2 98 104
2 104 110
2 110 116
2 116 122
2 122 128
2 128 134
2 134 163
2 36 75
2 75 81
2 81 87
2 87 93
2 93 99
2 99 105
2 105 111
2 111 117
2 117 123
2 123 129
2 129 135
2 135 175
2 48 76
2 76 82
2 82 88
2 88 94
2 94 100
2 100 106
2 106 112
2 112 118
2 118 124
2 124 130
2 130 136
2 136 187
2 60 77
2 77 83
2 83 89
2 89 95
2 95 101
2 101 107
2 107 113
2 113 119
2 119 125
2 125 131
2 131 137
2 137 199
2 72 78
2 78 84
2 84 90
2 90 96
2 96 102
2 102 108
2 108 114
2 114 120
2 120 126
2 126 132
2 132 138
2 138 211

CELL_TYPES 216
3
3
3
3
3
3
3
3
3
3
3
3
3
3
3
3
3
3
3
3
3
3
3
3
3
3
3
3
3
3
3
3
3
3
3
3
3
3
3
3
3
3
3
3
3
3
3
3
3
3
3
3
3
3
3
3
3
3
3
3
3
3
3
3
3
3
3
3
3
3
3
3
3
3
3
3
3
3
3
3
3
3
3
3
3
3
3
3
3
3
3
3
3
3
3
3
3
3
3
3
3
3
3
3
3
3
3
3
3
3
3
3
3
3
3
3
3
3
3
3
3
3
3
3
3
3
3
3
3
3
3
3
3
3
3
3
3
3
3
3
3
3
3
3
3
3
3
3
3
3
3
3
3
3
3
3
3
3
3
3
3
3
3
3
3
3
3
3
3
3
3
3
3
3
3
3
3
3
3
3
3
3
3
3
3
3
3
3
3
3
3
3
3
3
3
3
3
3
3
3
3
3
3
3
3
3
3
3
3
3
3
3
3
3
3
3
POINT_DATA 212
FIELD FieldData 3
ADJOINT_DISPLACEMENT 3 212  float
0.0000000e+00 0.0000000e+00 0.0000000e+00 
-5.9051144e-06 0.0000000e+00 -6.8412899e-17 
-1.2888629e-05 0.0000000e+00 -1.3682580e-16 
-2.2028948e-05 0.0000000e+00 -2.0523870e-16 
-3.4404467e-05 0.0000000e+00 -2.7365160e-16 
-5.1093593e-05 0.0000000e+00 -3.4206451e-16 
-7.3174720e-05 0.0000000e+00 -4.1047741e-16 
-1.0172625e-04 0.0000000e+00 -4.7889030e-16 
-1.3782660e-04 0.0000000e+00 -5.4730319e-16 
-1.8255415e-04 0.0000000e+00 -6.1571608e-16 
-2.3698731e-04 0.0000000e+00 -6.8412903e-16 
-3.0220448e-04 0.0000000e+00 -7.5254192e-16 
-3.7928406e-04 0.0000000e+00 -8.2095481e-16 
-4.7414811e-04 0.0000000e+00 3.8719623e-09 
-5.8767735e-04 0.0000000e+00 7.7439255e-09 
-7.1338820e-04 0.0000000e+00 1.1615888e-08 
-8.4479718e-04 0.0000000e+00 1.5487851e-08 
-9.7542076e-04 0.0000000e+00 1.9359813e-08 
-1.0987753e-03 0.0000000e+00 2.3231777e-08 
-1.2083773e-03 0.0000000e+00 2.7103740e-08 
-1.2977432e-03 0.0000000e+00 3.0975702e-08 
-1.3603895e-03 0.0000000e+00 3.4847666e-08 
-1.3898326e-03 0.0000000e+00 3.8719630e-08 
-1.3795889e-03 0.0000000e+00 4.2591591e-08 
-1.3231749e-03 0.0000000e+00 4.6463555e-08 
-1.2270025e-03 0.0000000e+00 6.5823848e-08 
-1.1205893e-03 0.0000000e+00 8.5184134e-08 
-1.0321110e-03 0.0000000e+00 1.0454443e-07 
-9.8974293e-04 0.0000000e+00 1.2390471e-07 
-1.0216606e-03 0.0000000e+00 1.4326500e-07 
-1.1560398e-03 0.0000000e+00 1.6262530e-07 
-1.4210558e-03 0.0000000e+00 1.8198558e-07 
-1.8448840e-03 0.0000000e+00 2.0134587e-07 
-2.4557002e-03 0.0000000e+00 2.2070617e-07 
-3.2816799e-03 0.0000000e+00 2.4006644e-07 
-4.3509984e-03 0.0000000e+00 2.5942674e-07 
-5.6918315e-03 0.0000000e+00 2.7878704e-07 
-7.4194446e-03 0.0000000e+00 3.7171890e-07 
-9.5498906e-03 0.0000000e+00 4.6465075e-07 
-1.1962526e-02 0.0000000e+00 5.5758261e-07 
-1.4536706e-02 0.0000000e+00 6.5051449e-07 
-1.7151786e-02 0.0000000e+00 7.4344632e-07 
-1.9687122e-02 0.0000000e+00 8.3637821e-07 
-2.2022070e-02 0.0000000e+00 9.2931009e-07 
-2.4035985e-02 0.0000000e+00 1.0222419e-06 
-2.5608223e-02 0.0000000e+00 1.1151737e-06 
-2.6618140e-02 0.0000000e+00 1.2081057e-06 
-2.6945092e-02 0.0000000e+00 1.3010375e-06 
-2.6468433e-02 0.0000000e+00 1.3939693e-06 
-2.5374645e-02 0.0000000e+00 1.8392798e-06 
-2.4274327e-02 0.0000000e+00 2.2845902e-06 
-2.3683004e-02 0.0000000e+00 2.7299006e-06 
-2.4116209e-02 0.0000000e+00 3.1752111e-06 
-2.6089471e-02 0.0000000e+00 3.6205215e-06 
-3.0118320e-02 0.0000000e+00 4.0658319e-06 
-3.6718287e-02 0.0000000e+00 4.5111424e-06 
-4.6404898e-02 0.0000000e+00 4.9564528e-06 
-5.9693690e-02 0.0000000e+00 5.4017632e-06 
-7.7100188e-02 0.0000000e+00 5.8470737e-06 
-9.9139921e-02 0.0000000e+00 6.2923841e-06 
-1.2632842e-01 0.0000000e+00 6.7376945e-06 
-1.5374437e-01 0.0000000e+00 6.3156162e-06 
-1.7639229e-01 0.0000000e+00 5.8935379e-06 
-1.9467640e-01 0.0000000e+00 5.4714601e-06 
-2.0900099e-01 0.0000000e+00 5.0493818e-06 
-2.1977030e-01 0.0000000e+00 4.6273035e-06 
-2.2738859e-01 0.0000000e+00 4.2052257e-06 
-2.3226011e-01 0.0000000e+00 3.7831473e-06 
-2.3478912e-01 0.0000000e+00 3.3610690e-06 
-2.3537986e-01 0.0000000e+00 2.9389910e-06 
-2.3443660e-01 0.0000000e+00 2.5169127e-06 
-2.3236361e-01 0.0000000e+00 2.0948346e-06 
-2.2956511e-01 0.0000000e+00 1.6727564e-06 
-3.7919500e-04 0.0000000e+00 1.4320138e-04 
-1.3235832e-03 0.0000000e+00 -1.8824219e-04 
-5.6900787e-03 0.0000000e+00 2.5413269e-03 
-2.6475925e-02 0.0000000e+00 -2.5605545e-03 
-1.2632711e-01 0.0000000e+00 8.1352979e-02 
-2.2956036e-01 0.0000000e+00 -6.5981979e-03 
-3.7910594e-04 0.0000000e+00 2.4283143e-04 
-1.3239913e-03 0.0000000e+00 -4.1243897e-04 
-5.6883260e-03 0.0000000e+00 4.2871791e-03 
-2.6483418e-02 0.0000000e+00 -6.2525305e-03 
-1.2632580e-01 0.0000000e+00 2.0486718e-01 
-2.2955559e-01 0.0000000e+00 -1.3909581e-02 
-3.7901688e-04 0.0000000e+00 3.0415057e-04 
-1.3243995e-03 0.0000000e+00 -6.5150153e-04 
-5.6865732e-03 0.0000000e+00 5.3377887e-03 
-2.6490910e-02 0.0000000e+00 -1.0595796e-02 
-1.2632449e-01 0.0000000e+00 3.6937091e-01 
-2.2955084e-01 0.0000000e+00 -2.1359045e-02 
-3.7892783e-04 0.0000000e+00 3.3241921e-04 
-1.3248076e-03 0.0000000e+00 -8.8438758e-04 
-5.6848209e-03 0.0000000e+00 5.7931095e-03 
-2.6498402e-02 0.0000000e+00 -1.5111612e-02 
-1.2632318e-01 0.0000000e+00 5.7368577e-01 
-2.2954607e-01 0.0000000e+00 -2.8373158e-02 
-3.7883877e-04 0.0000000e+00 3.3289776e-04 
-1.3252158e-03 0.0000000e+00 -1.0900549e-03 
-5.6830682e-03 0.0000000e+00 5.7530957e-03 
-2.6505895e-02 0.0000000e+00 -1.9321240e-02 
-1.2632187e-01 0.0000000e+00 8.1663328e-01 
-2.2954132e-01 0.0000000e+00 -3.4378491e-02 
-3.7874971e-04 0.0000000e+00 3.1084666e-04 
-1.3256241e-03 0.0000000e+00 -1.2474610e-03 
-5.6813154e-03 0.0000000e+00 5.3177001e-03 
-2.6513387e-02 0.0000000e+00 -2.2745945e-02 
-1.2632056e-01 0.0000000e+00 5.9703505e-01 
-2.2953655e-01 0.0000000e+00 -3.8801607e-02 
-3.7866065e-04 0.0000000e+00 2.7152628e-04 
-1.3260322e-03 0.0000000e+00 -1.3355637e-03 
-5.6795627e-03 0.0000000e+00 4.5868768e-03 
-2.6520878e-02 0.0000000e+00 -2.4906985e-02 
-1.2631924e-01 0.0000000e+00 4.1371268e-01 
-2.2953179e-01 0.0000000e+00 -4.1069083e-02 
-3.7857163e-04 0.0000000e+00 2.2019708e-04 
-1.3264404e-03 0.0000000e+00 -1.3333209e-03 
-5.6778104e-03 0.0000000e+00 3.6605792e-03 
-2.6528371e-02 0.0000000e+00 -2.5325624e-02 
-1.2631793e-01 0.0000000e+00 2.6548770e-01 
-2.2952703e-01 0.0000000e+00 -4.0607478e-02 
-3.7848257e-04 0.0000000e+00 1.6211942e-04 
-1.3268485e-03 0.0000000e+00 -1.2196900e-03 
-5.6760577e-03 0.0000000e+00 2.6387614e-03 
-2.6535863e-02 0.0000000e+00 -2.3523122e-02 
-1.2631662e-01 0.0000000e+00 1.5118168e-01 
-2.2952227e-01 0.0000000e+00 -3.6843367e-02 
-3.7839351e-04 0.0000000e+00 1.0255375e-04 
-1.3272568e-03 0.0000000e+00 -9.7362883e-04 
-5.6743049e-03 0.0000000e+00 1.6213766e-03 
-2.6543355e-02 0.0000000e+00 -1.9020742e-02 
-1.2631531e-01 0.0000000e+00 6.9616228e-02 
-2.2951750e-01 0.0000000e+00 -2.9203316e-02 
-3.7830445e-04 0.0000000e+00 4.6760473e-05 
-1.3276649e-03 0.0000000e+00 -5.7409506e-04 
-5.6725522e-03 0.0000000e+00 7.0837868e-04 
-2.6550848e-02 0.0000000e+00 -1.1339745e-02 
-1.2631401e-01 0.0000000e+00 1.9612897e-02 
-2.2951275e-01 0.0000000e+00 -1.7113896e-02 
0.0000000e+00 0.0000000e+00 0.0000000e+00 
-5.7219841e-05 0.0000000e+00 6.8150200e-17 
-1.1336128e-04 0.0000000e+00 1.3630051e-16 
-1.6734592e-04 0.0000000e+00 2.0445065e-16 
-2.1809535e-04 0.0000000e+00 2.7260088e-16 
-2.6453118e-04 0.0000000e+00 3.4075100e-16 
-3.0557500e-04 0.0000000e+00 4.0890113e-16 
-3.4014843e-04 0.0000000e+00 4.7705129e-16 
-3.6717302e-04 0.0000000e+00 5.4520144e-16 
-3.8557043e-04 0.0000000e+00 6.1335154e-16 
-3.9426223e-04 0.0000000e+00 6.8150164e-16 
-3.9217001e-04 0.0000000e+00 7.4965169e-16 
-3.7821539e-04 0.0000000e+00 8.1780173e-16 
-3.5436693e-04 0.0000000e+00 -3.8719623e-09 
-3.2763451e-04 0.0000000e+00 -7.7439255e-09 
-3.0450168e-04 0.0000000e+00 -1.1615888e-08 
-2.9145196e-04 0.0000000e+00 -1.5487851e-08 
-2.9496895e-04 0.0000000e+00 -1.9359813e-08 
-3.2153618e-04 0.0000000e+00 -2.3231777e-08 
-3.7763719e-04 0.0000000e+00 -2.7103740e-08 
-4.6975550e-04 0.0000000e+00 -3.0975702e-08 
-6.0437474e-04 0.0000000e+00 -3.4847666e-08 
-7.8797835e-04 0.0000000e+00 -3.8719630e-08 
-1.0270500e-03 0.0000000e+00 -4.2591591e-08 
-1.3280731e-03 0.0000000e+00 -4.6463555e-08 
-1.7161994e-03 0.0000000e+00 -6.5823848e-08 
-2.1934747e-03 0.0000000e+00 -8.5184134e-08 
-2.7317230e-03 0.0000000e+00 -1.0454443e-07 
-3.3027695e-03 0.0000000e+00 -1.2390471e-07 
-3.8784381e-03 0.0000000e+00 -1.4326500e-07 
-4.4305534e-03 0.0000000e+00 -1.6262530e-07 
-4.9309400e-03 0.0000000e+00 -1.8198558e-07 
-5.3514228e-03 0.0000000e+00 -2.0134587e-07 
-5.6638252e-03 0.0000000e+00 -2.2070617e-07 
-5.8399728e-03 0.0000000e+00 -2.4006644e-07 
-5.8516893e-03 0.0000000e+00 -2.5942674e-07 
-5.6707999e-03 0.0000000e+00 -2.7878704e-07 
-5.3319684e-03 0.0000000e+00 -3.7171890e-07 
-4.9690730e-03 0.0000000e+00 -4.6465075e-07 
-4.7027576e-03 0.0000000e+00 -5.5758261e-07 
-4.6536671e-03 0.0000000e+00 -6.5051449e-07 
-4.9424451e-03 0.0000000e+00 -7.4344632e-07 
-5.6897365e-03 0.0000000e+00 -8.3637821e-07 
-7.0161852e-03 0.0000000e+00 -9.2931009e-07 
-9.0424353e-03 0.0000000e+00 -1.0222419e-06 
-1.1889132e-02 0.0000000e+00 -1.1151737e-06 
-1.5676919e-02 0.0000000e+00 -1.2081057e-06 
-2.0526439e-02 0.0000000e+00 -1.3010375e-06 
-2.6558340e-02 0.0000000e+00 -1.3939693e-06 
-3.4304246e-02 0.0000000e+00 -1.8392798e-06 
-4.3871667e-02 0.0000000e+00 -2.2845902e-06 
-5.4745074e-02 0.0000000e+00 -2.7299006e-06 
-6.6408940e-02 0.0000000e+00 -3.1752111e-06 
-7.8347728e-02 0.0000000e+00 -3.6205215e-06 
-9.0045922e-02 0.0000000e+00 -4.0658319e-06 
-1.0098797e-01 0.0000000e+00 -4.5111424e-06 
-1.1065836e-01 0.0000000e+00 -4.9564528e-06 
-1.1854156e-01 0.0000000e+00 -5.4017632e-06 
-1.2412204e-01 0.0000000e+00 -5.8470737e-06 
-1.2688425e-01 0.0000000e+00 -6.2923841e-06 
-1.2631270e-01 0.0000000e+00 -6.7376945e-06 
-1.2556103e-01 0.0000000e+00 -6.3156162e-06 
-1.2785710e-01 0.0000000e+00 -5.8935379e-06 
-1.3279667e-01 0.0000000e+00 -5.4714601e-06 
-1.3997549e-01 0.0000000e+00 -5.0493818e-06 
-1.4898929e-01 0.0000000e+00 -4.6273035e-06 
-1.5943381e-01 0.0000000e+00 -4.2052257e-06 
-1.7090482e-01 0.0000000e+00 -3.7831473e-06 
-1.8299803e-01 0.0000000e+00 -3.3610690e-06 
-1.9530922e-01 0.0000000e+00 -2.9389910e-06 
-2.0743410e-01 0.0000000e+00 -2.5169127e-06 
-2.1896845e-01 0.0000000e+00 -2.0948346e-06 
-2.2950798e-01 0.0000000e+00 -1.6727564e-06 
ADJOINT_ROTATION 3 212  float
0.0000000e+00 -2.2901524e-05 0.0000000e+00 
0.0000000e+00 -2.5058325e-05 0.0000000e+00 
0.0000000e+00 -3.1528733e-05 0.0000000e+00 
0.0000000e+00 -4.2312742e-05 0.0000000e+00 
0.0000000e+00 -5.7410354e-05 0.0000000e+00 
0.0000000e+00 -7.6821576e-05 0.0000000e+00 
0.0000000e+00 -1.0054640e-04 0.0000000e+00 
0.0000000e+00 -1.2858483e-04 0.0000000e+00 
0.0000000e+00 -1.6093685e-04 0.0000000e+00 
0.0000000e+00 -1.9760249e-04 0.0000000e+00 
0.0000000e+00 -2.3858172e-04 0.0000000e+00 
0.0000000e+00 -2.8387457e-04 0.0000000e+00 
0.0000000e+00 -3.3348100e-04 0.0000000e+00 
0.0000000e+00 -4.2110891e-04 0.0000000e+00 
0.0000000e+00 -4.8280260e-04 0.0000000e+00 
0.0000000e+00 -5.1856210e-04 0.0000000e+00 
0.0000000e+00 -5.2838743e-04 0.0000000e+00 
0.0000000e+00 -5.1227852e-04 0.0000000e+00 
0.0000000e+00 -4.7023545e-04 0.0000000e+00 
0.0000000e+00 -4.0225819e-04 0.0000000e+00 
0.0000000e+00 -3.0834673e-04 0.0000000e+00 
0.0000000e+00 -1.8850107e-04 0.0000000e+00 
0.0000000e+00 -4.2721233e-05 0.0000000e+00 
0.0000000e+00 1.2899280e-04 0.0000000e+00 
0.0000000e+00 3.2664102e-04 0.0000000e+00 
0.0000000e+00 4.2395495e-04 0.0000000e+00 
0.0000000e+00 4.0856679e-04 0.0000000e+00 
0.0000000e+00 2.8047658e-04 0.0000000e+00 
0.0000000e+00 3.9684299e-05 0.0000000e+00 
0.0000000e+00 -3.1381004e-04 0.0000000e+00 
0.0000000e+00 -7.8000640e-04 0.0000000e+00 
0.0000000e+00 -1.3589049e-03 0.0000000e+00 
0.0000000e+00 -2.0505055e-03 0.0000000e+00 
0.0000000e+00 -2.8548080e-03 0.0000000e+00 
0.0000000e+00 -3.7718127e-03 0.0000000e+00 
0.0000000e+00 -4.8015192e-03 0.0000000e+00 
0.0000000e+00 -5.9439279e-03 0.0000000e+00 
0.0000000e+00 -7.7965488e-03 0.0000000e+00 
0.0000000e+00 -9.1665927e-03 0.0000000e+00 
0.0000000e+00 -1.0054059e-02 0.0000000e+00 
0.0000000e+00 -1.0458949e-02 0.0000000e+00 
0.0000000e+00 -1.0381262e-02 0.0000000e+00 
0.0000000e+00 -9.8209968e-03 0.0000000e+00 
0.0000000e+00 -8.7781549e-03 0.0000000e+00 
0.0000000e+00 -7.2527360e-03 0.0000000e+00 
0.0000000e+00 -5.2447398e-03 0.0000000e+00 
0.0000000e+00 -2.7541670e-03 0.0000000e+00 
0.0000000e+00 2.1898338e-04 0.0000000e+00 
0.0000000e+00 3.6747109e-03 0.0000000e+00 
0.0000000e+00 4.7319010e-03 0.0000000e+00 
0.0000000e+00 3.7269716e-03 0.0000000e+00 
0.0000000e+00 6.5992237e-04 0.0000000e+00 
0.0000000e+00 -4.4692466e-03 0.0000000e+00 
0.0000000e+00 -1.1660536e-02 0.0000000e+00 
0.0000000e+00 -2.0913944e-02 0.0000000e+00 
0.0000000e+00 -3.2229472e-02 0.0000000e+00 
0.0000000e+00 -4.5607120e-02 0.0000000e+00 
0.0000000e+00 -6.1046887e-02 0.0000000e+00 
0.0000000e+00 -7.8548774e-02 0.0000000e+00 
0.0000000e+00 -9.8112784e-02 0.0000000e+00 
0.0000000e+00 -1.1973891e-01 0.0000000e+00 
0.0000000e+00 -9.9858224e-02 0.0000000e+00 
0.0000000e+00 -8.1594557e-02 0.0000000e+00 
0.0000000e+00 -6.4947911e-02 0.0000000e+00 
0.0000000e+00 -4.9918287e-02 0.0000000e+00 
0.0000000e+00 -3.6505684e-02 0.0000000e+00 
0.0000000e+00 -2.4710104e-02 0.0000000e+00 
0.0000000e+00 -1.4531543e-02 0.0000000e+00 
0.0000000e+00 -5.9700040e-03 0.0000000e+00 
0.0000000e+00 9.7451417e-04 0.0000000e+00 
0.0000000e+00 6.3020112e-03 0.0000000e+00 
0.0000000e+00 1.0012487e-02 0.0000000e+00 
0.0000000e+00 1.2105941e-02 0.0000000e+00 
0.0000000e+00 -2.4107796e-04 0.0000000e+00 
0.0000000e+00 4.1949953e-04 0.0000000e+00 
0.0000000e+00 -4.2535826e-03 0.0000000e+00 
0.0000000e+00 6.4135040e-03 0.0000000e+00 
0.0000000e+00 -2.0525326e-01 0.0000000e+00 
0.0000000e+00 1.4102397e-02 0.0000000e+00 
0.0000000e+00 -1.5919573e-04 0.0000000e+00 
0.0000000e+00 4.7027340e-04 0.0000000e+00 
0.0000000e+00 -2.7631440e-03 0.0000000e+00 
0.0000000e+00 8.1948210e-03 0.0000000e+00 
0.0000000e+00 -2.8841075e-01 0.0000000e+00 
0.0000000e+00 1.4951991e-02 0.0000000e+00 
0.0000000e+00 -8.7834313e-05 0.0000000e+00 
0.0000000e+00 4.7896270e-04 0.0000000e+00 
0.0000000e+00 -1.4726128e-03 0.0000000e+00 
0.0000000e+00 9.0186615e-03 0.0000000e+00 
0.0000000e+00 -3.6921138e-01 0.0000000e+00 
0.0000000e+00 1.4654721e-02 0.0000000e+00 
0.0000000e+00 -2.6993734e-05 0.0000000e+00 
0.0000000e+00 4.4556742e-04 0.0000000e+00 
0.0000000e+00 -3.8198900e-04 0.0000000e+00 
0.0000000e+00 8.8850250e-03 0.0000000e+00 
0.0000000e+00 -4.4765517e-01 0.0000000e+00 
0.0000000e+00 1.3210589e-02 0.0000000e+00 
0.0000000e+00 2.3326023e-05 0.0000000e+00 
0.0000000e+00 3.7008754e-04 0.0000000e+00 
0.0000000e+00 5.0872751e-04 0.0000000e+00 
0.0000000e+00 7.7939122e-03 0.0000000e+00 
0.0000000e+00 -5.2374214e-01 0.0000000e+00 
0.0000000e+00 1.0619594e-02 0.0000000e+00 
0.0000000e+00 6.3124957e-05 0.0000000e+00 
0.0000000e+00 2.5252305e-04 0.0000000e+00 
0.0000000e+00 1.1995367e-03 0.0000000e+00 
0.0000000e+00 5.7453234e-03 0.0000000e+00 
0.0000000e+00 4.0252781e-01 0.0000000e+00 
0.0000000e+00 6.8817353e-03 0.0000000e+00 
0.0000000e+00 9.2403061e-05 0.0000000e+00 
0.0000000e+00 9.2873976e-05 0.0000000e+00 
0.0000000e+00 1.6904386e-03 0.0000000e+00 
0.0000000e+00 2.7392579e-03 0.0000000e+00 
0.0000000e+00 3.3115456e-01 0.0000000e+00 
0.0000000e+00 1.9970138e-03 0.0000000e+00 
0.0000000e+00 1.1116034e-04 0.0000000e+00 
0.0000000e+00 -1.0885969e-04 0.0000000e+00 
0.0000000e+00 1.9814332e-03 0.0000000e+00 
0.0000000e+00 -1.2242841e-03 0.0000000e+00 
0.0000000e+00 2.6213819e-01 0.0000000e+00 
0.0000000e+00 -4.0345704e-03 0.0000000e+00 
0.0000000e+00 1.1939679e-04 0.0000000e+00 
0.0000000e+00 -3.5267795e-04 0.0000000e+00 
0.0000000e+00 2.0725206e-03 0.0000000e+00 
0.0000000e+00 -6.1453022e-03 0.0000000e+00 
0.0000000e+00 1.9547866e-01 0.0000000e+00 
0.0000000e+00 -1.1213018e-02 0.0000000e+00 
0.0000000e+00 1.1711242e-04 0.0000000e+00 
0.0000000e+00 -6.3858082e-04 0.0000000e+00 
0.0000000e+00 1.9637006e-03 0.0000000e+00 
0.0000000e+00 -1.2023797e-02 0.0000000e+00 
0.0000000e+00 1.3117598e-01 0.0000000e+00 
0.0000000e+00 -1.9538328e-02 0.0000000e+00 
0.0000000e+00 1.0430723e-04 0.0000000e+00 
0.0000000e+00 -9.6656824e-04 0.0000000e+00 
0.0000000e+00 1.6549733e-03 0.0000000e+00 
0.0000000e+00 -1.8859768e-02 0.0000000e+00 
0.0000000e+00 6.9230162e-02 0.0000000e+00 
0.0000000e+00 -2.9010501e-02 0.0000000e+00 
0.0000000e+00 -2.2959830e-04 0.0000000e+00 
0.0000000e+00 -2.2744149e-04 0.0000000e+00 
0.0000000e+00 -2.2097108e-04 0.0000000e+00 
0.0000000e+00 -2.1018708e-04 0.0000000e+00 
0.0000000e+00 -1.9508947e-04 0.0000000e+00 
0.0000000e+00 -1.7567824e-04 0.0000000e+00 
0.0000000e+00 -1.5195341e-04 0.0000000e+00 
0.0000000e+00 -1.2391499e-04 0.0000000e+00 
0.0000000e+00 -9.1562964e-05 0.0000000e+00 
0.0000000e+00 -5.4897329e-05 0.0000000e+00 
0.0000000e+00 -1.3918089e-05 0.0000000e+00 
0.0000000e+00 3.1374755e-05 0.0000000e+00 
0.0000000e+00 8.0981197e-05 0.0000000e+00 
0.0000000e+00 1.0548413e-04 0.0000000e+00 
0.0000000e+00 1.0405288e-04 0.0000000e+00 
0.0000000e+00 7.6687429e-05 0.0000000e+00 
0.0000000e+00 2.3387785e-05 0.0000000e+00 
0.0000000e+00 -5.5846052e-05 0.0000000e+00 
0.0000000e+00 -1.6101408e-04 0.0000000e+00 
0.0000000e+00 -2.9211631e-04 0.0000000e+00 
0.0000000e+00 -4.4915272e-04 0.0000000e+00 
0.0000000e+00 -6.3212332e-04 0.0000000e+00 
0.0000000e+00 -8.4102812e-04 0.0000000e+00 
0.0000000e+00 -1.0758671e-03 0.0000000e+00 
0.0000000e+00 -1.3366403e-03 0.0000000e+00 
0.0000000e+00 -1.7495867e-03 0.0000000e+00 
0.0000000e+00 -2.0498310e-03 0.0000000e+00 
0.0000000e+00 -2.2373733e-03 0.0000000e+00 
0.0000000e+00 -2.3122136e-03 0.0000000e+00 
0.0000000e+00 -2.2743519e-03 0.0000000e+00 
0.0000000e+00 -2.1237880e-03 0.0000000e+00 
0.0000000e+00 -1.8605220e-03 0.0000000e+00 
0.0000000e+00 -1.4845539e-03 0.0000000e+00 
0.0000000e+00 -9.9588383e-04 0.0000000e+00 
0.0000000e+00 -3.9451176e-04 0.0000000e+00 
0.0000000e+00 3.1956242e-04 0.0000000e+00 
0.0000000e+00 1.1463386e-03 0.0000000e+00 
0.0000000e+00 1.4838832e-03 0.0000000e+00 
0.0000000e+00 1.3388507e-03 0.0000000e+00 
0.0000000e+00 7.1124110e-04 0.0000000e+00 
0.0000000e+00 -3.9894567e-04 0.0000000e+00 
0.0000000e+00 -1.9917095e-03 0.0000000e+00 
0.0000000e+00 -4.0670508e-03 0.0000000e+00 
0.0000000e+00 -6.6249687e-03 0.0000000e+00 
0.0000000e+00 -9.6654641e-03 0.0000000e+00 
0.0000000e+00 -1.3188536e-02 0.0000000e+00 
0.0000000e+00 -1.7194185e-02 0.0000000e+00 
0.0000000e+00 -2.1682411e-02 0.0000000e+00 
0.0000000e+00 -2.6653215e-02 0.0000000e+00 
0.0000000e+00 -3.4970343e-02 0.0000000e+00 
0.0000000e+00 -4.1225348e-02 0.0000000e+00 
0.0000000e+00 -4.5418233e-02 0.0000000e+00 
0.0000000e+00 -4.7548998e-02 0.0000000e+00 
0.0000000e+00 -4.7617644e-02 0.0000000e+00 
0.0000000e+00 -4.5624170e-02 0.0000000e+00 
0.0000000e+00 -4.1568577e-02 0.0000000e+00 
0.0000000e+00 -3.5450865e-02 0.0000000e+00 
0.0000000e+00 -2.7271030e-02 0.0000000e+00 
0.0000000e+00 -1.7029079e-02 0.0000000e+00 
0.0000000e+00 -4.7250059e-03 0.0000000e+00 
0.0000000e+00 9.6411863e-03 0.0000000e+00 
0.0000000e+00 -3.3583236e-03 0.0000000e+00 
0.0000000e+00 -1.4740813e-02 0.0000000e+00 
0.0000000e+00 -2.4506280e-02 0.0000000e+00 