# vtk DataFile Version 4.0
vtk output
ASCII
DATASET UNSTRUCTURED_GRID
POINTS 212 float
0.0000000e+00 0.0000000e+00 0.0000000e+00 
0.0000000e+00 0.0000000e+00 2.5000000e-01 
0.0000000e+00 0.0000000e+00 5.0000000e-01 
0.0000000e+00 0.0000000e+00 7.5000000e-01 
0.0000000e+00 0.0000000e+00 1.0000000e+00 
0.0000000e+00 0.0000000e+00 1.2500000e+00 
0.0000000e+00 0.0000000e+00 1.5000000e+00 
0.0000000e+00 0.0000000e+00 1.7500000e+00 
0.0000000e+00 0.0000000e+00 2.0000000e+00 
0.0000000e+00 0.0000000e+00 2.2500000e+00 
0.0000000e+00 0.0000000e+00 2.5000000e+00 
0.0000000e+00 0.0000000e+00 2.7500000e+00 
0.0000000e+00 0.0000000e+00 3.0000000e+00 
0.0000000e+00 0.0000000e+00 3.2500000e+00 
0.0000000e+00 0.0000000e+00 3.5000000e+00 
0.0000000e+00 0.0000000e+00 3.7500000e+00 
0.0000000e+00 0.0000000e+00 4.0000000e+00 
0.0000000e+00 0.0000000e+00 4.2500000e+00 
0.0000000e+00 0.0000000e+00 4.5000000e+00 
0.0000000e+00 0.0000000e+00 4.7500000e+00 
0.0000000e+00 0.0000000e+00 5.0000000e+00 
0.0000000e+00 0.0000000e+00 5.2500000e+00 
0.0000000e+00 0.0000000e+00 5.5000000e+00 
0.0000000e+00 0.0000000e+00 5.7500000e+00 
0.0000000e+00 0.0000000e+00 6.0000000e+00 
0.0000000e+00 0.0000000e+00 6.2500000e+00 
0.0000000e+00 0.0000000e+00 6.5000000e+00 
0.0000000e+00 0.0000000e+00 6.7500000e+00 
0.0000000e+00 0.0000000e+00 7.0000000e+00 
0.0000000e+00 0.0000000e+00 7.2500000e+00 
0.0000000e+00 0.0000000e+00 7.5000000e+00 
0.0000000e+00 0.0000000e+00 7.7500000e+00 
0.0000000e+00 0.0000000e+00 8.0000000e+00 
0.0000000e+00 0.0000000e+00 8.2500000e+00 
0.0000000e+00 0.0000000e+00 8.5000000e+00 
0.0000000e+00 0.0000000e+00 8.7500000e+00 
0.0000000e+00 0.0000000e+00 9.0000000e+00 
0.0000000e+00 0.0000000e+00 9.2500000e+00 
0.0000000e+00 0.0000000e+00 9.5000000e+00 
0.0000000e+00 0.0000000e+00 9.7500000e+00 
0.0000000e+00 0.0000000e+00 1.0000000e+01 
0.0000000e+00 0.0000000e+00 1.0250000e+01 
0.0000000e+00 0.0000000e+00 1.0500000e+01 
0.0000000e+00 0.0000000e+00 1.0750000e+01 
0.0000000e+00 0.0000000e+00 1.1000000e+01 
0.0000000e+00 0.0000000e+00 1.1250000e+01 
0.0000000e+00 0.0000000e+00 1.1500000e+01 
0.0000000e+00 0.0000000e+00 1.1750000e+01 
0.0000000e+00 0.0000000e+00 1.2000000e+01 
0.0000000e+00 0.0000000e+00 1.2250000e+01 
0.0000000e+00 0.0000000e+00 1.2500000e+01 
0.0000000e+00 0.0000000e+00 1.2750000e+01 
0.0000000e+00 0.0000000e+00 1.3000000e+01 
0.0000000e+00 0.0000000e+00 1.3250000e+01 
0.0000000e+00 0.0000000e+00 1.3500000e+01 
0.0000000e+00 0.0000000e+00 1.3750000e+01 
0.0000000e+00 0.0000000e+00 1.4000000e+01 
0.0000000e+00 0.0000000e+00 1.4250000e+01 
0.0000000e+00 0.0000000e+00 1.4500000e+01 
0.0000000e+00 0.0000000e+00 1.4750000e+01 
0.0000000e+00 0.0000000e+00 1.5000000e+01 
0.0000000e+00 0.0000000e+00 1.5250000e+01 
0.0000000e+00 0.0000000e+00 1.5500000e+01 
0.0000000e+00 0.0000000e+00 1.5750000e+01 
0.0000000e+00 0.0000000e+00 1.6000000e+01 
0.0000000e+00 0.0000000e+00 1.6250000e+01 
0.0000000e+00 0.0000000e+00 1.6500000e+01 
0.0000000e+00 0.0000000e+00 1.6750000e+01 
0.0000000e+00 0.0000000e+00 1.7000000e+01 
0.0000000e+00 0.0000000e+00 1.7250000e+01 
0.0000000e+00 0.0000000e+00 1.7500000e+01 
0.0000000e+00 0.0000000e+00 1.7750000e+01 
0.0000000e+00 0.0000000e+00 1.8000000e+01 
5.0000000e-01 0.0000000e+00 3.0000000e+00 
5.0000000e-01 0.0000000e+00 6.0000000e+00 
5.0000000e-01 0.0000000e+00 9.0000000e+00 
5.0000000e-01 0.0000000e+00 1.2000000e+01 
5.0000000e-01 0.0000000e+00 1.5000000e+01 
5.0000000e-01 0.0000000e+00 1.8000000e+01 
1.0000000e+00 0.0000000e+00 3.0000000e+00 
1.0000000e+00 0.0000000e+00 6.0000000e+00 
1.0000000e+00 0.0000000e+00 9.0000000e+00 
1.0000000e+00 0.0000000e+00 1.2000000e+01 
1.0000000e+00 0.0000000e+00 1.5000000e+01 
1.0000000e+00 0.0000000e+00 1.8000000e+01 
1.5000000e+00 0.0000000e+00 3.0000000e+00 
1.5000000e+00 0.0000000e+00 6.0000000e+00 
1.5000000e+00 0.0000000e+00 9.0000000e+00 
1.5000000e+00 0.0000000e+00 1.2000000e+01 
1.5000000e+00 0.0000000e+00 1.5000000e+01 
1.5000000e+00 0.0000000e+00 1.8000000e+01 
2.0000000e+00 0.0000000e+00 3.0000000e+00 
2.0000000e+00 0.0000000e+00 6.0000000e+00 
2.0000000e+00 0.0000000e+00 9.0000000e+00 
2.0000000e+00 0.0000000e+00 1.2000000e+01 
2.0000000e+00 0.0000000e+00 1.5000000e+01 
2.0000000e+00 0.0000000e+00 1.8000000e+01 
2.5000000e+00 0.0000000e+00 3.0000000e+00 
2.5000000e+00 0.0000000e+00 6.0000000e+00 
2.5000000e+00 0.0000000e+00 9.0000000e+00 
2.5000000e+00 0.0000000e+00 1.2000000e+01 
2.5000000e+00 0.0000000e+00 1.5000000e+01 
2.5000000e+00 0.0000000e+00 1.8000000e+01 
3.0000000e+00 0.0000000e+00 3.0000000e+00 
3.0000000e+00 0.0000000e+00 6.0000000e+00 
3.0000000e+00 0.0000000e+00 9.0000000e+00 
3.0000000e+00 0.0000000e+00 1.2000000e+01 
3.0000000e+00 0.0000000e+00 1.5000000e+01 
3.0000000e+00 0.0000000e+00 1.8000000e+01 
3.5000000e+00 0.0000000e+00 3.0000000e+00 
3.5000000e+00 0.0000000e+00 6.0000000e+00 
3.5000000e+00 0.0000000e+00 9.0000000e+00 
3.5000000e+00 0.0000000e+00 1.2000000e+01 
3.5000000e+00 0.0000000e+00 1.5000000e+01 
3.5000000e+00 0.0000000e+00 1.8000000e+01 
4.0000000e+00 0.0000000e+00 3.0000000e+00 
4.0000000e+00 0.0000000e+00 6.0000000e+00 
4.0000000e+00 0.0000000e+00 9.0000000e+00 
4.0000000e+00 0.0000000e+00 1.2000000e+01 
4.0000000e+00 0.0000000e+00 1.5000000e+01 
4.0000000e+00 0.0000000e+00 1.8000000e+01 
4.5000000e+00 0.0000000e+00 3.0000000e+00 
4.5000000e+00 0.0000000e+00 6.0000000e+00 
4.5000000e+00 0.0000000e+00 9.0000000e+00 
4.5000000e+00 0.0000000e+00 1.2000000e+01 
4.5000000e+00 0.0000000e+00 1.5000000e+01 
4.5000000e+00 0.0000000e+00 1.8000000e+01 
5.0000000e+00 0.0000000e+00 3.0000000e+00 
5.0000000e+00 0.0000000e+00 6.0000000e+00 
5.0000000e+00 0.0000000e+00 9.0000000e+00 
5.0000000e+00 0.0000000e+00 1.2000000e+01 
5.0000000e+00 0.0000000e+00 1.5000000e+01 
5.0000000e+00 0.0000000e+00 1.8000000e+01 
5.5000000e+00 0.0000000e+00 3.0000000e+00 
5.5000000e+00 0.0000000e+00 6.0000000e+00 
5.5000000e+00 0.0000000e+00 9.0000000e+00 
5.5000000e+00 0.0000000e+00 1.2000000e+01 
5.5000000e+00 0.0000000e+00 1.5000000e+01 
5.5000000e+00 0.0000000e+00 1.8000000e+01 
6.0000000e+00 0.0000000e+00 0.0000000e+00 
6.0000000e+00 0.0000000e+00 2.5000000e-01 
6.0000000e+00 0.0000000e+00 5.0000000e-01 
6.0000000e+00 0.0000000e+00 7.5000000e-01 
6.0000000e+00 0.0000000e+00 1.0000000e+00 
6.0000000e+00 0.0000000e+00 1.2500000e+00 
6.0000000e+00 0.0000000e+00 1.5000000e+00 
6.0000000e+00 0.0000000e+00 1.7500000e+00 
6.0000000e+00 0.0000000e+00 2.0000000e+00 
6.0000000e+00 0.0000000e+00 2.2500000e+00 
6.0000000e+00 0.0000000e+00 2.5000000e+00 
6.0000000e+00 0.0000000e+00 2.7500000e+00 
6.0000000e+00 0.0000000e+00 3.0000000e+00 
6.0000000e+00 0.0000000e+00 3.2500000e+00 
6.0000000e+00 0.0000000e+00 3.5000000e+00 
6.0000000e+00 0.0000000e+00 3.7500000e+00 
6.0000000e+00 0.0000000e+00 4.0000000e+00 
6.0000000e+00 0.0000000e+00 4.2500000e+00 
6.0000000e+00 0.0000000e+00 4.5000000e+00 
6.0000000e+00 0.0000000e+00 4.7500000e+00 
6.0000000e+00 0.0000000e+00 5.0000000e+00 
6.0000000e+00 0.0000000e+00 5.2500000e+00 
6.0000000e+00 0.0000000e+00 5.5000000e+00 
6.0000000e+00 0.0000000e+00 5.7500000e+00 
6.0000000e+00 0.0000000e+00 6.0000000e+00 
6.0000000e+00 0.0000000e+00 6.2500000e+00 
6.0000000e+00 0.0000000e+00 6.5000000e+00 
6.0000000e+00 0.0000000e+00 6.7500000e+00 
6.0000000e+00 0.0000000e+00 7.0000000e+00 
6.0000000e+00 0.0000000e+00 7.2500000e+00 
6.0000000e+00 0.0000000e+00 7.5000000e+00 
6.0000000e+00 0.0000000e+00 7.7500000e+00 
6.0000000e+00 0.0000000e+00 8.0000000e+00 
6.0000000e+00 0.0000000e+00 8.2500000e+00 
6.0000000e+00 0.0000000e+00 8.5000000e+00 
6.0000000e+00 0.0000000e+00 8.7500000e+00 
6.0000000e+00 0.0000000e+00 9.0000000e+00 
6.0000000e+00 0.0000000e+00 9.2500000e+00 
6.0000000e+00 0.0000000e+00 9.5000000e+00 
6.0000000e+00 0.0000000e+00 9.7500000e+00 
6.0000000e+00 0.0000000e+00 1.0000000e+01 
6.0000000e+00 0.0000000e+00 1.0250000e+01 
6.0000000e+00 0.0000000e+00 1.0500000e+01 
6.0000000e+00 0.0000000e+00 1.0750000e+01 
6.0000000e+00 0.0000000e+00 1.1000000e+01 
6.0000000e+00 0.0000000e+00 1.1250000e+01 
6.0000000e+00 0.0000000e+00 1.1500000e+01 
6.0000000e+00 0.0000000e+00 1.1750000e+01 
6.0000000e+00 0.0000000e+00 1.2000000e+01 
6.0000000e+00 0.0000000e+00 1.2250000e+01 
6.0000000e+00 0.0000000e+00 1.2500000e+01 
6.0000000e+00 0.0000000e+00 1.2750000e+01 
6.0000000e+00 0.0000000e+00 1.3000000e+01 
6.0000000e+00 0.0000000e+00 1.3250000e+01 
6.0000000e+00 0.0000000e+00 1.3500000e+01 
6.0000000e+00 0.0000000e+00 1.3750000e+01 
6.0000000e+00 0.0000000e+00 1.4000000e+01 
6.0000000e+00 0.0000000e+00 1.4250000e+01 
6.0000000e+00 0.0000000e+00 1.4500000e+01 
6.0000000e+00 0.0000000e+00 1.4750000e+01 
6.0000000e+00 0.0000000e+00 1.5000000e+01 
6.0000000e+00 0.0000000e+00 1.5250000e+01 
6.0000000e+00 0.0000000e+00 1.5500000e+01 
6.0000000e+00 0.0000000e+00 1.5750000e+01 
6.0000000e+00 0.0000000e+00 1.6000000e+01 
6.0000000e+00 0.0000000e+00 1.6250000e+01 
6.0000000e+00 0.0000000e+00 1.6500000e+01 
6.0000000e+00 0.0000000e+00 1.6750000e+01 
6.0000000e+00 0.0000000e+00 1.7000000e+01 
6.0000000e+00 0.0000000e+00 1.7250000e+01 
6.0000000e+00 0.0000000e+00 1.7500000e+01 
6.0000000e+00 0.0000000e+00 1.7750000e+01 
6.0000000e+00 0.0000000e+00 1.8000000e+01 

CELLS 216 648
2 0 1
2 1 2
2 2 3
2 3 4
2 4 5
2 5 6
2 6 7
2 7 8
2 8 9
2 9 10
2 10 11
2 11 12
2 12 13
2 13 14
2 14 15
2 15 16
2 16 17
2 17 18
2 18 19
2 19 20
2 20 21
2 21 22
2 22 23
2 23 24
2 24 25
2 25 26
2 26 27
2 27 28
2 28 29
2 29 30
2 30 31
2 31 32
2 32 33
2 33 34
2 34 35
2 35 36
2 36 37
2 37 38
2 38 39
2 39 40
2 40 41
2 41 42
2 42 43
2 43 44
2 44 45
2 45 46
2 46 47
2 47 48
2 48 49
2 49 50
2 50 51
2 51 52
2 52 53
2 53 54
2 54 55
2 55 56
2 56 57
2 57 58
2 58 59
2 59 60
2 60 61
2 61 62
2 62 63
2 63 64
2 64 65
2 65 66
2 66 67
2 67 68
2 68 69
2 69 70
2 70 71
2 71 72
2 139 140
2 140 141
2 141 142
2 142 143
2 143 144
2 144 145
2 145 146
2 146 147
2 147 148
2 148 149
2 149 150
2 150 151
2 151 152
2 152 153
2 153 154
2 154 155
2 155 156
2 156 157
2 157 158
2 158 159
2 159 160
2 160 161
2 161 162
2 162 163
2 163 164
2 164 165
2 165 166
2 166 167
2 167 168
2 168 169
2 169 170
2 170 171
2 171 172
2 172 173
2 173 174
2 174 175
2 175 176
2 176 177
2 177 178
2 178 179
2 179 180
2 180 181
2 181 182
2 182 183
2 183 184
2 184 185
2 185 186
2 186 187
2 187 188
2 188 189
2 189 190
2 190 191
2 191 192
2 192 193
2 193 194
2 194 195
2 195 196
2 196 197
2 197 198
2 198 199
2 199 200
2 200 201
2 201 202
2 202 203
2 203 204
2 204 205
2 205 206
2 206 207
2 207 208
2 208 209
2 209 210
2 210 211
2 12 73
2 73 79
2 79 85
2 85 91
2 91 97
2 97 103
2 103 109
2 109 115
2 115 121
2 121 127
2 127 133
2 133 151
2 24 74
2 74 80
2 80 86
2 86 92
2 92 98
2 98 104
2 104 110
2 110 116
2 116 122
2 122 128
2 128 134
2 134 163
2 36 75
2 75 81
2 81 87
2 87 93
2 93 99
2 99 105
2 105 111
2 111 117
2 117 123
2 123 129
2 129 135
2 135 175
2 48 76
2 76 82
2 82 88
2 88 94
2 94 100
2 100 106
2 106 112
2 112 118
2 118 124
2 124 130
2 130 136
2 136 187
2 60 77
2 77 83
2 83 89
2 89 95
2 95 101
2 101 107
2 107 113
2 113 119
2 119 125
2 125 131
2 131 137
2 137 199
2 72 78
2 78 84
2 84 90
2 90 96
2 96 102
2 102 108
2 108 114
2 114 120
2 120 126
2 126 132
2 132 138
2 138 211

CELL_TYPES 216
3
3
3
3
3
3
3
3
3
3
3
3
3
3
3
3
3
3
3
3
3
3
3
3
3
3
3
3
3
3
3
3
3
3
3
3
3
3
3
3
3
3
3
3
3
3
3
3
3
3
3
3
3
3
3
3
3
3
3
3
3
3
3
3
3
3
3
3
3
3
3
3
3
3
3
3
3
3
3
3
3
3
3
3
3
3
3
3
3
3
3
3
3
3
3
3
3
3
3
3
3
3
3
3
3
3
3
3
3
3
3
3
3
3
3
3
3
3
3
3
3
3
3
3
3
3
3
3
3
3
3
3
3
3
3
3
3
3
3
3
3
3
3
3
3
3
3
3
3
3
3
3
3
3
3
3
3
3
3
3
3
3
3
3
3
3
3
3
3
3
3
3
3
3
3
3
3
3
3
3
3
3
3
3
3
3
3
3
3
3
3
3
3
3
3
3
3
3
3
3
3
3
3
3
3
3
3
3
3
3
3
3
3
3
3
3
POINT_DATA 212
FIELD FieldData 3
ADJOINT_DISPLACEMENT 3 212  float
0.0000000e+00 0.0000000e+00 0.0000000e+00 
1.6317115e-05 0.0000000e+00 -6.8345434e-17 
2.9942768e-05 0.0000000e+00 -1.3669087e-16 
3.8185499e-05 0.0000000e+00 -2.0503630e-16 
3.8353839e-05 0.0000000e+00 -2.7338174e-16 
2.7756334e-05 0.0000000e+00 -3.4172718e-16 
3.7015175e-06 0.0000000e+00 -4.1007260e-16 
-3.6502071e-05 0.0000000e+00 -4.7841803e-16 
-9.5545896e-05 0.0000000e+00 -5.4676347e-16 
-1.7612142e-04 0.0000000e+00 -6.1510892e-16 
-2.8092010e-04 0.0000000e+00 -6.8345437e-16 
-4.1263341e-04 0.0000000e+00 -7.5179976e-16 
-5.7395280e-04 0.0000000e+00 -8.2014521e-16 
-7.7572366e-04 0.0000000e+00 2.6434268e-08 
-1.0161304e-03 0.0000000e+00 5.2868536e-08 
-1.2788731e-03 0.0000000e+00 7.9302808e-08 
-1.5476516e-03 0.0000000e+00 1.0573707e-07 
-1.8061661e-03 0.0000000e+00 1.3217134e-07 
-2.0381166e-03 0.0000000e+00 1.5860562e-07 
-2.2272030e-03 0.0000000e+00 1.8503988e-07 
-2.3571255e-03 0.0000000e+00 2.1147414e-07 
-2.4115839e-03 0.0000000e+00 2.3790842e-07 
-2.3742784e-03 0.0000000e+00 2.6434267e-07 
-2.2289089e-03 0.0000000e+00 2.9077697e-07 
-1.9591756e-03 0.0000000e+00 3.1721123e-07 
-1.5651424e-03 0.0000000e+00 4.4939733e-07 
-1.1054482e-03 0.0000000e+00 5.8158344e-07 
-6.5165508e-04 0.0000000e+00 7.1376957e-07 
-2.7532471e-04 0.0000000e+00 8.4595570e-07 
-4.8019181e-05 0.0000000e+00 9.7814177e-07 
-4.1300395e-05 0.0000000e+00 1.1103278e-06 
-3.2673028e-04 0.0000000e+00 1.2425140e-06 
-9.7587076e-04 0.0000000e+00 1.3747001e-06 
-2.0602839e-03 0.0000000e+00 1.5068862e-06 
-3.6515314e-03 0.0000000e+00 1.6390724e-06 
-5.8211754e-03 0.0000000e+00 1.7712584e-06 
-8.6407773e-03 0.0000000e+00 1.9034445e-06 
-1.2325328e-02 0.0000000e+00 2.5380148e-06 
-1.6835650e-02 0.0000000e+00 3.1725849e-06 
-2.1862065e-02 0.0000000e+00 3.8071551e-06 
-2.7094888e-02 0.0000000e+00 4.4417252e-06 
-3.2224432e-02 0.0000000e+00 5.0762951e-06 
-3.6941022e-02 0.0000000e+00 5.7108655e-06 
-4.0934969e-02 0.0000000e+00 6.3454354e-06 
-4.3896589e-02 0.0000000e+00 6.9800058e-06 
-4.5516204e-02 0.0000000e+00 7.6145757e-06 
-4.5484129e-02 0.0000000e+00 8.2491460e-06 
-4.3490682e-02 0.0000000e+00 8.8837160e-06 
-3.9226174e-02 0.0000000e+00 9.5182859e-06 
-3.2784622e-02 0.0000000e+00 1.2559305e-05 
-2.5355946e-02 0.0000000e+00 1.5600324e-05 
-1.8274333e-02 0.0000000e+00 1.8641344e-05 
-1.2873969e-02 0.0000000e+00 2.1682363e-05 
-1.0489042e-02 0.0000000e+00 2.4723382e-05 
-1.2453739e-02 0.0000000e+00 2.7764399e-05 
-2.0102248e-02 0.0000000e+00 3.0805419e-05 
-3.4768753e-02 0.0000000e+00 3.3846438e-05 
-5.7787444e-02 0.0000000e+00 3.6887457e-05 
-9.0492509e-02 0.0000000e+00 3.9928476e-05 
-1.3421814e-01 0.0000000e+00 4.2969496e-05 
-1.9029851e-01 0.0000000e+00 4.6010515e-05 
-2.6394916e-01 0.0000000e+00 6.0582737e-05 
-3.5857934e-01 0.0000000e+00 7.5154960e-05 
-2.2281371e-01 0.0000000e+00 8.9727182e-05 
-1.0527701e-01 0.0000000e+00 1.0429941e-04 
-4.5939079e-03 0.0000000e+00 1.1887163e-04 
8.0610879e-02 0.0000000e+00 1.3344386e-04 
1.5171266e-01 0.0000000e+00 1.4801609e-04 
2.1008670e-01 0.0000000e+00 1.6258830e-04 
2.5710836e-01 0.0000000e+00 1.7716053e-04 
2.9415289e-01 0.0000000e+00 1.9173275e-04 
3.2259560e-01 0.0000000e+00 2.0630498e-04 
3.4381178e-01 0.0000000e+00 2.2087721e-04 
-5.7293434e-04 0.0000000e+00 3.1007695e-04 
-1.9638874e-03 0.0000000e+00 -6.7600363e-04 
-8.6203320e-03 0.0000000e+00 5.5358829e-03 
-3.9314333e-02 0.0000000e+00 -1.1396198e-02 
-1.9015320e-01 0.0000000e+00 1.0869260e-01 
3.4373802e-01 0.0000000e+00 -2.4924023e-02 
-5.7191582e-04 0.0000000e+00 5.3748733e-04 
-1.9685994e-03 0.0000000e+00 -1.3345373e-03 
-8.5998867e-03 0.0000000e+00 9.5640039e-03 
-3.9402492e-02 0.0000000e+00 -2.3121659e-02 
-1.9000790e-01 0.0000000e+00 1.8611605e-01 
3.4366429e-01 0.0000000e+00 -3.1011686e-02 
-5.7089736e-04 0.0000000e+00 6.9011777e-04 
-1.9733112e-03 0.0000000e+00 -1.9437325e-03 
-8.5794413e-03 0.0000000e+00 1.2236153e-02 
-3.9490648e-02 0.0000000e+00 -3.4448896e-02 
-1.8986259e-01 0.0000000e+00 2.3575670e-01 
3.4359053e-01 0.0000000e+00 -2.2389749e-02 
-5.6987890e-04 0.0000000e+00 7.7585498e-04 
-1.9780230e-03 0.0000000e+00 -2.4720381e-03 
-8.5589960e-03 0.0000000e+00 1.3702217e-02 
-3.9578807e-02 0.0000000e+00 -4.4659946e-02 
-1.8971729e-01 0.0000000e+00 2.6105490e-01 
3.4351677e-01 0.0000000e+00 -3.4058543e-03 
-5.6886039e-04 0.0000000e+00 8.0258568e-04 
-1.9827350e-03 0.0000000e+00 -2.8879030e-03 
-8.5385507e-03 0.0000000e+00 1.4112083e-02 
-3.9666966e-02 0.0000000e+00 -5.3036839e-02 
-1.8957198e-01 0.0000000e+00 2.6545098e-01 
3.4344301e-01 0.0000000e+00 2.1592360e-02 
-5.6784193e-04 0.0000000e+00 7.7819650e-04 
-1.9874468e-03 0.0000000e+00 -3.1597761e-03 
-8.5181044e-03 0.0000000e+00 1.3615638e-02 
-3.9755121e-02 0.0000000e+00 -5.8861610e-02 
-1.8942668e-01 0.0000000e+00 2.5238532e-01 
3.4336925e-01 0.0000000e+00 4.8257254e-02 
-5.6682347e-04 0.0000000e+00 7.1057421e-04 
-1.9921586e-03 0.0000000e+00 -3.2561058e-03 
-8.4976591e-03 0.0000000e+00 1.2362769e-02 
-3.9843280e-02 0.0000000e+00 -6.1416287e-02 
-1.8928137e-01 0.0000000e+00 2.2529826e-01 
3.4329551e-01 0.0000000e+00 7.2241195e-02 
-5.6580501e-04 0.0000000e+00 6.0760550e-04 
-1.9968706e-03 0.0000000e+00 -3.1453415e-03 
-8.4772138e-03 0.0000000e+00 1.0503362e-02 
-3.9931435e-02 0.0000000e+00 -5.9982914e-02 
-1.8913607e-01 0.0000000e+00 1.8763013e-01 
3.4322175e-01 0.0000000e+00 8.9196533e-02 
-5.6478649e-04 0.0000000e+00 4.7717703e-04 
-2.0015824e-03 0.0000000e+00 -2.7959317e-03 
-8.4567685e-03 0.0000000e+00 8.1873052e-03 
-4.0019594e-02 0.0000000e+00 -5.3843517e-02 
-1.8899077e-01 0.0000000e+00 1.4282130e-01 
3.4314799e-01 0.0000000e+00 9.4775632e-02 
-5.6376803e-04 0.0000000e+00 3.2717548e-04 
-2.0062942e-03 0.0000000e+00 -2.1763251e-03 
-8.4363231e-03 0.0000000e+00 5.5644833e-03 
-4.0107753e-02 0.0000000e+00 -4.2280126e-02 
-1.8884546e-01 0.0000000e+00 9.4312094e-02 
3.4307423e-01 0.0000000e+00 8.4630854e-02 
-5.6274957e-04 0.0000000e+00 1.6548758e-04 
-2.0110060e-03 0.0000000e+00 -1.2549706e-03 
-8.4158778e-03 0.0000000e+00 2.7847851e-03 
-4.0195908e-02 0.0000000e+00 -2.4574785e-02 
-1.8870015e-01 0.0000000e+00 4.5542877e-02 
3.4300047e-01 0.0000000e+00 5.4414567e-02 
0.0000000e+00 0.0000000e+00 0.0000000e+00 
-1.1095744e-04 0.0000000e+00 7.5749879e-17 
-2.1922341e-04 0.0000000e+00 1.5149965e-16 
-3.2210647e-04 0.0000000e+00 2.2724941e-16 
-4.1691514e-04 0.0000000e+00 3.0299917e-16 
-5.0095795e-04 0.0000000e+00 3.7874882e-16 
-5.7154347e-04 0.0000000e+00 4.5449829e-16 
-6.2598020e-04 0.0000000e+00 5.3024787e-16 
-6.6157669e-04 0.0000000e+00 6.0599749e-16 
-6.7564147e-04 0.0000000e+00 6.8174723e-16 
-6.6548312e-04 0.0000000e+00 7.5749691e-16 
-6.2841014e-04 0.0000000e+00 8.3324653e-16 
-5.6173111e-04 0.0000000e+00 9.0899637e-16 
-4.6643059e-04 0.0000000e+00 -2.6434268e-08 
-3.5615431e-04 0.0000000e+00 -5.2868536e-08 
-2.4720217e-04 0.0000000e+00 -7.9302808e-08 
-1.5587421e-04 0.0000000e+00 -1.0573707e-07 
-9.8470380e-05 0.0000000e+00 -1.3217134e-07 
-9.1290676e-05 0.0000000e+00 -1.5860562e-07 
-1.5063507e-04 0.0000000e+00 -1.8503988e-07 
-2.9280354e-04 0.0000000e+00 -2.1147414e-07 
-5.3409609e-04 0.0000000e+00 -2.3790842e-07 
-8.9081272e-04 0.0000000e+00 -2.6434267e-07 
-1.3792533e-03 0.0000000e+00 -2.9077697e-07 
-2.0157180e-03 0.0000000e+00 -3.1721123e-07 
-2.8474692e-03 0.0000000e+00 -4.4939733e-07 
-3.8631952e-03 0.0000000e+00 -5.8158344e-07 
-4.9913335e-03 0.0000000e+00 -7.1376957e-07 
-6.1603230e-03 0.0000000e+00 -8.4595564e-07 
-7.2986013e-03 0.0000000e+00 -9.7814177e-07 
-8.3346060e-03 0.0000000e+00 -1.1103278e-06 
-9.1967760e-03 0.0000000e+00 -1.2425140e-06 
-9.8135490e-03 0.0000000e+00 -1.3747001e-06 
-1.0113363e-02 0.0000000e+00 -1.5068862e-06 
-1.0024657e-02 0.0000000e+00 -1.6390724e-06 
-9.4758663e-03 0.0000000e+00 -1.7712584e-06 
-8.3954325e-03 0.0000000e+00 -1.9034445e-06 
-6.7931940e-03 0.0000000e+00 -2.5380148e-06 
-4.9331565e-03 0.0000000e+00 -3.1725849e-06 
-3.1250026e-03 0.0000000e+00 -3.8071551e-06 
-1.6784149e-03 0.0000000e+00 -4.4417252e-06 
-9.0307684e-04 0.0000000e+00 -5.0762951e-06 
-1.1086712e-03 0.0000000e+00 -5.7108655e-06 
-2.6048811e-03 0.0000000e+00 -6.3454354e-06 
-5.7013892e-03 0.0000000e+00 -6.9800058e-06 
-1.0707879e-02 0.0000000e+00 -7.6145757e-06 
-1.7934034e-02 0.0000000e+00 -8.2491460e-06 
-2.7689535e-02 0.0000000e+00 -8.8837160e-06 
-4.0284067e-02 0.0000000e+00 -9.5182859e-06 
-5.6700572e-02 0.0000000e+00 -1.2559305e-05 
-7.6826073e-02 0.0000000e+00 -1.5600324e-05 
-9.9326387e-02 0.0000000e+00 -1.8641344e-05 
-1.2286732e-01 0.0000000e+00 -2.1682363e-05 
-1.4611471e-01 0.0000000e+00 -2.4723382e-05 
-1.6773432e-01 0.0000000e+00 -2.7764399e-05 
-1.8639201e-01 0.0000000e+00 -3.0805419e-05 
-2.0075358e-01 0.0000000e+00 -3.3846438e-05 
-2.0948483e-01 0.0000000e+00 -3.6887457e-05 
-2.1125159e-01 0.0000000e+00 -3.9928476e-05 
-2.0471966e-01 0.0000000e+00 -4.2969496e-05 
-1.8855485e-01 0.0000000e+00 -4.6010515e-05 
-1.6270216e-01 0.0000000e+00 -6.0582737e-05 
-1.2891287e-01 0.0000000e+00 -7.5154960e-05 
-8.8562287e-02 0.0000000e+00 -8.9727182e-05 
-4.3025713e-02 0.0000000e+00 -1.0429941e-04 
6.3215536e-03 0.0000000e+00 -1.1887163e-04 
5.8104213e-02 0.0000000e+00 -1.3344386e-04 
1.1094698e-01 0.0000000e+00 -1.4801609e-04 
1.6347453e-01 0.0000000e+00 -1.6258830e-04 
2.1431158e-01 0.0000000e+00 -1.7716053e-04 
2.6208282e-01 0.0000000e+00 -1.9173275e-04 
3.0541298e-01 0.0000000e+00 -2.0630498e-04 
3.4292674e-01 0.0000000e+00 -2.2087721e-04 
ADJOINT_ROTATION 3 212  float
0.0000000e+00 6.7062771e-05 0.0000000e+00 
0.0000000e+00 6.1679842e-05 0.0000000e+00 
0.0000000e+00 4.5531073e-05 0.0000000e+00 
0.0000000e+00 1.8616451e-05 0.0000000e+00 
0.0000000e+00 -1.9064018e-05 0.0000000e+00 
0.0000000e+00 -6.7510337e-05 0.0000000e+00 
0.0000000e+00 -1.2672250e-04 0.0000000e+00 
0.0000000e+00 -1.9670052e-04 0.0000000e+00 
0.0000000e+00 -2.7744437e-04 0.0000000e+00 
0.0000000e+00 -3.6895409e-04 0.0000000e+00 
0.0000000e+00 -4.7122966e-04 0.0000000e+00 
0.0000000e+00 -5.8427110e-04 0.0000000e+00 
0.0000000e+00 -7.0807833e-04 0.0000000e+00 
0.0000000e+00 -8.9522183e-04 0.0000000e+00 
0.0000000e+00 -1.0171655e-03 0.0000000e+00 
0.0000000e+00 -1.0739091e-03 0.0000000e+00 
0.0000000e+00 -1.0654528e-03 0.0000000e+00 
0.0000000e+00 -9.9179661e-04 0.0000000e+00 
0.0000000e+00 -8.5294049e-04 0.0000000e+00 
0.0000000e+00 -6.4888445e-04 0.0000000e+00 
0.0000000e+00 -3.7962847e-04 0.0000000e+00 
0.0000000e+00 -4.5172554e-05 0.0000000e+00 
0.0000000e+00 3.5448329e-04 0.0000000e+00 
0.0000000e+00 8.1933907e-04 0.0000000e+00 
0.0000000e+00 1.3493948e-03 0.0000000e+00 
0.0000000e+00 1.7551626e-03 0.0000000e+00 
0.0000000e+00 1.8746827e-03 0.0000000e+00 
0.0000000e+00 1.7079550e-03 0.0000000e+00 
0.0000000e+00 1.2549796e-03 0.0000000e+00 
0.0000000e+00 5.1575660e-04 0.0000000e+00 
0.0000000e+00 -5.0971424e-04 0.0000000e+00 
0.0000000e+00 -1.8214328e-03 0.0000000e+00 
0.0000000e+00 -3.4193990e-03 0.0000000e+00 
0.0000000e+00 -5.3036129e-03 0.0000000e+00 
0.0000000e+00 -7.4740751e-03 0.0000000e+00 
0.0000000e+00 -9.9307848e-03 0.0000000e+00 
0.0000000e+00 -1.2673741e-02 0.0000000e+00 
0.0000000e+00 -1.6596202e-02 0.0000000e+00 
0.0000000e+00 -1.9279931e-02 0.0000000e+00 
0.0000000e+00 -2.0724926e-02 0.0000000e+00 
0.0000000e+00 -2.0931192e-02 0.0000000e+00 
0.0000000e+00 -1.9898724e-02 0.0000000e+00 
0.0000000e+00 -1.7627524e-02 0.0000000e+00 
0.0000000e+00 -1.4117593e-02 0.0000000e+00 
0.0000000e+00 -9.3689300e-03 0.0000000e+00 
0.0000000e+00 -3.3815345e-03 0.0000000e+00 
0.0000000e+00 3.8445930e-03 0.0000000e+00 
0.0000000e+00 1.2309453e-02 0.0000000e+00 
0.0000000e+00 2.2013044e-02 0.0000000e+00 
0.0000000e+00 2.8629916e-02 0.0000000e+00 
0.0000000e+00 2.9910039e-02 0.0000000e+00 
0.0000000e+00 2.5853414e-02 0.0000000e+00 
0.0000000e+00 1.6460041e-02 0.0000000e+00 
0.0000000e+00 1.7299184e-03 0.0000000e+00 
0.0000000e+00 -1.8336952e-02 0.0000000e+00 
0.0000000e+00 -4.3740571e-02 0.0000000e+00 
0.0000000e+00 -7.4480936e-02 0.0000000e+00 
0.0000000e+00 -1.1055806e-01 0.0000000e+00 
0.0000000e+00 -1.5197192e-01 0.0000000e+00 
0.0000000e+00 -1.9872254e-01 0.0000000e+00 
0.0000000e+00 -2.5080991e-01 0.0000000e+00 
0.0000000e+00 -3.3747852e-01 0.0000000e+00 
0.0000000e+00 -4.1864598e-01 0.0000000e+00 
0.0000000e+00 5.0568777e-01 0.0000000e+00 
0.0000000e+00 4.3552276e-01 0.0000000e+00 
0.0000000e+00 3.7085891e-01 0.0000000e+00 
0.0000000e+00 3.1169626e-01 0.0000000e+00 
0.0000000e+00 2.5803480e-01 0.0000000e+00 
0.0000000e+00 2.0987454e-01 0.0000000e+00 
0.0000000e+00 1.6721548e-01 0.0000000e+00 
0.0000000e+00 1.3005760e-01 0.0000000e+00 
0.0000000e+00 9.8400936e-02 0.0000000e+00 
0.0000000e+00 7.2245464e-02 0.0000000e+00 
0.0000000e+00 -5.3485844e-04 0.0000000e+00 
0.0000000e+00 1.3453715e-03 0.0000000e+00 
0.0000000e+00 -9.5121376e-03 0.0000000e+00 
0.0000000e+00 2.3370499e-02 0.0000000e+00 
0.0000000e+00 -1.8492326e-01 0.0000000e+00 
0.0000000e+00 2.9783349e-02 0.0000000e+00 
0.0000000e+00 -3.7741190e-04 0.0000000e+00 
0.0000000e+00 1.2782459e-03 0.0000000e+00 
0.0000000e+00 -6.6503077e-03 0.0000000e+00 
0.0000000e+00 2.3292020e-02 0.0000000e+00 
0.0000000e+00 -1.2591732e-01 0.0000000e+00 
0.0000000e+00 -3.9834864e-03 0.0000000e+00 
0.0000000e+00 -2.3573876e-04 0.0000000e+00 
0.0000000e+00 1.1480179e-03 0.0000000e+00 
0.0000000e+00 -4.0882509e-03 0.0000000e+00 
0.0000000e+00 2.1777609e-02 0.0000000e+00 
0.0000000e+00 -7.3792063e-02 0.0000000e+00 
0.0000000e+00 -2.9055044e-02 0.0000000e+00 
0.0000000e+00 -1.0983901e-04 0.0000000e+00 
0.0000000e+00 9.5468765e-04 0.0000000e+00 
0.0000000e+00 -1.8259683e-03 0.0000000e+00 
0.0000000e+00 1.8827263e-02 0.0000000e+00 
0.0000000e+00 -2.8547509e-02 0.0000000e+00 
0.0000000e+00 -4.5431323e-02 0.0000000e+00 
0.0000000e+00 2.8734931e-07 0.0000000e+00 
0.0000000e+00 6.9825497e-04 0.0000000e+00 
0.0000000e+00 1.3654094e-04 0.0000000e+00 
0.0000000e+00 1.4440985e-02 0.0000000e+00 
0.0000000e+00 9.8163486e-03 0.0000000e+00 
0.0000000e+00 -5.3112324e-02 0.0000000e+00 
0.0000000e+00 9.4640323e-05 0.0000000e+00 
0.0000000e+00 3.7871991e-04 0.0000000e+00 
0.0000000e+00 1.7992764e-03 0.0000000e+00 
0.0000000e+00 8.6187730e-03 0.0000000e+00 
0.0000000e+00 4.1299511e-02 0.0000000e+00 
0.0000000e+00 -5.2098043e-02 0.0000000e+00 
0.0000000e+00 1.7321992e-04 0.0000000e+00 
0.0000000e+00 -3.9175070e-06 0.0000000e+00 
0.0000000e+00 3.1622383e-03 0.0000000e+00 
0.0000000e+00 1.3606279e-03 0.0000000e+00 
0.0000000e+00 6.5901980e-02 0.0000000e+00 
0.0000000e+00 -4.2388488e-02 0.0000000e+00 
0.0000000e+00 2.3602611e-04 0.0000000e+00 
0.0000000e+00 -4.4965727e-04 0.0000000e+00 
0.0000000e+00 4.2254264e-03 0.0000000e+00 
0.0000000e+00 -7.3334510e-03 0.0000000e+00 
0.0000000e+00 8.3623745e-02 0.0000000e+00 
0.0000000e+00 -2.3983654e-02 0.0000000e+00 
0.0000000e+00 2.8305891e-04 0.0000000e+00 
0.0000000e+00 -9.5849938e-04 0.0000000e+00 
0.0000000e+00 4.9888412e-03 0.0000000e+00 
0.0000000e+00 -1.7463462e-02 0.0000000e+00 
0.0000000e+00 9.4464824e-02 0.0000000e+00 
0.0000000e+00 3.1164598e-03 0.0000000e+00 
0.0000000e+00 3.1431834e-04 0.0000000e+00 
0.0000000e+00 -1.5304439e-03 0.0000000e+00 
0.0000000e+00 5.4524820e-03 0.0000000e+00 
0.0000000e+00 -2.9029408e-02 0.0000000e+00 
0.0000000e+00 9.8425202e-02 0.0000000e+00 
0.0000000e+00 3.8911853e-02 0.0000000e+00 
0.0000000e+00 3.2980437e-04 0.0000000e+00 
0.0000000e+00 -2.1654908e-03 0.0000000e+00 
0.0000000e+00 5.6163492e-03 0.0000000e+00 
0.0000000e+00 -4.2031288e-02 0.0000000e+00 
0.0000000e+00 9.5504887e-02 0.0000000e+00 
0.0000000e+00 8.3402522e-02 0.0000000e+00 
0.0000000e+00 -4.4562406e-04 0.0000000e+00 
0.0000000e+00 -4.4024113e-04 0.0000000e+00 
0.0000000e+00 -4.2409237e-04 0.0000000e+00 
0.0000000e+00 -3.9717773e-04 0.0000000e+00 
0.0000000e+00 -3.5949727e-04 0.0000000e+00 
0.0000000e+00 -3.1105094e-04 0.0000000e+00 
0.0000000e+00 -2.5183879e-04 0.0000000e+00 
0.0000000e+00 -1.8186077e-04 0.0000000e+00 
0.0000000e+00 -1.0111691e-04 0.0000000e+00 
0.0000000e+00 -9.6071954e-06 0.0000000e+00 
0.0000000e+00 9.2668364e-05 0.0000000e+00 
0.0000000e+00 2.0570977e-04 0.0000000e+00 
0.0000000e+00 3.2951703e-04 0.0000000e+00 
0.0000000e+00 4.2202024e-04 0.0000000e+00 
0.0000000e+00 4.4932350e-04 0.0000000e+00 
0.0000000e+00 4.1142682e-04 0.0000000e+00 
0.0000000e+00 3.0833026e-04 0.0000000e+00 
0.0000000e+00 1.4003372e-04 0.0000000e+00 
0.0000000e+00 -9.3462724e-05 0.0000000e+00 
0.0000000e+00 -3.9215910e-04 0.0000000e+00 
0.0000000e+00 -7.5605541e-04 0.0000000e+00 
0.0000000e+00 -1.1851516e-03 0.0000000e+00 
0.0000000e+00 -1.6794478e-03 0.0000000e+00 
0.0000000e+00 -2.2389439e-03 0.0000000e+00 
0.0000000e+00 -2.8636400e-03 0.0000000e+00 
0.0000000e+00 -3.7426623e-03 0.0000000e+00 
0.0000000e+00 -4.3354370e-03 0.0000000e+00 
0.0000000e+00 -4.6419636e-03 0.0000000e+00 
0.0000000e+00 -4.6622427e-03 0.0000000e+00 
0.0000000e+00 -4.3962742e-03 0.0000000e+00 
0.0000000e+00 -3.8440579e-03 0.0000000e+00 
0.0000000e+00 -3.0055938e-03 0.0000000e+00 
0.0000000e+00 -1.8808820e-03 0.0000000e+00 
0.0000000e+00 -4.6992238e-04 0.0000000e+00 
0.0000000e+00 1.2272849e-03 0.0000000e+00 
0.0000000e+00 3.2107399e-03 0.0000000e+00 
0.0000000e+00 5.4804427e-03 0.0000000e+00 
0.0000000e+00 7.1310066e-03 0.0000000e+00 
0.0000000e+00 7.5428388e-03 0.0000000e+00 
0.0000000e+00 6.7159384e-03 0.0000000e+00 
0.0000000e+00 4.6503069e-03 0.0000000e+00 
0.0000000e+00 1.3459428e-03 0.0000000e+00 
0.0000000e+00 -3.1971531e-03 0.0000000e+00 
0.0000000e+00 -8.9789806e-03 0.0000000e+00 
0.0000000e+00 -1.5999541e-02 0.0000000e+00 
0.0000000e+00 -2.4258833e-02 0.0000000e+00 
0.0000000e+00 -3.3756856e-02 0.0000000e+00 
0.0000000e+00 -4.4493612e-02 0.0000000e+00 
0.0000000e+00 -5.6469101e-02 0.0000000e+00 
0.0000000e+00 -7.3973469e-02 0.0000000e+00 
0.0000000e+00 -8.6141087e-02 0.0000000e+00 
0.0000000e+00 -9.2971958e-02 0.0000000e+00 
0.0000000e+00 -9.4466083e-02 0.0000000e+00 
0.0000000e+00 -9.0623461e-02 0.0000000e+00 
0.0000000e+00 -8.1444085e-02 0.0000000e+00 
0.0000000e+00 -6.6927962e-02 0.0000000e+00 
0.0000000e+00 -4.7075093e-02 0.0000000e+00 
0.0000000e+00 -2.1885473e-02 0.0000000e+00 
0.0000000e+00 8.6408937e-03 0.0000000e+00 
0.0000000e+00 4.4504009e-02 0.0000000e+00 
0.0000000e+00 8.5703872e-02 0.0000000e+00 
0.0000000e+00 1.2020084e-01 0.0000000e+00 
0.0000000e+00 1.4919661e-01 0.0000000e+00 
0.0000000e+00 1.7269117e-01 0.0000000e+00 
0.0000000e+00 1.9068454e-01 0.0000000e+00 