# vtk DataFile Version 4.0
vtk output
ASCII
DATASET UNSTRUCTURED_GRID
POINTS 30 float
0.0000000e+00 0.0000000e+00 0.0000000e+00 
0.0000000e+00 0.0000000e+00 8.0000001e-01 
0.0000000e+00 0.0000000e+00 1.6000000e+00 
0.0000000e+00 0.0000000e+00 2.4000001e+00 
0.0000000e+00 0.0000000e+00 3.2000000e+00 
0.0000000e+00 0.0000000e+00 4.0000000e+00 
0.0000000e+00 0.0000000e+00 4.8000002e+00 
0.0000000e+00 0.0000000e+00 5.5999999e+00 
0.0000000e+00 0.0000000e+00 6.4000001e+00 
0.0000000e+00 0.0000000e+00 7.1999998e+00 
0.0000000e+00 0.0000000e+00 8.0000000e+00 
1.0000000e+01 0.0000000e+00 0.0000000e+00 
1.0000000e+01 0.0000000e+00 8.0000001e-01 
1.0000000e+01 0.0000000e+00 1.6000000e+00 
1.0000000e+01 0.0000000e+00 2.4000001e+00 
1.0000000e+01 0.0000000e+00 3.2000000e+00 
1.0000000e+01 0.0000000e+00 4.0000000e+00 
1.0000000e+01 0.0000000e+00 4.8000002e+00 
1.0000000e+01 0.0000000e+00 5.5999999e+00 
1.0000000e+01 0.0000000e+00 6.4000001e+00 
1.0000000e+01 0.0000000e+00 7.1999998e+00 
1.0000000e+01 0.0000000e+00 8.0000000e+00 
2.0000000e+00 0.0000000e+00 4.0000000e+00 
4.0000000e+00 0.0000000e+00 4.0000000e+00 
6.0000000e+00 0.0000000e+00 4.0000000e+00 
8.0000000e+00 0.0000000e+00 4.0000000e+00 
2.0000000e+00 0.0000000e+00 8.0000000e+00 
4.0000000e+00 0.0000000e+00 8.0000000e+00 
6.0000000e+00 0.0000000e+00 8.0000000e+00 
8.0000000e+00 0.0000000e+00 8.0000000e+00 

CELLS 30 90
2 0 1
2 1 2
2 2 3
2 3 4
2 4 5
2 5 6
2 6 7
2 7 8
2 8 9
2 9 10
2 11 12
2 12 13
2 13 14
2 14 15
2 15 16
2 16 17
2 17 18
2 18 19
2 19 20
2 20 21
2 5 22
2 22 23
2 23 24
2 24 25
2 25 16
2 10 26
2 26 27
2 27 28
2 28 29
2 29 21

CELL_TYPES 30
3
3
3
3
3
3
3
3
3
3
3
3
3
3
3
3
3
3
3
3
3
3
3
3
3
3
3
3
3
3
POINT_DATA 30
FIELD FieldData 7
DISPLACEMENT 3 30  float
0.0000000e+00 0.0000000e+00 0.0000000e+00 
8.3255925e-04 0.0000000e+00 9.9274848e-06 
1.5383236e-03 0.0000000e+00 1.9854970e-05 
2.0148624e-03 0.0000000e+00 2.7365164e-05 
2.2537301e-03 0.0000000e+00 3.4711666e-05 
2.2513403e-03 0.0000000e+00 3.8331498e-05 
2.1178292e-03 0.0000000e+00 4.0158346e-05 
1.9943635e-03 0.0000000e+00 3.8627666e-05 
1.8607371e-03 0.0000000e+00 3.3839799e-05 
1.7806413e-03 0.0000000e+00 2.7191145e-05 
1.8848466e-03 0.0000000e+00 2.4214087e-05 
0.0000000e+00 0.0000000e+00 0.0000000e+00 
6.0958817e-04 0.0000000e+00 -5.3778858e-06 
1.1514887e-03 0.0000000e+00 -1.0755772e-05 
1.5743184e-03 0.0000000e+00 -1.4038616e-05 
1.9098204e-03 0.0000000e+00 -1.8610936e-05 
2.2693034e-03 0.0000000e+00 -1.9561367e-05 
2.5615259e-03 0.0000000e+00 -2.2049517e-05 
2.6563341e-03 0.0000000e+00 -2.4656678e-05 
2.5778620e-03 0.0000000e+00 -2.7782016e-05 
2.3002047e-03 0.0000000e+00 -3.0257628e-05 
1.8453099e-03 0.0000000e+00 -3.1812844e-05 
2.2561513e-03 0.0000000e+00 9.5625757e-04 
2.2609625e-03 0.0000000e+00 2.2535375e-03 
2.2657735e-03 0.0000000e+00 2.7348490e-03 
2.2638836e-03 0.0000000e+00 1.6057090e-03 
1.8742186e-03 0.0000000e+00 -1.3932796e-03 
1.8635906e-03 0.0000000e+00 -3.0594135e-03 
1.8606726e-03 0.0000000e+00 -3.2759174e-03 
1.8529913e-03 0.0000000e+00 -1.8146918e-03 
ROTATION 3 30  float
0.0000000e+00 1.0671146e-03 0.0000000e+00 
0.0000000e+00 9.8786782e-04 0.0000000e+00 
0.0000000e+00 7.5012742e-04 0.0000000e+00 
0.0000000e+00 4.4525947e-04 0.0000000e+00 
0.0000000e+00 1.5160926e-04 0.0000000e+00 
0.0000000e+00 -1.6490424e-04 0.0000000e+00 
0.0000000e+00 -1.5908852e-04 0.0000000e+00 
0.0000000e+00 -1.6240457e-04 0.0000000e+00 
0.0000000e+00 -1.5538830e-04 0.0000000e+00 
0.0000000e+00 -1.7500970e-05 0.0000000e+00 
0.0000000e+00 3.1580272e-04 0.0000000e+00 
0.0000000e+00 7.7608682e-04 0.0000000e+00 
0.0000000e+00 7.3378207e-04 0.0000000e+00 
0.0000000e+00 6.0686789e-04 0.0000000e+00 
0.0000000e+00 4.5648479e-04 0.0000000e+00 
0.0000000e+00 4.1093657e-04 0.0000000e+00 
0.0000000e+00 5.0596258e-04 0.0000000e+00 
0.0000000e+00 2.3319133e-04 0.0000000e+00 
0.0000000e+00 1.2636954e-05 0.0000000e+00 
0.0000000e+00 -2.2247894e-04 0.0000000e+00 
0.0000000e+00 -4.5820596e-04 0.0000000e+00 
0.0000000e+00 -6.9176778e-04 0.0000000e+00 
0.0000000e+00 -6.5341167e-04 0.0000000e+00 
0.0000000e+00 -5.4425804e-04 0.0000000e+00 
0.0000000e+00 1.6255668e-04 0.0000000e+00 
0.0000000e+00 8.6577405e-04 0.0000000e+00 
0.0000000e+00 9.3629892e-04 0.0000000e+00 
0.0000000e+00 5.6444295e-04 0.0000000e+00 
0.0000000e+00 -3.7011417e-04 0.0000000e+00 
0.0000000e+00 -9.5106871e-04 0.0000000e+00 
REACTION 3 30  float
-7.8008569e+03 -0.0000000e+00 -2.6059646e+04 
1.1641532e-10 -0.0000000e+00 -0.0000000e+00 
2.0372681e-10 -0.0000000e+00 2.1827873e-11 
-1.2369128e-10 -0.0000000e+00 -1.0913936e-11 
8.6129148e-10 -0.0000000e+00 -2.9103830e-11 
-1.1932570e-09 -0.0000000e+00 7.2759576e-12 
-5.9117156e-10 -0.0000000e+00 -7.2759576e-11 
7.6397555e-11 -0.0000000e+00 3.2741809e-11 
7.7488949e-10 -0.0000000e+00 -2.9103830e-11 
-1.7098500e-10 -0.0000000e+00 1.0913936e-11 
-2.4738256e-10 -0.0000000e+00 -0.0000000e+00 
-4.1643721e+03 -0.0000000e+00 1.4116950e+04 
2.9103830e-11 -0.0000000e+00 -0.0000000e+00 
5.4114935e-10 -0.0000000e+00 1.4551915e-11 
-5.5661076e-10 -0.0000000e+00 3.6379788e-12 
-1.4370016e-10 -0.0000000e+00 -1.8189894e-12 
-6.9849193e-10 -0.0000000e+00 -8.9130481e-11 
1.9053914e-10 -0.0000000e+00 -0.0000000e+00 
-9.2313712e-11 -0.0000000e+00 3.6379788e-12 
-2.6557245e-10 -0.0000000e+00 -6.1663741e-10 
-8.8220986e-11 -0.0000000e+00 -4.5474735e-13 
3.4560799e-10 -0.0000000e+00 3.7471182e-10 
-0.0000000e+00 -0.0000000e+00 1.4551915e-11 
-0.0000000e+00 -0.0000000e+00 8.0035534e-11 
1.7826096e-10 -0.0000000e+00 3.2741809e-11 
5.7480065e-10 -0.0000000e+00 1.4551915e-11 
4.6566129e-10 -0.0000000e+00 -1.4551915e-11 
-4.9840310e-10 -0.0000000e+00 2.3646862e-11 
4.4565240e-11 -0.0000000e+00 -3.2196112e-10 
2.3283064e-10 -0.0000000e+00 1.0913936e-11 
REACTION_MOMENT 3 30  float
-0.0000000e+00 -1.0186341e-10 -0.0000000e+00 
-0.0000000e+00 -2.1827873e-11 -0.0000000e+00 
-0.0000000e+00 1.8917490e-10 -0.0000000e+00 
-0.0000000e+00 -4.0017767e-11 -0.0000000e+00 
-0.0000000e+00 9.3496055e-10 -0.0000000e+00 
-0.0000000e+00 1.8371793e-10 -0.0000000e+00 
-0.0000000e+00 4.7475623e-10 -0.0000000e+00 
-0.0000000e+00 -2.8558134e-10 -0.0000000e+00 
-0.0000000e+00 1.2778401e-10 -0.0000000e+00 
-0.0000000e+00 -1.0186341e-10 -0.0000000e+00 
-0.0000000e+00 -1.3460522e-10 -0.0000000e+00 
-0.0000000e+00 2.1827873e-11 -0.0000000e+00 
-0.0000000e+00 -7.2759576e-12 -0.0000000e+00 
-0.0000000e+00 4.3655746e-11 -0.0000000e+00 
-0.0000000e+00 -3.2741809e-11 -0.0000000e+00 
-0.0000000e+00 4.3655746e-11 -0.0000000e+00 
-0.0000000e+00 9.4587449e-11 -0.0000000e+00 
-0.0000000e+00 -4.7293724e-11 -0.0000000e+00 
-0.0000000e+00 2.2282620e-10 -0.0000000e+00 
-0.0000000e+00 -6.5483619e-11 -0.0000000e+00 
-0.0000000e+00 2.9103830e-11 -0.0000000e+00 
-0.0000000e+00 -3.6379788e-11 -0.0000000e+00 
-0.0000000e+00 8.0035534e-11 -0.0000000e+00 
-0.0000000e+00 -1.4551915e-11 -0.0000000e+00 
-0.0000000e+00 -4.0017767e-11 -0.0000000e+00 
-0.0000000e+00 1.0913936e-11 -0.0000000e+00 
-0.0000000e+00 2.5465852e-11 -0.0000000e+00 
-0.0000000e+00 -2.7284841e-11 -0.0000000e+00 
-0.0000000e+00 -3.6379788e-12 -0.0000000e+00 
-0.0000000e+00 2.9103830e-11 -0.0000000e+00 
VOLUME_ACCELERATION 3 30  float
0.0000000e+00 0.0000000e+00 0.0000000e+00 
0.0000000e+00 0.0000000e+00 0.0000000e+00 
0.0000000e+00 0.0000000e+00 0.0000000e+00 
0.0000000e+00 0.0000000e+00 0.0000000e+00 
0.0000000e+00 0.0000000e+00 0.0000000e+00 
0.0000000e+00 0.0000000e+00 0.0000000e+00 
0.0000000e+00 0.0000000e+00 0.0000000e+00 
0.0000000e+00 0.0000000e+00 0.0000000e+00 
0.0000000e+00 0.0000000e+00 0.0000000e+00 
0.0000000e+00 0.0000000e+00 0.0000000e+00 
0.0000000e+00 0.0000000e+00 0.0000000e+00 
0.0000000e+00 0.0000000e+00 0.0000000e+00 
0.0000000e+00 0.0000000e+00 0.0000000e+00 
0.0000000e+00 0.0000000e+00 0.0000000e+00 
0.0000000e+00 0.0000000e+00 0.0000000e+00 
0.0000000e+00 0.0000000e+00 0.0000000e+00 
0.0000000e+00 0.0000000e+00 0.0000000e+00 
0.0000000e+00 0.0000000e+00 0.0000000e+00 
0.0000000e+00 0.0000000e+00 0.0000000e+00 
0.0000000e+00 0.0000000e+00 0.0000000e+00 
0.0000000e+00 0.0000000e+00 0.0000000e+00 
0.0000000e+00 0.0000000e+00 0.0000000e+00 
0.0000000e+00 0.0000000e+00 0.0000000e+00 
0.0000000e+00 0.0000000e+00 0.0000000e+00 
0.0000000e+00 0.0000000e+00 0.0000000e+00 
0.0000000e+00 0.0000000e+00 0.0000000e+00 
0.0000000e+00 0.0000000e+00 0.0000000e+00 
0.0000000e+00 0.0000000e+00 0.0000000e+00 
0.0000000e+00 0.0000000e+00 0.0000000e+00 
0.0000000e+00 0.0000000e+00 0.0000000e+00 
POINT_LOAD 3 30  float
0.0000000e+00 0.0000000e+00 0.0000000e+00 
0.0000000e+00 0.0000000e+00 0.0000000e+00 
8.9938467e+03 0.0000000e+00 6.3453867e+03 
-1.2817302e+03 0.0000000e+00 4.2969434e+02 
-2.0731240e+03 0.0000000e+00 9.7825059e+03 
0.0000000e+00 0.0000000e+00 0.0000000e+00 
-6.6783403e+03 0.0000000e+00 8.8135127e+03 
8.5943359e+03 0.0000000e+00 8.5501201e+03 
3.2712000e+03 0.0000000e+00 4.8845649e+03 
3.0824761e+03 0.0000000e+00 -9.6379453e+03 
0.0000000e+00 0.0000000e+00 0.0000000e+00 
0.0000000e+00 0.0000000e+00 0.0000000e+00 
0.0000000e+00 0.0000000e+00 0.0000000e+00 
6.0185273e+03 0.0000000e+00 -5.4994844e+03 
6.6113711e+03 0.0000000e+00 3.3848716e+03 
-3.0932764e+03 0.0000000e+00 -9.5074531e+03 
2.8573511e+03 0.0000000e+00 -7.9429580e+03 
6.2209068e+01 0.0000000e+00 3.1240771e+02 
-6.6357104e+03 0.0000000e+00 1.3602123e+03 
8.0089541e+03 0.0000000e+00 -1.7055291e+03 
-7.7356606e+03 0.0000000e+00 -2.4160391e+03 
-4.3041792e+03 0.0000000e+00 2.5345676e+03 
0.0000000e+00 0.0000000e+00 0.0000000e+00 
0.0000000e+00 0.0000000e+00 0.0000000e+00 
7.0357876e+03 0.0000000e+00 9.4698193e+03 
-7.6748618e+03 0.0000000e+00 7.2162271e+03 
0.0000000e+00 0.0000000e+00 0.0000000e+00 
-8.0954971e+03 0.0000000e+00 -6.7670034e+03 
5.0015508e+03 0.0000000e+00 -7.6647817e+03 
0.0000000e+00 0.0000000e+00 0.0000000e+00 
POINT_MOMENT 3 30  float
0.0000000e+00 0.0000000e+00 0.0000000e+00 
0.0000000e+00 0.0000000e+00 0.0000000e+00 
0.0000000e+00 0.0000000e+00 0.0000000e+00 
0.0000000e+00 0.0000000e+00 0.0000000e+00 
0.0000000e+00 0.0000000e+00 0.0000000e+00 
0.0000000e+00 0.0000000e+00 0.0000000e+00 
0.0000000e+00 0.0000000e+00 0.0000000e+00 
0.0000000e+00 0.0000000e+00 0.0000000e+00 
0.0000000e+00 0.0000000e+00 0.0000000e+00 
0.0000000e+00 0.0000000e+00 0.0000000e+00 
0.0000000e+00 0.0000000e+00 0.0000000e+00 
0.0000000e+00 0.0000000e+00 0.0000000e+00 
0.0000000e+00 0.0000000e+00 0.0000000e+00 
0.0000000e+00 0.0000000e+00 0.0000000e+00 
0.0000000e+00 0.0000000e+00 0.0000000e+00 
0.0000000e+00 0.0000000e+00 0.0000000e+00 
0.0000000e+00 0.0000000e+00 0.0000000e+00 
0.0000000e+00 0.0000000e+00 0.0000000e+00 
0.0000000e+00 0.0000000e+00 0.0000000e+00 
0.0000000e+00 0.0000000e+00 0.0000000e+00 
0.0000000e+00 0.0000000e+00 0.0000000e+00 
0.0000000e+00 0.0000000e+00 0.0000000e+00 
0.0000000e+00 0.0000000e+00 0.0000000e+00 
0.0000000e+00 0.0000000e+00 0.0000000e+00 
0.0000000e+00 0.0000000e+00 0.0000000e+00 
0.0000000e+00 0.0000000e+00 0.0000000e+00 
0.0000000e+00 0.0000000e+00 0.0000000e+00 
0.0000000e+00 0.0000000e+00 0.0000000e+00 
0.0000000e+00 0.0000000e+00 0.0000000e+00 
0.0000000e+00 0.0000000e+00 0.0000000e+00 
CELL_DATA 30
FIELD FieldData 9
YOUNG_MODULUS 1 30  float
2.1000000e+11
2.1000000e+11
2.1000000e+11
2.1000000e+11
2.1000000e+11
2.1000000e+11
2.1000000e+11
2.1000000e+11
2.1000000e+11
2.1000000e+11
2.1000000e+11
2.1000000e+11
2.1000000e+11
2.1000000e+11
2.1000000e+11
2.1000000e+11
2.1000000e+11
2.1000000e+11
2.1000000e+11
2.1000000e+11
2.1000000e+11
2.1000000e+11
2.1000000e+11
2.1000000e+11
2.1000000e+11
2.1000000e+11
2.1000000e+11
2.1000000e+11
2.1000000e+11
2.1000000e+11
DENSITY 1 30  float
7.8500000e+03
7.8500000e+03
7.8500000e+03
7.8500000e+03
7.8500000e+03
7.8500000e+03
7.8500000e+03
7.8500000e+03
7.8500000e+03
7.8500000e+03
7.8500000e+03
7.8500000e+03
7.8500000e+03
7.8500000e+03
7.8500000e+03
7.8500000e+03
7.8500000e+03
7.8500000e+03
7.8500000e+03
7.8500000e+03
7.8500000e+03
7.8500000e+03
7.8500000e+03
7.8500000e+03
7.8500000e+03
7.8500000e+03
7.8500000e+03
7.8500000e+03
7.8500000e+03
7.8500000e+03
CROSS_AREA 1 30  float
9.9999998e-03
9.9999998e-03
9.9999998e-03
9.9999998e-03
9.9999998e-03
9.9999998e-03
9.9999998e-03
9.9999998e-03
9.9999998e-03
9.9999998e-03
9.9999998e-03
9.9999998e-03
9.9999998e-03
9.9999998e-03
9.9999998e-03
9.9999998e-03
9.9999998e-03
9.9999998e-03
9.9999998e-03
9.9999998e-03
9.9999998e-03
9.9999998e-03
9.9999998e-03
9.9999998e-03
9.9999998e-03
9.9999998e-03
9.9999998e-03
9.9999998e-03
9.9999998e-03
9.9999998e-03
I22 1 30  float
1.5000001e-04
1.5000001e-04
1.5000001e-04
1.5000001e-04
1.5000001e-04
1.5000001e-04
1.5000001e-04
1.5000001e-04
1.5000001e-04
1.5000001e-04
1.5000001e-04
1.5000001e-04
1.5000001e-04
1.5000001e-04
1.5000001e-04
1.5000001e-04
1.5000001e-04
1.5000001e-04
1.5000001e-04
1.5000001e-04
1.5000001e-04
1.5000001e-04
1.5000001e-04
1.5000001e-04
1.5000001e-04
1.5000001e-04
1.5000001e-04
1.5000001e-04
1.5000001e-04
1.5000001e-04
I33 1 30  float
1.5000001e-04
1.5000001e-04
1.5000001e-04
1.5000001e-04
1.5000001e-04
1.5000001e-04
1.5000001e-04
1.5000001e-04
1.5000001e-04
1.5000001e-04
1.5000001e-04
1.5000001e-04
1.5000001e-04
1.5000001e-04
1.5000001e-04
1.5000001e-04
1.5000001e-04
1.5000001e-04
1.5000001e-04
1.5000001e-04
1.5000001e-04
1.5000001e-04
1.5000001e-04
1.5000001e-04
1.5000001e-04
1.5000001e-04
1.5000001e-04
1.5000001e-04
1.5000001e-04
1.5000001e-04
TORSIONAL_INERTIA 1 30  float
3.0000001e-04
3.0000001e-04
3.0000001e-04
3.0000001e-04
3.0000001e-04
3.0000001e-04
3.0000001e-04
3.0000001e-04
3.0000001e-04
3.0000001e-04
3.0000001e-04
3.0000001e-04
3.0000001e-04
3.0000001e-04
3.0000001e-04
3.0000001e-04
3.0000001e-04
3.0000001e-04
3.0000001e-04
3.0000001e-04
3.0000001e-04
3.0000001e-04
3.0000001e-04
3.0000001e-04
3.0000001e-04
3.0000001e-04
3.0000001e-04
3.0000001e-04
3.0000001e-04
3.0000001e-04
POISSON_RATIO 1 30  float
3.0000001e-01
3.0000001e-01
3.0000001e-01
3.0000001e-01
3.0000001e-01
3.0000001e-01
3.0000001e-01
3.0000001e-01
3.0000001e-01
3.0000001e-01
3.0000001e-01
3.0000001e-01
3.0000001e-01
3.0000001e-01
3.0000001e-01
3.0000001e-01
3.0000001e-01
3.0000001e-01
3.0000001e-01
3.0000001e-01
3.0000001e-01
3.0000001e-01
3.0000001e-01
3.0000001e-01
3.0000001e-01
3.0000001e-01
3.0000001e-01
3.0000001e-01
3.0000001e-01
3.0000001e-01
MOMENT 3 30  float
0.0000000e+00 -3.1203428e+03 0.0000000e+00 
0.0000000e+00 -9.3610283e+03 0.0000000e+00 
0.0000000e+00 -1.2004176e+04 0.0000000e+00 
0.0000000e+00 -1.1562477e+04 0.0000000e+00 
0.0000000e+00 -1.2462719e+04 0.0000000e+00 
0.0000000e+00 2.2899405e+02 0.0000000e+00 
0.0000000e+00 -1.3056947e+02 0.0000000e+00 
0.0000000e+00 2.7626517e+02 0.0000000e+00 
0.0000000e+00 5.4293140e+03 0.0000000e+00 
0.0000000e+00 1.3123833e+04 0.0000000e+00 
0.0000000e+00 -1.6657489e+03 0.0000000e+00 
0.0000000e+00 -4.9972466e+03 0.0000000e+00 
0.0000000e+00 -5.9213335e+03 0.0000000e+00 
0.0000000e+00 -1.7934609e+03 0.0000000e+00 
0.0000000e+00 3.7416494e+03 0.0000000e+00 
0.0000000e+00 -1.0740369e+04 0.0000000e+00 
0.0000000e+00 -8.6843281e+03 0.0000000e+00 
0.0000000e+00 -9.2576885e+03 0.0000000e+00 
0.0000000e+00 -9.2817510e+03 0.0000000e+00 
0.0000000e+00 -9.1964961e+03 0.0000000e+00 
0.0000000e+00 -7.6939922e+03 0.0000000e+00 
0.0000000e+00 1.7191698e+03 0.0000000e+00 
0.0000000e+00 1.1132332e+04 0.0000000e+00 
0.0000000e+00 1.1075674e+04 0.0000000e+00 
0.0000000e+00 -5.6670308e+03 0.0000000e+00 
0.0000000e+00 9.7728154e+03 0.0000000e+00 
0.0000000e+00 -5.8567314e+03 0.0000000e+00 
0.0000000e+00 -1.4719274e+04 0.0000000e+00 
0.0000000e+00 -9.1500332e+03 0.0000000e+00 
0.0000000e+00 4.0839895e+03 0.0000000e+00 
FORCE 3 30  float
2.6059646e+04 0.0000000e+00 -7.8008569e+03 
2.6059646e+04 0.0000000e+00 -7.8008569e+03 
1.9714260e+04 0.0000000e+00 1.1929891e+03 
1.9284566e+04 0.0000000e+00 -8.8741081e+01 
9.5020605e+03 0.0000000e+00 -2.1618652e+03 
4.7954790e+03 0.0000000e+00 2.8897158e+03 
-4.0180337e+03 0.0000000e+00 -3.7886245e+03 
-1.2568153e+04 0.0000000e+00 4.8057109e+03 
-1.7452719e+04 0.0000000e+00 8.0769111e+03 
-7.8147734e+03 0.0000000e+00 1.1159388e+04 
-1.4116950e+04 0.0000000e+00 -4.1643721e+03 
-1.4116950e+04 0.0000000e+00 -4.1643721e+03 
-8.6174658e+03 0.0000000e+00 1.8541552e+03 
-1.2002338e+04 0.0000000e+00 8.4655264e+03 
-2.4948843e+03 0.0000000e+00 5.3722495e+03 
-6.5313921e+03 0.0000000e+00 2.5389460e+03 
-6.8437998e+03 0.0000000e+00 2.6011550e+03 
-8.2040117e+03 0.0000000e+00 -4.0345554e+03 
-6.4984829e+03 0.0000000e+00 3.9743987e+03 
-4.0824438e+03 0.0000000e+00 -3.7612617e+03 
5.0515811e+03 0.0000000e+00 4.7065811e+03 
5.0515811e+03 0.0000000e+00 4.7065811e+03 
5.0515811e+03 0.0000000e+00 4.7065811e+03 
-1.9842068e+03 0.0000000e+00 -4.7632388e+03 
5.6906548e+03 0.0000000e+00 -1.1979466e+04 
-1.1159388e+04 0.0000000e+00 -7.8147734e+03 
-1.1159388e+04 0.0000000e+00 -7.8147734e+03 
-3.0638901e+03 0.0000000e+00 -1.0477700e+03 
-8.0654409e+03 0.0000000e+00 6.6170117e+03 
-8.0654409e+03 0.0000000e+00 6.6170117e+03 
