# vtk DataFile Version 4.0
vtk output
ASCII
DATASET UNSTRUCTURED_GRID
POINTS 212 float
0.0000000e+00 0.0000000e+00 0.0000000e+00 
0.0000000e+00 0.0000000e+00 2.5000000e-01 
0.0000000e+00 0.0000000e+00 5.0000000e-01 
0.0000000e+00 0.0000000e+00 7.5000000e-01 
0.0000000e+00 0.0000000e+00 1.0000000e+00 
0.0000000e+00 0.0000000e+00 1.2500000e+00 
0.0000000e+00 0.0000000e+00 1.5000000e+00 
0.0000000e+00 0.0000000e+00 1.7500000e+00 
0.0000000e+00 0.0000000e+00 2.0000000e+00 
0.0000000e+00 0.0000000e+00 2.2500000e+00 
0.0000000e+00 0.0000000e+00 2.5000000e+00 
0.0000000e+00 0.0000000e+00 2.7500000e+00 
0.0000000e+00 0.0000000e+00 3.0000000e+00 
0.0000000e+00 0.0000000e+00 3.2500000e+00 
0.0000000e+00 0.0000000e+00 3.5000000e+00 
0.0000000e+00 0.0000000e+00 3.7500000e+00 
0.0000000e+00 0.0000000e+00 4.0000000e+00 
0.0000000e+00 0.0000000e+00 4.2500000e+00 
0.0000000e+00 0.0000000e+00 4.5000000e+00 
0.0000000e+00 0.0000000e+00 4.7500000e+00 
0.0000000e+00 0.0000000e+00 5.0000000e+00 
0.0000000e+00 0.0000000e+00 5.2500000e+00 
0.0000000e+00 0.0000000e+00 5.5000000e+00 
0.0000000e+00 0.0000000e+00 5.7500000e+00 
0.0000000e+00 0.0000000e+00 6.0000000e+00 
0.0000000e+00 0.0000000e+00 6.2500000e+00 
0.0000000e+00 0.0000000e+00 6.5000000e+00 
0.0000000e+00 0.0000000e+00 6.7500000e+00 
0.0000000e+00 0.0000000e+00 7.0000000e+00 
0.0000000e+00 0.0000000e+00 7.2500000e+00 
0.0000000e+00 0.0000000e+00 7.5000000e+00 
0.0000000e+00 0.0000000e+00 7.7500000e+00 
0.0000000e+00 0.0000000e+00 8.0000000e+00 
0.0000000e+00 0.0000000e+00 8.2500000e+00 
0.0000000e+00 0.0000000e+00 8.5000000e+00 
0.0000000e+00 0.0000000e+00 8.7500000e+00 
0.0000000e+00 0.0000000e+00 9.0000000e+00 
0.0000000e+00 0.0000000e+00 9.2500000e+00 
0.0000000e+00 0.0000000e+00 9.5000000e+00 
0.0000000e+00 0.0000000e+00 9.7500000e+00 
0.0000000e+00 0.0000000e+00 1.0000000e+01 
0.0000000e+00 0.0000000e+00 1.0250000e+01 
0.0000000e+00 0.0000000e+00 1.0500000e+01 
0.0000000e+00 0.0000000e+00 1.0750000e+01 
0.0000000e+00 0.0000000e+00 1.1000000e+01 
0.0000000e+00 0.0000000e+00 1.1250000e+01 
0.0000000e+00 0.0000000e+00 1.1500000e+01 
0.0000000e+00 0.0000000e+00 1.1750000e+01 
0.0000000e+00 0.0000000e+00 1.2000000e+01 
0.0000000e+00 0.0000000e+00 1.2250000e+01 
0.0000000e+00 0.0000000e+00 1.2500000e+01 
0.0000000e+00 0.0000000e+00 1.2750000e+01 
0.0000000e+00 0.0000000e+00 1.3000000e+01 
0.0000000e+00 0.0000000e+00 1.3250000e+01 
0.0000000e+00 0.0000000e+00 1.3500000e+01 
0.0000000e+00 0.0000000e+00 1.3750000e+01 
0.0000000e+00 0.0000000e+00 1.4000000e+01 
0.0000000e+00 0.0000000e+00 1.4250000e+01 
0.0000000e+00 0.0000000e+00 1.4500000e+01 
0.0000000e+00 0.0000000e+00 1.4750000e+01 
0.0000000e+00 0.0000000e+00 1.5000000e+01 
0.0000000e+00 0.0000000e+00 1.5250000e+01 
0.0000000e+00 0.0000000e+00 1.5500000e+01 
0.0000000e+00 0.0000000e+00 1.5750000e+01 
0.0000000e+00 0.0000000e+00 1.6000000e+01 
0.0000000e+00 0.0000000e+00 1.6250000e+01 
0.0000000e+00 0.0000000e+00 1.6500000e+01 
0.0000000e+00 0.0000000e+00 1.6750000e+01 
0.0000000e+00 0.0000000e+00 1.7000000e+01 
0.0000000e+00 0.0000000e+00 1.7250000e+01 
0.0000000e+00 0.0000000e+00 1.7500000e+01 
0.0000000e+00 0.0000000e+00 1.7750000e+01 
0.0000000e+00 0.0000000e+00 1.8000000e+01 
5.0000000e-01 0.0000000e+00 3.0000000e+00 
5.0000000e-01 0.0000000e+00 6.0000000e+00 
5.0000000e-01 0.0000000e+00 9.0000000e+00 
5.0000000e-01 0.0000000e+00 1.2000000e+01 
5.0000000e-01 0.0000000e+00 1.5000000e+01 
5.0000000e-01 0.0000000e+00 1.8000000e+01 
1.0000000e+00 0.0000000e+00 3.0000000e+00 
1.0000000e+00 0.0000000e+00 6.0000000e+00 
1.0000000e+00 0.0000000e+00 9.0000000e+00 
1.0000000e+00 0.0000000e+00 1.2000000e+01 
1.0000000e+00 0.0000000e+00 1.5000000e+01 
1.0000000e+00 0.0000000e+00 1.8000000e+01 
1.5000000e+00 0.0000000e+00 3.0000000e+00 
1.5000000e+00 0.0000000e+00 6.0000000e+00 
1.5000000e+00 0.0000000e+00 9.0000000e+00 
1.5000000e+00 0.0000000e+00 1.2000000e+01 
1.5000000e+00 0.0000000e+00 1.5000000e+01 
1.5000000e+00 0.0000000e+00 1.8000000e+01 
2.0000000e+00 0.0000000e+00 3.0000000e+00 
2.0000000e+00 0.0000000e+00 6.0000000e+00 
2.0000000e+00 0.0000000e+00 9.0000000e+00 
2.0000000e+00 0.0000000e+00 1.2000000e+01 
2.0000000e+00 0.0000000e+00 1.5000000e+01 
2.0000000e+00 0.0000000e+00 1.8000000e+01 
2.5000000e+00 0.0000000e+00 3.0000000e+00 
2.5000000e+00 0.0000000e+00 6.0000000e+00 
2.5000000e+00 0.0000000e+00 9.0000000e+00 
2.5000000e+00 0.0000000e+00 1.2000000e+01 
2.5000000e+00 0.0000000e+00 1.5000000e+01 
2.5000000e+00 0.0000000e+00 1.8000000e+01 
3.0000000e+00 0.0000000e+00 3.0000000e+00 
3.0000000e+00 0.0000000e+00 6.0000000e+00 
3.0000000e+00 0.0000000e+00 9.0000000e+00 
3.0000000e+00 0.0000000e+00 1.2000000e+01 
3.0000000e+00 0.0000000e+00 1.5000000e+01 
3.0000000e+00 0.0000000e+00 1.8000000e+01 
3.5000000e+00 0.0000000e+00 3.0000000e+00 
3.5000000e+00 0.0000000e+00 6.0000000e+00 
3.5000000e+00 0.0000000e+00 9.0000000e+00 
3.5000000e+00 0.0000000e+00 1.2000000e+01 
3.5000000e+00 0.0000000e+00 1.5000000e+01 
3.5000000e+00 0.0000000e+00 1.8000000e+01 
4.0000000e+00 0.0000000e+00 3.0000000e+00 
4.0000000e+00 0.0000000e+00 6.0000000e+00 
4.0000000e+00 0.0000000e+00 9.0000000e+00 
4.0000000e+00 0.0000000e+00 1.2000000e+01 
4.0000000e+00 0.0000000e+00 1.5000000e+01 
4.0000000e+00 0.0000000e+00 1.8000000e+01 
4.5000000e+00 0.0000000e+00 3.0000000e+00 
4.5000000e+00 0.0000000e+00 6.0000000e+00 
4.5000000e+00 0.0000000e+00 9.0000000e+00 
4.5000000e+00 0.0000000e+00 1.2000000e+01 
4.5000000e+00 0.0000000e+00 1.5000000e+01 
4.5000000e+00 0.0000000e+00 1.8000000e+01 
5.0000000e+00 0.0000000e+00 3.0000000e+00 
5.0000000e+00 0.0000000e+00 6.0000000e+00 
5.0000000e+00 0.0000000e+00 9.0000000e+00 
5.0000000e+00 0.0000000e+00 1.2000000e+01 
5.0000000e+00 0.0000000e+00 1.5000000e+01 
5.0000000e+00 0.0000000e+00 1.8000000e+01 
5.5000000e+00 0.0000000e+00 3.0000000e+00 
5.5000000e+00 0.0000000e+00 6.0000000e+00 
5.5000000e+00 0.0000000e+00 9.0000000e+00 
5.5000000e+00 0.0000000e+00 1.2000000e+01 
5.5000000e+00 0.0000000e+00 1.5000000e+01 
5.5000000e+00 0.0000000e+00 1.8000000e+01 
6.0000000e+00 0.0000000e+00 0.0000000e+00 
6.0000000e+00 0.0000000e+00 2.5000000e-01 
6.0000000e+00 0.0000000e+00 5.0000000e-01 
6.0000000e+00 0.0000000e+00 7.5000000e-01 
6.0000000e+00 0.0000000e+00 1.0000000e+00 
6.0000000e+00 0.0000000e+00 1.2500000e+00 
6.0000000e+00 0.0000000e+00 1.5000000e+00 
6.0000000e+00 0.0000000e+00 1.7500000e+00 
6.0000000e+00 0.0000000e+00 2.0000000e+00 
6.0000000e+00 0.0000000e+00 2.2500000e+00 
6.0000000e+00 0.0000000e+00 2.5000000e+00 
6.0000000e+00 0.0000000e+00 2.7500000e+00 
6.0000000e+00 0.0000000e+00 3.0000000e+00 
6.0000000e+00 0.0000000e+00 3.2500000e+00 
6.0000000e+00 0.0000000e+00 3.5000000e+00 
6.0000000e+00 0.0000000e+00 3.7500000e+00 
6.0000000e+00 0.0000000e+00 4.0000000e+00 
6.0000000e+00 0.0000000e+00 4.2500000e+00 
6.0000000e+00 0.0000000e+00 4.5000000e+00 
6.0000000e+00 0.0000000e+00 4.7500000e+00 
6.0000000e+00 0.0000000e+00 5.0000000e+00 
6.0000000e+00 0.0000000e+00 5.2500000e+00 
6.0000000e+00 0.0000000e+00 5.5000000e+00 
6.0000000e+00 0.0000000e+00 5.7500000e+00 
6.0000000e+00 0.0000000e+00 6.0000000e+00 
6.0000000e+00 0.0000000e+00 6.2500000e+00 
6.0000000e+00 0.0000000e+00 6.5000000e+00 
6.0000000e+00 0.0000000e+00 6.7500000e+00 
6.0000000e+00 0.0000000e+00 7.0000000e+00 
6.0000000e+00 0.0000000e+00 7.2500000e+00 
6.0000000e+00 0.0000000e+00 7.5000000e+00 
6.0000000e+00 0.0000000e+00 7.7500000e+00 
6.0000000e+00 0.0000000e+00 8.0000000e+00 
6.0000000e+00 0.0000000e+00 8.2500000e+00 
6.0000000e+00 0.0000000e+00 8.5000000e+00 
6.0000000e+00 0.0000000e+00 8.7500000e+00 
6.0000000e+00 0.0000000e+00 9.0000000e+00 
6.0000000e+00 0.0000000e+00 9.2500000e+00 
6.0000000e+00 0.0000000e+00 9.5000000e+00 
6.0000000e+00 0.0000000e+00 9.7500000e+00 
6.0000000e+00 0.0000000e+00 1.0000000e+01 
6.0000000e+00 0.0000000e+00 1.0250000e+01 
6.0000000e+00 0.0000000e+00 1.0500000e+01 
6.0000000e+00 0.0000000e+00 1.0750000e+01 
6.0000000e+00 0.0000000e+00 1.1000000e+01 
6.0000000e+00 0.0000000e+00 1.1250000e+01 
6.0000000e+00 0.0000000e+00 1.1500000e+01 
6.0000000e+00 0.0000000e+00 1.1750000e+01 
6.0000000e+00 0.0000000e+00 1.2000000e+01 
6.0000000e+00 0.0000000e+00 1.2250000e+01 
6.0000000e+00 0.0000000e+00 1.2500000e+01 
6.0000000e+00 0.0000000e+00 1.2750000e+01 
6.0000000e+00 0.0000000e+00 1.3000000e+01 
6.0000000e+00 0.0000000e+00 1.3250000e+01 
6.0000000e+00 0.0000000e+00 1.3500000e+01 
6.0000000e+00 0.0000000e+00 1.3750000e+01 
6.0000000e+00 0.0000000e+00 1.4000000e+01 
6.0000000e+00 0.0000000e+00 1.4250000e+01 
6.0000000e+00 0.0000000e+00 1.4500000e+01 
6.0000000e+00 0.0000000e+00 1.4750000e+01 
6.0000000e+00 0.0000000e+00 1.5000000e+01 
6.0000000e+00 0.0000000e+00 1.5250000e+01 
6.0000000e+00 0.0000000e+00 1.5500000e+01 
6.0000000e+00 0.0000000e+00 1.5750000e+01 
6.0000000e+00 0.0000000e+00 1.6000000e+01 
6.0000000e+00 0.0000000e+00 1.6250000e+01 
6.0000000e+00 0.0000000e+00 1.6500000e+01 
6.0000000e+00 0.0000000e+00 1.6750000e+01 
6.0000000e+00 0.0000000e+00 1.7000000e+01 
6.0000000e+00 0.0000000e+00 1.7250000e+01 
6.0000000e+00 0.0000000e+00 1.7500000e+01 
6.0000000e+00 0.0000000e+00 1.7750000e+01 
6.0000000e+00 0.0000000e+00 1.8000000e+01 

CELLS 216 648
2 0 1
2 1 2
2 2 3
2 3 4
2 4 5
2 5 6
2 6 7
2 7 8
2 8 9
2 9 10
2 10 11
2 11 12
2 12 13
2 13 14
2 14 15
2 15 16
2 16 17
2 17 18
2 18 19
2 19 20
2 20 21
2 21 22
2 22 23
2 23 24
2 24 25
2 25 26
2 26 27
2 27 28
2 28 29
2 29 30
2 30 31
2 31 32
2 32 33
2 33 34
2 34 35
2 35 36
2 36 37
2 37 38
2 38 39
2 39 40
2 40 41
2 41 42
2 42 43
2 43 44
2 44 45
2 45 46
2 46 47
2 47 48
2 48 49
2 49 50
2 50 51
2 51 52
2 52 53
2 53 54
2 54 55
2 55 56
2 56 57
2 57 58
2 58 59
2 59 60
2 60 61
2 61 62
2 62 63
2 63 64
2 64 65
2 65 66
2 66 67
2 67 68
2 68 69
2 69 70
2 70 71
2 71 72
2 139 140
2 140 141
2 141 142
2 142 143
2 143 144
2 144 145
2 145 146
2 146 147
2 147 148
2 148 149
2 149 150
2 150 151
2 151 152
2 152 153
2 153 154
2 154 155
2 155 156
2 156 157
2 157 158
2 158 159
2 159 160
2 160 161
2 161 162
2 162 163
2 163 164
2 164 165
2 165 166
2 166 167
2 167 168
2 168 169
2 169 170
2 170 171
2 171 172
2 172 173
2 173 174
2 174 175
2 175 176
2 176 177
2 177 178
2 178 179
2 179 180
2 180 181
2 181 182
2 182 183
2 183 184
2 184 185
2 185 186
2 186 187
2 187 188
2 188 189
2 189 190
2 190 191
2 191 192
2 192 193
2 193 194
2 194 195
2 195 196
2 196 197
2 197 198
2 198 199
2 199 200
2 200 201
2 201 202
2 202 203
2 203 204
2 204 205
2 205 206
2 206 207
2 207 208
2 208 209
2 209 210
2 210 211
2 12 73
2 73 79
2 79 85
2 85 91
2 91 97
2 97 103
2 103 109
2 109 115
2 115 121
2 121 127
2 127 133
2 133 151
2 24 74
2 74 80
2 80 86
2 86 92
2 92 98
2 98 104
2 104 110
2 110 116
2 116 122
2 122 128
2 128 134
2 134 163
2 36 75
2 75 81
2 81 87
2 87 93
2 93 99
2 99 105
2 105 111
2 111 117
2 117 123
2 123 129
2 129 135
2 135 175
2 48 76
2 76 82
2 82 88
2 88 94
2 94 100
2 100 106
2 106 112
2 112 118
2 118 124
2 124 130
2 130 136
2 136 187
2 60 77
2 77 83
2 83 89
2 89 95
2 95 101
2 101 107
2 107 113
2 113 119
2 119 125
2 125 131
2 131 137
2 137 199
2 72 78
2 78 84
2 84 90
2 90 96
2 96 102
2 102 108
2 108 114
2 114 120
2 120 126
2 126 132
2 132 138
2 138 211

CELL_TYPES 216
3
3
3
3
3
3
3
3
3
3
3
3
3
3
3
3
3
3
3
3
3
3
3
3
3
3
3
3
3
3
3
3
3
3
3
3
3
3
3
3
3
3
3
3
3
3
3
3
3
3
3
3
3
3
3
3
3
3
3
3
3
3
3
3
3
3
3
3
3
3
3
3
3
3
3
3
3
3
3
3
3
3
3
3
3
3
3
3
3
3
3
3
3
3
3
3
3
3
3
3
3
3
3
3
3
3
3
3
3
3
3
3
3
3
3
3
3
3
3
3
3
3
3
3
3
3
3
3
3
3
3
3
3
3
3
3
3
3
3
3
3
3
3
3
3
3
3
3
3
3
3
3
3
3
3
3
3
3
3
3
3
3
3
3
3
3
3
3
3
3
3
3
3
3
3
3
3
3
3
3
3
3
3
3
3
3
3
3
3
3
3
3
3
3
3
3
3
3
3
3
3
3
3
3
3
3
3
3
3
3
3
3
3
3
3
3
POINT_DATA 212
FIELD FieldData 3
ADJOINT_DISPLACEMENT 3 212  float
0.0000000e+00 0.0000000e+00 0.0000000e+00 
-1.3344848e-03 0.0000000e+00 1.5669016e-16 
-2.6552724e-03 0.0000000e+00 3.1338033e-16 
-3.9486652e-03 0.0000000e+00 4.7007046e-16 
-5.2009663e-03 0.0000000e+00 6.2676065e-16 
-6.3984785e-03 0.0000000e+00 7.8345079e-16 
-7.5275041e-03 0.0000000e+00 9.4014093e-16 
-8.5743461e-03 0.0000000e+00 1.0968311e-15 
-9.5253065e-03 0.0000000e+00 1.2535213e-15 
-1.0366689e-02 0.0000000e+00 1.4102114e-15 
-1.1084796e-02 0.0000000e+00 1.5669016e-15 
-1.1665930e-02 0.0000000e+00 1.7235918e-15 
-1.2096394e-02 0.0000000e+00 1.8802819e-15 
-1.2493600e-02 0.0000000e+00 1.9673122e-05 
-1.3066494e-02 0.0000000e+00 3.9346243e-05 
-1.3938677e-02 0.0000000e+00 5.9019363e-05 
-1.5233750e-02 0.0000000e+00 7.8692487e-05 
-1.7075317e-02 0.0000000e+00 9.8365606e-05 
-1.9586977e-02 0.0000000e+00 1.1803873e-04 
-2.2892330e-02 0.0000000e+00 1.3771185e-04 
-2.7114982e-02 0.0000000e+00 1.5738497e-04 
-3.2378532e-02 0.0000000e+00 1.7705809e-04 
-3.8806580e-02 0.0000000e+00 1.9673121e-04 
-4.6522733e-02 0.0000000e+00 2.1640434e-04 
-5.5650584e-02 0.0000000e+00 2.3607745e-04 
-6.6962250e-02 0.0000000e+00 3.3478756e-04 
-8.0670260e-02 0.0000000e+00 4.3349768e-04 
-9.6058883e-02 0.0000000e+00 5.3220778e-04 
-1.1241238e-01 0.0000000e+00 6.3091790e-04 
-1.2901501e-01 0.0000000e+00 7.2962802e-04 
-1.4515103e-01 0.0000000e+00 8.2833815e-04 
-1.6010472e-01 0.0000000e+00 9.2704821e-04 
-1.7316031e-01 0.0000000e+00 1.0257583e-03 
-1.8360208e-01 0.0000000e+00 1.1244685e-03 
-1.9071430e-01 0.0000000e+00 1.2231786e-03 
-1.9378120e-01 0.0000000e+00 1.3218886e-03 
-1.9208705e-01 0.0000000e+00 1.4205988e-03 
-1.8670818e-01 0.0000000e+00 1.8962048e-03 
-1.7941396e-01 0.0000000e+00 2.3718108e-03 
-1.7052825e-01 0.0000000e+00 2.8474168e-03 
-1.6037494e-01 0.0000000e+00 3.3230227e-03 
-1.4927790e-01 0.0000000e+00 3.7986289e-03 
-1.3756101e-01 0.0000000e+00 4.2742346e-03 
-1.2554812e-01 0.0000000e+00 4.7498406e-03 
-1.1356314e-01 0.0000000e+00 5.2254470e-03 
-1.0192991e-01 0.0000000e+00 5.7010530e-03 
-9.0972327e-02 0.0000000e+00 6.1766589e-03 
-8.1014253e-02 0.0000000e+00 6.6522649e-03 
-7.2379567e-02 0.0000000e+00 7.1278708e-03 
-6.3310817e-02 0.0000000e+00 7.2265808e-03 
-5.2111305e-02 0.0000000e+00 7.3252912e-03 
-3.9196070e-02 0.0000000e+00 7.4240011e-03 
-2.4980141e-02 0.0000000e+00 7.5227111e-03 
-9.8785451e-03 0.0000000e+00 7.6214215e-03 
5.6936885e-03 0.0000000e+00 7.7201314e-03 
2.1321530e-02 0.0000000e+00 7.8188414e-03 
3.6589950e-02 0.0000000e+00 7.9175513e-03 
5.1083915e-02 0.0000000e+00 8.0162622e-03 
6.4388402e-02 0.0000000e+00 8.1149722e-03 
7.6088376e-02 0.0000000e+00 8.2136821e-03 
8.5768811e-02 0.0000000e+00 8.3123920e-03 
9.3797907e-02 0.0000000e+00 8.3320653e-03 
1.0086571e-01 0.0000000e+00 8.3517386e-03 
1.0703994e-01 0.0000000e+00 8.3714118e-03 
1.1238834e-01 0.0000000e+00 8.3910851e-03 
1.1697862e-01 0.0000000e+00 8.4107574e-03 
1.2087853e-01 0.0000000e+00 8.4304307e-03 
1.2415580e-01 0.0000000e+00 8.4501039e-03 
1.2687816e-01 0.0000000e+00 8.4697772e-03 
1.2911333e-01 0.0000000e+00 8.4894504e-03 
1.3092905e-01 0.0000000e+00 8.5091237e-03 
1.3239306e-01 0.0000000e+00 8.5287970e-03 
1.3357307e-01 0.0000000e+00 8.5484693e-03 
-1.2327207e-02 0.0000000e+00 2.9942565e-04 
-5.4239564e-02 0.0000000e+00 1.6957687e-02 
-1.9383475e-01 0.0000000e+00 -1.3083134e-02 
-7.2532810e-02 0.0000000e+00 -8.1395579e-04 
8.6580388e-02 0.0000000e+00 -6.0665444e-03 
1.3345921e-01 0.0000000e+00 6.8285884e-03 
-1.2558022e-02 0.0000000e+00 -7.9722879e-05 
-5.2828547e-02 0.0000000e+00 2.8124388e-02 
-1.9558246e-01 0.0000000e+00 -3.6949959e-02 
-7.2686054e-02 0.0000000e+00 4.4292766e-03 
8.7391958e-02 0.0000000e+00 -1.5575558e-02 
1.3334535e-01 0.0000000e+00 5.7865018e-03 
-1.2788835e-02 0.0000000e+00 -9.5020561e-04 
-5.1417526e-02 0.0000000e+00 3.4488421e-02 
-1.9733016e-01 0.0000000e+00 -6.6592753e-02 
-7.2839290e-02 0.0000000e+00 1.9270442e-02 
8.8203527e-02 0.0000000e+00 -2.0966886e-02 
1.3323149e-01 0.0000000e+00 5.2349693e-03 
-1.3019648e-02 0.0000000e+00 -2.1247827e-03 
-5.0006505e-02 0.0000000e+00 3.6802020e-02 
-1.9907786e-01 0.0000000e+00 -9.8424383e-02 
-7.2992533e-02 0.0000000e+00 4.0122416e-02 
8.9015096e-02 0.0000000e+00 -2.2992767e-02 
1.3311763e-01 0.0000000e+00 4.9867514e-03 
-1.3250462e-02 0.0000000e+00 -3.4162139e-03 
-4.8595484e-02 0.0000000e+00 3.5817426e-02 
-2.0082556e-01 0.0000000e+00 -1.2885773e-01 
-7.3145777e-02 0.0000000e+00 6.3398071e-02 
8.9826666e-02 0.0000000e+00 -2.2405442e-02 
1.3300376e-01 0.0000000e+00 4.8546074e-03 
-1.3481276e-02 0.0000000e+00 -4.6372600e-03 
-4.7184464e-02 0.0000000e+00 3.2286879e-02 
-2.0257325e-01 0.0000000e+00 -1.5430567e-01 
-7.3299021e-02 0.0000000e+00 8.5510276e-02 
9.0638243e-02 0.0000000e+00 -1.9957148e-02 
1.3288990e-01 0.0000000e+00 4.6512983e-03 
-1.3712090e-02 0.0000000e+00 -5.6006801e-03 
-4.5773447e-02 0.0000000e+00 2.6962617e-02 
-2.0432095e-01 0.0000000e+00 -1.7118107e-01 
-7.3452264e-02 0.0000000e+00 1.0287192e-01 
9.1449812e-02 0.0000000e+00 -1.6400121e-02 
1.3277604e-01 0.0000000e+00 4.1895835e-03 
-1.3942903e-02 0.0000000e+00 -6.1192350e-03 
-4.4362426e-02 0.0000000e+00 2.0596879e-02 
-2.0606865e-01 0.0000000e+00 -1.7589681e-01 
-7.3605500e-02 0.0000000e+00 1.1189585e-01 
9.2261381e-02 0.0000000e+00 -1.2486605e-02 
1.3266218e-01 0.0000000e+00 3.2822234e-03 
-1.4173717e-02 0.0000000e+00 -6.0056839e-03 
-4.2951405e-02 0.0000000e+00 1.3941900e-02 
-2.0781635e-01 0.0000000e+00 -1.6486575e-01 
-7.3758744e-02 0.0000000e+00 1.0899498e-01 
9.3072951e-02 0.0000000e+00 -8.9688348e-03 
1.3254832e-01 0.0000000e+00 1.7419781e-03 
-1.4404531e-02 0.0000000e+00 -5.0727879e-03 
-4.1540384e-02 0.0000000e+00 7.7499226e-03 
-2.0956405e-01 0.0000000e+00 -1.3450079e-01 
-7.3911987e-02 0.0000000e+00 9.0582140e-02 
9.3884520e-02 0.0000000e+00 -6.5990505e-03 
1.3243444e-01 0.0000000e+00 -6.1839260e-04 
-1.4635344e-02 0.0000000e+00 -3.1333065e-03 
-4.0129367e-02 0.0000000e+00 2.7731836e-03 
-2.1131174e-01 0.0000000e+00 -8.1214778e-02 
-7.4065231e-02 0.0000000e+00 5.3070236e-02 
9.4696090e-02 0.0000000e+00 -6.1294897e-03 
1.3232058e-01 0.0000000e+00 -3.9861286e-03 
0.0000000e+00 0.0000000e+00 0.0000000e+00 
-9.1239449e-04 0.0000000e+00 -1.1830651e-16 
-1.8384862e-03 0.0000000e+00 -2.3661966e-16 
-2.7919726e-03 0.0000000e+00 -3.5493031e-16 
-3.7865508e-03 0.0000000e+00 -4.7322121e-16 
-4.8359181e-03 0.0000000e+00 -5.9156495e-16 
-5.9537720e-03 0.0000000e+00 -7.0988301e-16 
-7.1538095e-03 0.0000000e+00 -8.2815909e-16 
-8.4497277e-03 0.0000000e+00 -9.4643173e-16 
-9.8552248e-03 0.0000000e+00 -1.0647443e-15 
-1.1383997e-02 0.0000000e+00 -1.1830655e-15 
-1.3049742e-02 0.0000000e+00 -1.3014218e-15 
-1.4866157e-02 0.0000000e+00 -1.4196704e-15 
-1.6996691e-02 0.0000000e+00 -1.9673122e-05 
-1.9513255e-02 0.0000000e+00 -3.9346243e-05 
-2.2292251e-02 0.0000000e+00 -5.9019363e-05 
-2.5210077e-02 0.0000000e+00 -7.8692487e-05 
-2.8143130e-02 0.0000000e+00 -9.8365606e-05 
-3.0967807e-02 0.0000000e+00 -1.1803873e-04 
-3.3560511e-02 0.0000000e+00 -1.3771185e-04 
-3.5797637e-02 0.0000000e+00 -1.5738497e-04 
-3.7555587e-02 0.0000000e+00 -1.7705809e-04 
-3.8710754e-02 0.0000000e+00 -1.9673121e-04 
-3.9139543e-02 0.0000000e+00 -2.1640434e-04 
-3.8718347e-02 0.0000000e+00 -2.3607745e-04 
-3.7803419e-02 0.0000000e+00 -3.3478756e-04 
-3.7310578e-02 0.0000000e+00 -4.3349768e-04 
-3.7955560e-02 0.0000000e+00 -5.3220778e-04 
-4.0454105e-02 0.0000000e+00 -6.3091790e-04 
-4.5521948e-02 0.0000000e+00 -7.2962802e-04 
-5.3874839e-02 0.0000000e+00 -8.2833815e-04 
-6.6228509e-02 0.0000000e+00 -9.2704821e-04 
-8.3298698e-02 0.0000000e+00 -1.0257583e-03 
-1.0580114e-01 0.0000000e+00 -1.1244685e-03 
-1.3445160e-01 0.0000000e+00 -1.2231786e-03 
-1.6996579e-01 0.0000000e+00 -1.3218886e-03 
-2.1305946e-01 0.0000000e+00 -1.4205988e-03 
-2.6803696e-01 0.0000000e+00 -1.8962048e-03 
-3.3850968e-01 0.0000000e+00 -2.3718108e-03 
-4.2415366e-01 0.0000000e+00 -2.8474168e-03 
-5.2464503e-01 0.0000000e+00 -3.3230227e-03 
-6.3966000e-01 0.0000000e+00 -3.7986289e-03 
-5.1887465e-01 0.0000000e+00 -4.2742346e-03 
-4.1196504e-01 0.0000000e+00 -4.7498406e-03 
-3.1860739e-01 0.0000000e+00 -5.2254470e-03 
-2.3847777e-01 0.0000000e+00 -5.7010530e-03 
-1.7125233e-01 0.0000000e+00 -6.1766589e-03 
-1.1660718e-01 0.0000000e+00 -6.6522649e-03 
-7.4218467e-02 0.0000000e+00 -7.1278708e-03 
-4.0462952e-02 0.0000000e+00 -7.2265808e-03 
-1.1656622e-02 0.0000000e+00 -7.3252912e-03 
1.2615545e-02 0.0000000e+00 -7.4240011e-03 
3.2768581e-02 0.0000000e+00 -7.5227111e-03 
4.9217515e-02 0.0000000e+00 -7.6214215e-03 
6.2377375e-02 0.0000000e+00 -7.7201314e-03 
7.2663188e-02 0.0000000e+00 -7.8188414e-03 
8.0489993e-02 0.0000000e+00 -7.9175513e-03 
8.6272813e-02 0.0000000e+00 -8.0162622e-03 
9.0426676e-02 0.0000000e+00 -8.1149722e-03 
9.3366623e-02 0.0000000e+00 -8.2136821e-03 
9.5507666e-02 0.0000000e+00 -8.3123920e-03 
9.7609967e-02 0.0000000e+00 -8.3320653e-03 
1.0011186e-01 0.0000000e+00 -8.3517386e-03 
1.0294559e-01 0.0000000e+00 -8.3714118e-03 
1.0604344e-01 0.0000000e+00 -8.3910851e-03 
1.0933767e-01 0.0000000e+00 -8.4107574e-03 
1.1276056e-01 0.0000000e+00 -8.4304307e-03 
1.1624438e-01 0.0000000e+00 -8.4501039e-03 
1.1972138e-01 0.0000000e+00 -8.4697772e-03 
1.2312385e-01 0.0000000e+00 -8.4894504e-03 
1.2638405e-01 0.0000000e+00 -8.5091237e-03 
1.2943426e-01 0.0000000e+00 -8.5287970e-03 
1.3220672e-01 0.0000000e+00 -8.5484693e-03 
ADJOINT_ROTATION 3 212  float
0.0000000e+00 -5.3470707e-03 0.0000000e+00 
0.0000000e+00 -5.3196764e-03 0.0000000e+00 
0.0000000e+00 -5.2374927e-03 0.0000000e+00 
0.0000000e+00 -5.1005199e-03 0.0000000e+00 
0.0000000e+00 -4.9087577e-03 0.0000000e+00 
0.0000000e+00 -4.6622064e-03 0.0000000e+00 
0.0000000e+00 -4.3608663e-03 0.0000000e+00 
0.0000000e+00 -4.0047369e-03 0.0000000e+00 
0.0000000e+00 -3.5938181e-03 0.0000000e+00 
0.0000000e+00 -3.1281102e-03 0.0000000e+00 
0.0000000e+00 -2.6076133e-03 0.0000000e+00 
0.0000000e+00 -2.0323272e-03 0.0000000e+00 
0.0000000e+00 -1.4022521e-03 0.0000000e+00 
0.0000000e+00 -1.8577995e-03 0.0000000e+00 
0.0000000e+00 -2.8077529e-03 0.0000000e+00 
0.0000000e+00 -4.2521125e-03 0.0000000e+00 
0.0000000e+00 -6.1908779e-03 0.0000000e+00 
0.0000000e+00 -8.6240498e-03 0.0000000e+00 
0.0000000e+00 -1.1551627e-02 0.0000000e+00 
0.0000000e+00 -1.4973611e-02 0.0000000e+00 
0.0000000e+00 -1.8890001e-02 0.0000000e+00 
0.0000000e+00 -2.3300797e-02 0.0000000e+00 
0.0000000e+00 -2.8205998e-02 0.0000000e+00 
0.0000000e+00 -3.3605605e-02 0.0000000e+00 
0.0000000e+00 -3.9499622e-02 0.0000000e+00 
0.0000000e+00 -5.0516509e-02 0.0000000e+00 
0.0000000e+00 -5.8670435e-02 0.0000000e+00 
0.0000000e+00 -6.3961409e-02 0.0000000e+00 
0.0000000e+00 -6.6389419e-02 0.0000000e+00 
0.0000000e+00 -6.5954477e-02 0.0000000e+00 
0.0000000e+00 -6.2656574e-02 0.0000000e+00 
0.0000000e+00 -5.6495711e-02 0.0000000e+00 
0.0000000e+00 -4.7471892e-02 0.0000000e+00 
0.0000000e+00 -3.5585117e-02 0.0000000e+00 
0.0000000e+00 -2.0835383e-02 0.0000000e+00 
0.0000000e+00 -3.2226930e-03 0.0000000e+00 
0.0000000e+00 1.7252956e-02 0.0000000e+00 
0.0000000e+00 2.5562117e-02 0.0000000e+00 
0.0000000e+00 3.2575779e-02 0.0000000e+00 
0.0000000e+00 3.8293947e-02 0.0000000e+00 
0.0000000e+00 4.2716619e-02 0.0000000e+00 
0.0000000e+00 4.5843795e-02 0.0000000e+00 
0.0000000e+00 4.7675475e-02 0.0000000e+00 
0.0000000e+00 4.8211657e-02 0.0000000e+00 
0.0000000e+00 4.7452345e-02 0.0000000e+00 
0.0000000e+00 4.5397535e-02 0.0000000e+00 
0.0000000e+00 4.2047229e-02 0.0000000e+00 
0.0000000e+00 3.7401427e-02 0.0000000e+00 
0.0000000e+00 3.1460129e-02 0.0000000e+00 
0.0000000e+00 4.0813208e-02 0.0000000e+00 
0.0000000e+00 4.8506171e-02 0.0000000e+00 
0.0000000e+00 5.4539014e-02 0.0000000e+00 
0.0000000e+00 5.8911741e-02 0.0000000e+00 
0.0000000e+00 6.1624348e-02 0.0000000e+00 
0.0000000e+00 6.2676840e-02 0.0000000e+00 
0.0000000e+00 6.2069207e-02 0.0000000e+00 
0.0000000e+00 5.9801459e-02 0.0000000e+00 
0.0000000e+00 5.5873595e-02 0.0000000e+00 
0.0000000e+00 5.0285611e-02 0.0000000e+00 
0.0000000e+00 4.3037508e-02 0.0000000e+00 
0.0000000e+00 3.4129288e-02 0.0000000e+00 
0.0000000e+00 3.0148635e-02 0.0000000e+00 
0.0000000e+00 2.6438903e-02 0.0000000e+00 
0.0000000e+00 2.3000095e-02 0.0000000e+00 
0.0000000e+00 1.9832211e-02 0.0000000e+00 
0.0000000e+00 1.6935250e-02 0.0000000e+00 
0.0000000e+00 1.4309213e-02 0.0000000e+00 
0.0000000e+00 1.1954098e-02 0.0000000e+00 
0.0000000e+00 9.8699080e-03 0.0000000e+00 
0.0000000e+00 8.0566416e-03 0.0000000e+00 
0.0000000e+00 6.5142983e-03 0.0000000e+00 
0.0000000e+00 5.2428790e-03 0.0000000e+00 
0.0000000e+00 4.2423829e-03 0.0000000e+00 
0.0000000e+00 1.4213620e-04 0.0000000e+00 
0.0000000e+00 -2.7637566e-02 0.0000000e+00 
0.0000000e+00 3.9566267e-02 0.0000000e+00 
0.0000000e+00 1.5028856e-03 0.0000000e+00 
0.0000000e+00 2.3637203e-02 0.0000000e+00 
0.0000000e+00 2.6995547e-03 0.0000000e+00 
0.0000000e+00 1.3120446e-03 0.0000000e+00 
0.0000000e+00 -1.7279986e-02 0.0000000e+00 
0.0000000e+00 5.4705326e-02 0.0000000e+00 
0.0000000e+00 -2.1280106e-02 0.0000000e+00 
0.0000000e+00 1.4649595e-02 0.0000000e+00 
0.0000000e+00 1.5312060e-03 0.0000000e+00 
0.0000000e+00 2.1074731e-03 0.0000000e+00 
0.0000000e+00 -8.4268851e-03 0.0000000e+00 
0.0000000e+00 6.2670134e-02 0.0000000e+00 
0.0000000e+00 -3.6888845e-02 0.0000000e+00 
0.0000000e+00 7.1664639e-03 0.0000000e+00 
0.0000000e+00 7.3733734e-04 0.0000000e+00 
0.0000000e+00 2.5284218e-03 0.0000000e+00 
0.0000000e+00 -1.0782608e-03 0.0000000e+00 
0.0000000e+00 6.3460693e-02 0.0000000e+00 
0.0000000e+00 -4.5323335e-02 0.0000000e+00 
0.0000000e+00 1.1878100e-03 0.0000000e+00 
0.0000000e+00 3.1794852e-04 0.0000000e+00 
0.0000000e+00 2.5748904e-03 0.0000000e+00 
0.0000000e+00 4.7658863e-03 0.0000000e+00 
0.0000000e+00 5.7076994e-02 0.0000000e+00 
0.0000000e+00 -4.6583571e-02 0.0000000e+00 
0.0000000e+00 -3.2863666e-03 0.0000000e+00 
0.0000000e+00 2.7303959e-04 0.0000000e+00 
0.0000000e+00 2.2468793e-03 0.0000000e+00 
0.0000000e+00 9.1055557e-03 0.0000000e+00 
0.0000000e+00 4.3519046e-02 0.0000000e+00 
0.0000000e+00 -4.0669557e-02 0.0000000e+00 
0.0000000e+00 -6.2560663e-03 0.0000000e+00 
0.0000000e+00 6.0261058e-04 0.0000000e+00 
0.0000000e+00 1.5443882e-03 0.0000000e+00 
0.0000000e+00 1.1940748e-02 0.0000000e+00 
0.0000000e+00 2.2786845e-02 0.0000000e+00 
0.0000000e+00 -2.7581288e-02 0.0000000e+00 
0.0000000e+00 -7.7212881e-03 0.0000000e+00 
0.0000000e+00 1.3066614e-03 0.0000000e+00 
0.0000000e+00 4.6741735e-04 0.0000000e+00 
0.0000000e+00 1.3271464e-02 0.0000000e+00 
0.0000000e+00 -5.1196078e-03 0.0000000e+00 
0.0000000e+00 -7.3187673e-03 0.0000000e+00 
0.0000000e+00 -7.6820333e-03 0.0000000e+00 
0.0000000e+00 2.3851921e-03 0.0000000e+00 
0.0000000e+00 -9.8403345e-04 0.0000000e+00 
0.0000000e+00 1.3097702e-02 0.0000000e+00 
0.0000000e+00 -4.0200312e-02 0.0000000e+00 
0.0000000e+00 2.0118004e-02 0.0000000e+00 
0.0000000e+00 -6.1383010e-03 0.0000000e+00 
0.0000000e+00 3.8382027e-03 0.0000000e+00 
0.0000000e+00 -2.8099641e-03 0.0000000e+00 
0.0000000e+00 1.1419463e-02 0.0000000e+00 
0.0000000e+00 -8.2455270e-02 0.0000000e+00 
0.0000000e+00 5.4729030e-02 0.0000000e+00 
0.0000000e+00 -3.0900913e-03 0.0000000e+00 
0.0000000e+00 5.6656934e-03 0.0000000e+00 
0.0000000e+00 -5.0103748e-03 0.0000000e+00 
0.0000000e+00 8.2367463e-03 0.0000000e+00 
0.0000000e+00 -1.3188447e-01 0.0000000e+00 
0.0000000e+00 9.6514307e-02 0.0000000e+00 
0.0000000e+00 1.4625954e-03 0.0000000e+00 
0.0000000e+00 7.8676641e-03 0.0000000e+00 
0.0000000e+00 -3.6404463e-03 0.0000000e+00 
0.0000000e+00 -3.6678410e-03 0.0000000e+00 
0.0000000e+00 -3.7500246e-03 0.0000000e+00 
0.0000000e+00 -3.8869975e-03 0.0000000e+00 
0.0000000e+00 -4.0787593e-03 0.0000000e+00 
0.0000000e+00 -4.3253107e-03 0.0000000e+00 
0.0000000e+00 -4.6266508e-03 0.0000000e+00 
0.0000000e+00 -4.9827807e-03 0.0000000e+00 
0.0000000e+00 -5.3936993e-03 0.0000000e+00 
0.0000000e+00 -5.8594071e-03 0.0000000e+00 
0.0000000e+00 -6.3799038e-03 0.0000000e+00 
0.0000000e+00 -6.9551901e-03 0.0000000e+00 
0.0000000e+00 -7.5852652e-03 0.0000000e+00 
0.0000000e+00 -9.3765967e-03 0.0000000e+00 
0.0000000e+00 -1.0673523e-02 0.0000000e+00 
0.0000000e+00 -1.1476043e-02 0.0000000e+00 
0.0000000e+00 -1.1784157e-02 0.0000000e+00 
0.0000000e+00 -1.1597864e-02 0.0000000e+00 
0.0000000e+00 -1.0917165e-02 0.0000000e+00 
0.0000000e+00 -9.7420616e-03 0.0000000e+00 
0.0000000e+00 -8.0725504e-03 0.0000000e+00 
0.0000000e+00 -5.9086340e-03 0.0000000e+00 
0.0000000e+00 -3.2503114e-03 0.0000000e+00 
0.0000000e+00 -9.7582481e-05 0.0000000e+00 
0.0000000e+00 3.5495523e-03 0.0000000e+00 
0.0000000e+00 3.2926954e-03 0.0000000e+00 
0.0000000e+00 1.7288061e-04 0.0000000e+00 
0.0000000e+00 -5.8098920e-03 0.0000000e+00 
0.0000000e+00 -1.4655622e-02 0.0000000e+00 
0.0000000e+00 -2.6364310e-02 0.0000000e+00 
0.0000000e+00 -4.0935956e-02 0.0000000e+00 
0.0000000e+00 -5.8370557e-02 0.0000000e+00 
0.0000000e+00 -7.8668118e-02 0.0000000e+00 
0.0000000e+00 -1.0182863e-01 0.0000000e+00 
0.0000000e+00 -1.2785211e-01 0.0000000e+00 
0.0000000e+00 -1.5673855e-01 0.0000000e+00 
0.0000000e+00 -1.8848793e-01 0.0000000e+00 
0.0000000e+00 -2.5111637e-01 0.0000000e+00 
0.0000000e+00 -3.1244928e-01 0.0000000e+00 
0.0000000e+00 -3.7248668e-01 0.0000000e+00 
0.0000000e+00 -4.3122861e-01 0.0000000e+00 
0.0000000e+00 -4.8867506e-01 0.0000000e+00 
0.0000000e+00 4.5517403e-01 0.0000000e+00 
0.0000000e+00 4.0031856e-01 0.0000000e+00 
0.0000000e+00 3.4675863e-01 0.0000000e+00 
0.0000000e+00 2.9449418e-01 0.0000000e+00 
0.0000000e+00 2.4352524e-01 0.0000000e+00 
0.0000000e+00 1.9385178e-01 0.0000000e+00 
0.0000000e+00 1.4547384e-01 0.0000000e+00 
0.0000000e+00 1.2484701e-01 0.0000000e+00 
0.0000000e+00 1.0588031e-01 0.0000000e+00 
0.0000000e+00 8.8573717e-02 0.0000000e+00 
0.0000000e+00 7.2927251e-02 0.0000000e+00 
0.0000000e+00 5.8940902e-02 0.0000000e+00 
0.0000000e+00 4.6614669e-02 0.0000000e+00 
0.0000000e+00 3.5948556e-02 0.0000000e+00 
0.0000000e+00 2.6942560e-02 0.0000000e+00 
0.0000000e+00 1.9596683e-02 0.0000000e+00 
0.0000000e+00 1.3910923e-02 0.0000000e+00 
0.0000000e+00 9.8852823e-03 0.0000000e+00 
0.0000000e+00 7.5197597e-03 0.0000000e+00 
0.0000000e+00 9.2535354e-03 0.0000000e+00 
0.0000000e+00 1.0716387e-02 0.0000000e+00 
0.0000000e+00 1.1908316e-02 0.0000000e+00 
0.0000000e+00 1.2829321e-02 0.0000000e+00 
0.0000000e+00 1.3479402e-02 0.0000000e+00 