# vtk DataFile Version 4.0
vtk output
ASCII
DATASET UNSTRUCTURED_GRID
POINTS 30 float
0.0000000e+00 0.0000000e+00 0.0000000e+00 
0.0000000e+00 0.0000000e+00 8.0000001e-01 
0.0000000e+00 0.0000000e+00 1.6000000e+00 
0.0000000e+00 0.0000000e+00 2.4000001e+00 
0.0000000e+00 0.0000000e+00 3.2000000e+00 
0.0000000e+00 0.0000000e+00 4.0000000e+00 
0.0000000e+00 0.0000000e+00 4.8000002e+00 
0.0000000e+00 0.0000000e+00 5.5999999e+00 
0.0000000e+00 0.0000000e+00 6.4000001e+00 
0.0000000e+00 0.0000000e+00 7.1999998e+00 
0.0000000e+00 0.0000000e+00 8.0000000e+00 
1.0000000e+01 0.0000000e+00 0.0000000e+00 
1.0000000e+01 0.0000000e+00 8.0000001e-01 
1.0000000e+01 0.0000000e+00 1.6000000e+00 
1.0000000e+01 0.0000000e+00 2.4000001e+00 
1.0000000e+01 0.0000000e+00 3.2000000e+00 
1.0000000e+01 0.0000000e+00 4.0000000e+00 
1.0000000e+01 0.0000000e+00 4.8000002e+00 
1.0000000e+01 0.0000000e+00 5.5999999e+00 
1.0000000e+01 0.0000000e+00 6.4000001e+00 
1.0000000e+01 0.0000000e+00 7.1999998e+00 
1.0000000e+01 0.0000000e+00 8.0000000e+00 
2.0000000e+00 0.0000000e+00 4.0000000e+00 
4.0000000e+00 0.0000000e+00 4.0000000e+00 
6.0000000e+00 0.0000000e+00 4.0000000e+00 
8.0000000e+00 0.0000000e+00 4.0000000e+00 
2.0000000e+00 0.0000000e+00 8.0000000e+00 
4.0000000e+00 0.0000000e+00 8.0000000e+00 
6.0000000e+00 0.0000000e+00 8.0000000e+00 
8.0000000e+00 0.0000000e+00 8.0000000e+00 

CELLS 30 90
2 0 1
2 1 2
2 2 3
2 3 4
2 4 5
2 5 6
2 6 7
2 7 8
2 8 9
2 9 10
2 11 12
2 12 13
2 13 14
2 14 15
2 15 16
2 16 17
2 17 18
2 18 19
2 19 20
2 20 21
2 5 22
2 22 23
2 23 24
2 24 25
2 25 16
2 10 26
2 26 27
2 27 28
2 28 29
2 29 21

CELL_TYPES 30
3
3
3
3
3
3
3
3
3
3
3
3
3
3
3
3
3
3
3
3
3
3
3
3
3
3
3
3
3
3
POINT_DATA 30
FIELD FieldData 7
DISPLACEMENT 3 30  float
0.0000000e+00 0.0000000e+00 0.0000000e+00 
-1.4013193e-03 0.0000000e+00 7.8840485e-06 
-2.6651302e-03 0.0000000e+00 1.2286172e-05 
-3.6403884e-03 0.0000000e+00 1.6740363e-05 
-4.2776135e-03 0.0000000e+00 1.8432289e-05 
-4.6317386e-03 0.0000000e+00 1.8414556e-05 
-4.9397764e-03 0.0000000e+00 2.1963853e-05 
-5.4104277e-03 0.0000000e+00 2.1801552e-05 
-5.9809322e-03 0.0000000e+00 1.9315268e-05 
-6.5719890e-03 0.0000000e+00 1.6828984e-05 
-7.0857471e-03 0.0000000e+00 1.5499172e-05 
0.0000000e+00 0.0000000e+00 0.0000000e+00 
-1.2202937e-03 0.0000000e+00 7.7605227e-06 
-2.3538559e-03 0.0000000e+00 1.5521045e-05 
-3.3240318e-03 0.0000000e+00 2.2391812e-05 
-4.0944745e-03 0.0000000e+00 2.9262579e-05 
-4.6644402e-03 0.0000000e+00 3.8463895e-05 
-5.1848418e-03 0.0000000e+00 4.7302350e-05 
-5.7362956e-03 0.0000000e+00 5.6140805e-05 
-6.2948428e-03 0.0000000e+00 6.6803492e-05 
-6.7937523e-03 0.0000000e+00 7.4042138e-05 
-7.1180179e-03 0.0000000e+00 7.8593475e-05 
-4.6317298e-03 0.0000000e+00 -1.6515116e-04 
-4.6391739e-03 0.0000000e+00 -6.5985956e-04 
-4.6475958e-03 0.0000000e+00 -9.4273040e-04 
-4.6560182e-03 0.0000000e+00 -7.9059205e-04 
-7.0906850e-03 0.0000000e+00 4.8648109e-04 
-7.0984839e-03 0.0000000e+00 4.7729150e-04 
-7.1062827e-03 0.0000000e+00 2.9682470e-04 
-7.1140816e-03 0.0000000e+00 5.3248888e-05 
ROTATION 3 30  float
0.0000000e+00 -1.7784418e-03 0.0000000e+00 
0.0000000e+00 -1.6980637e-03 0.0000000e+00 
0.0000000e+00 -1.4235419e-03 0.0000000e+00 
0.0000000e+00 -1.0042776e-03 0.0000000e+00 
0.0000000e+00 -6.0615869e-04 0.0000000e+00 
0.0000000e+00 -2.8865092e-04 0.0000000e+00 
0.0000000e+00 -4.9090764e-04 0.0000000e+00 
0.0000000e+00 -6.6780258e-04 0.0000000e+00 
0.0000000e+00 -7.4221723e-04 0.0000000e+00 
0.0000000e+00 -7.1918295e-04 0.0000000e+00 
0.0000000e+00 -5.2410649e-04 0.0000000e+00 
0.0000000e+00 -1.5434361e-03 0.0000000e+00 
0.0000000e+00 -1.4892289e-03 0.0000000e+00 
0.0000000e+00 -1.3266074e-03 0.0000000e+00 
0.0000000e+00 -1.0933597e-03 0.0000000e+00 
0.0000000e+00 -8.2727394e-04 0.0000000e+00 
0.0000000e+00 -6.2407547e-04 0.0000000e+00 
0.0000000e+00 -6.7341945e-04 0.0000000e+00 
0.0000000e+00 -7.0170534e-04 0.0000000e+00 
0.0000000e+00 -6.8226299e-04 0.0000000e+00 
0.0000000e+00 -5.3470407e-04 0.0000000e+00 
0.0000000e+00 -2.6582638e-04 0.0000000e+00 
0.0000000e+00 2.7404810e-04 0.0000000e+00 
0.0000000e+00 2.0986966e-04 0.0000000e+00 
0.0000000e+00 5.2842155e-05 0.0000000e+00 
0.0000000e+00 -2.2513955e-04 0.0000000e+00 
0.0000000e+00 -5.6252531e-05 0.0000000e+00 
0.0000000e+00 5.6428111e-05 0.0000000e+00 
0.0000000e+00 1.1502467e-04 0.0000000e+00 
0.0000000e+00 1.1953714e-04 0.0000000e+00 
REACTION 3 30  float
7.9122241e+03 -0.0000000e+00 -2.0695627e+04 
-1.0913936e-11 -0.0000000e+00 -3.6379788e-12 
3.6743586e-10 -0.0000000e+00 7.2759576e-12 
-2.7375791e-10 -0.0000000e+00 -4.5474735e-12 
-1.2732926e-10 -0.0000000e+00 -1.8189894e-12 
8.2945917e-10 -0.0000000e+00 3.0195224e-10 
1.7789716e-09 -0.0000000e+00 1.8553692e-10 
5.2750693e-10 -0.0000000e+00 -4.1836756e-11 
-3.3760443e-09 -0.0000000e+00 7.2759576e-12 
-7.7488949e-10 -0.0000000e+00 -9.0949470e-13 
1.3142198e-09 -0.0000000e+00 -0.0000000e+00 
5.3360186e+03 -0.0000000e+00 -2.0371373e+04 
-1.7462298e-10 -0.0000000e+00 -0.0000000e+00 
-7.1941031e-10 -0.0000000e+00 -1.4551915e-11 
5.2386895e-10 -0.0000000e+00 3.6379788e-11 
5.6934368e-10 -0.0000000e+00 2.5465852e-11 
1.6880222e-09 -0.0000000e+00 6.0390448e-10 
1.4551915e-10 -0.0000000e+00 -1.4551915e-11 
-3.1513991e-10 -0.0000000e+00 -1.8189894e-11 
4.4565240e-10 -0.0000000e+00 5.9299055e-10 
-2.9103830e-11 -0.0000000e+00 -0.0000000e+00 
1.7462298e-10 -0.0000000e+00 1.1186785e-10 
1.5552359e-10 -0.0000000e+00 -6.1481842e-10 
-1.1605152e-09 -0.0000000e+00 4.3655746e-11 
-0.0000000e+00 -0.0000000e+00 1.8189894e-12 
-9.3132257e-10 -0.0000000e+00 2.3646862e-11 
2.3283064e-10 -0.0000000e+00 9.5496944e-12 
9.3132257e-10 -0.0000000e+00 -1.3642421e-12 
-0.0000000e+00 -0.0000000e+00 -6.4210326e-10 
-1.4515535e-09 -0.0000000e+00 1.8189894e-12 
REACTION_MOMENT 3 30  float
-0.0000000e+00 -2.0372681e-10 -0.0000000e+00 
-0.0000000e+00 -4.3655746e-11 -0.0000000e+00 
-0.0000000e+00 -7.2759576e-11 -0.0000000e+00 
-0.0000000e+00 6.5483619e-11 -0.0000000e+00 
-0.0000000e+00 -1.5752448e-09 -0.0000000e+00 
-0.0000000e+00 -1.8153514e-09 -0.0000000e+00 
-0.0000000e+00 -1.8189894e-10 -0.0000000e+00 
-0.0000000e+00 6.4028427e-10 -0.0000000e+00 
-0.0000000e+00 1.7389539e-09 -0.0000000e+00 
-0.0000000e+00 -6.4028427e-10 -0.0000000e+00 
-0.0000000e+00 -3.2741809e-11 -0.0000000e+00 
-0.0000000e+00 8.7311491e-11 -0.0000000e+00 
-0.0000000e+00 -4.3655746e-11 -0.0000000e+00 
-0.0000000e+00 1.0186341e-10 -0.0000000e+00 
-0.0000000e+00 3.0559022e-10 -0.0000000e+00 
-0.0000000e+00 -2.1827873e-10 -0.0000000e+00 
-0.0000000e+00 5.4569682e-11 -0.0000000e+00 
-0.0000000e+00 -9.4587449e-11 -0.0000000e+00 
-0.0000000e+00 -1.1568773e-09 -0.0000000e+00 
-0.0000000e+00 -2.9831426e-10 -0.0000000e+00 
-0.0000000e+00 1.7462298e-10 -0.0000000e+00 
-0.0000000e+00 7.2759576e-12 -0.0000000e+00 
-0.0000000e+00 -8.7311491e-11 -0.0000000e+00 
-0.0000000e+00 5.9344529e-11 -0.0000000e+00 
-0.0000000e+00 4.9567461e-11 -0.0000000e+00 
-0.0000000e+00 3.6379788e-12 -0.0000000e+00 
-0.0000000e+00 5.9117156e-12 -0.0000000e+00 
-0.0000000e+00 5.0022209e-12 -0.0000000e+00 
-0.0000000e+00 2.2737368e-12 -0.0000000e+00 
-0.0000000e+00 -2.7284841e-12 -0.0000000e+00 
VOLUME_ACCELERATION 3 30  float
0.0000000e+00 0.0000000e+00 0.0000000e+00 
0.0000000e+00 0.0000000e+00 0.0000000e+00 
0.0000000e+00 0.0000000e+00 0.0000000e+00 
0.0000000e+00 0.0000000e+00 0.0000000e+00 
0.0000000e+00 0.0000000e+00 0.0000000e+00 
0.0000000e+00 0.0000000e+00 0.0000000e+00 
0.0000000e+00 0.0000000e+00 0.0000000e+00 
0.0000000e+00 0.0000000e+00 0.0000000e+00 
0.0000000e+00 0.0000000e+00 0.0000000e+00 
0.0000000e+00 0.0000000e+00 0.0000000e+00 
0.0000000e+00 0.0000000e+00 0.0000000e+00 
0.0000000e+00 0.0000000e+00 0.0000000e+00 
0.0000000e+00 0.0000000e+00 0.0000000e+00 
0.0000000e+00 0.0000000e+00 0.0000000e+00 
0.0000000e+00 0.0000000e+00 0.0000000e+00 
0.0000000e+00 0.0000000e+00 0.0000000e+00 
0.0000000e+00 0.0000000e+00 0.0000000e+00 
0.0000000e+00 0.0000000e+00 0.0000000e+00 
0.0000000e+00 0.0000000e+00 0.0000000e+00 
0.0000000e+00 0.0000000e+00 0.0000000e+00 
0.0000000e+00 0.0000000e+00 0.0000000e+00 
0.0000000e+00 0.0000000e+00 0.0000000e+00 
0.0000000e+00 0.0000000e+00 0.0000000e+00 
0.0000000e+00 0.0000000e+00 0.0000000e+00 
0.0000000e+00 0.0000000e+00 0.0000000e+00 
0.0000000e+00 0.0000000e+00 0.0000000e+00 
0.0000000e+00 0.0000000e+00 0.0000000e+00 
0.0000000e+00 0.0000000e+00 0.0000000e+00 
0.0000000e+00 0.0000000e+00 0.0000000e+00 
0.0000000e+00 0.0000000e+00 0.0000000e+00 
POINT_LOAD 3 30  float
0.0000000e+00 0.0000000e+00 0.0000000e+00 
3.2865623e+03 0.0000000e+00 9.1400537e+03 
-8.1494761e+03 0.0000000e+00 -1.3667963e+02 
-8.1801187e+03 0.0000000e+00 7.2509468e+03 
2.3264529e+03 0.0000000e+00 4.4878594e+03 
0.0000000e+00 0.0000000e+00 0.0000000e+00 
8.0866182e+03 0.0000000e+00 9.7429492e+03 
-4.9526715e+02 0.0000000e+00 6.1004551e+03 
0.0000000e+00 0.0000000e+00 0.0000000e+00 
7.3427617e+03 0.0000000e+00 -3.0357358e+03 
-6.9543291e+03 0.0000000e+00 1.6773081e+03 
0.0000000e+00 0.0000000e+00 0.0000000e+00 
0.0000000e+00 0.0000000e+00 0.0000000e+00 
-3.7197708e+03 0.0000000e+00 2.3356113e+03 
0.0000000e+00 0.0000000e+00 0.0000000e+00 
-9.4229639e+03 0.0000000e+00 -6.1176953e+03 
0.0000000e+00 0.0000000e+00 0.0000000e+00 
0.0000000e+00 0.0000000e+00 0.0000000e+00 
2.6253423e+03 0.0000000e+00 -4.7886162e+03 
5.2878882e+03 0.0000000e+00 8.9881104e+03 
-5.9570542e+03 0.0000000e+00 7.0541865e+03 
-7.1255918e+03 0.0000000e+00 6.2326270e+03 
7.8256851e+03 0.0000000e+00 -8.8536035e+03 
1.0268055e+03 0.0000000e+00 4.4265598e+02 
0.0000000e+00 0.0000000e+00 0.0000000e+00 
0.0000000e+00 0.0000000e+00 0.0000000e+00 
3.0041084e+03 0.0000000e+00 -4.7421553e+03 
0.0000000e+00 0.0000000e+00 0.0000000e+00 
0.0000000e+00 0.0000000e+00 0.0000000e+00 
-4.0558960e+03 0.0000000e+00 5.2887227e+03 
POINT_MOMENT 3 30  float
0.0000000e+00 0.0000000e+00 0.0000000e+00 
0.0000000e+00 0.0000000e+00 0.0000000e+00 
0.0000000e+00 0.0000000e+00 0.0000000e+00 
0.0000000e+00 0.0000000e+00 0.0000000e+00 
0.0000000e+00 0.0000000e+00 0.0000000e+00 
0.0000000e+00 0.0000000e+00 0.0000000e+00 
0.0000000e+00 0.0000000e+00 0.0000000e+00 
0.0000000e+00 0.0000000e+00 0.0000000e+00 
0.0000000e+00 0.0000000e+00 0.0000000e+00 
0.0000000e+00 0.0000000e+00 0.0000000e+00 
0.0000000e+00 0.0000000e+00 0.0000000e+00 
0.0000000e+00 0.0000000e+00 0.0000000e+00 
0.0000000e+00 0.0000000e+00 0.0000000e+00 
0.0000000e+00 0.0000000e+00 0.0000000e+00 
0.0000000e+00 0.0000000e+00 0.0000000e+00 
0.0000000e+00 0.0000000e+00 0.0000000e+00 
0.0000000e+00 0.0000000e+00 0.0000000e+00 
0.0000000e+00 0.0000000e+00 0.0000000e+00 
0.0000000e+00 0.0000000e+00 0.0000000e+00 
0.0000000e+00 0.0000000e+00 0.0000000e+00 
0.0000000e+00 0.0000000e+00 0.0000000e+00 
0.0000000e+00 0.0000000e+00 0.0000000e+00 
0.0000000e+00 0.0000000e+00 0.0000000e+00 
0.0000000e+00 0.0000000e+00 0.0000000e+00 
0.0000000e+00 0.0000000e+00 0.0000000e+00 
0.0000000e+00 0.0000000e+00 0.0000000e+00 
0.0000000e+00 0.0000000e+00 0.0000000e+00 
0.0000000e+00 0.0000000e+00 0.0000000e+00 
0.0000000e+00 0.0000000e+00 0.0000000e+00 
0.0000000e+00 0.0000000e+00 0.0000000e+00 
CELL_DATA 30
FIELD FieldData 9
YOUNG_MODULUS 1 30  float
2.1000000e+11
2.1000000e+11
2.1000000e+11
2.1000000e+11
2.1000000e+11
2.1000000e+11
2.1000000e+11
2.1000000e+11
2.1000000e+11
2.1000000e+11
2.1000000e+11
2.1000000e+11
2.1000000e+11
2.1000000e+11
2.1000000e+11
2.1000000e+11
2.1000000e+11
2.1000000e+11
2.1000000e+11
2.1000000e+11
2.1000000e+11
2.1000000e+11
2.1000000e+11
2.1000000e+11
2.1000000e+11
2.1000000e+11
2.1000000e+11
2.1000000e+11
2.1000000e+11
2.1000000e+11
DENSITY 1 30  float
7.8500000e+03
7.8500000e+03
7.8500000e+03
7.8500000e+03
7.8500000e+03
7.8500000e+03
7.8500000e+03
7.8500000e+03
7.8500000e+03
7.8500000e+03
7.8500000e+03
7.8500000e+03
7.8500000e+03
7.8500000e+03
7.8500000e+03
7.8500000e+03
7.8500000e+03
7.8500000e+03
7.8500000e+03
7.8500000e+03
7.8500000e+03
7.8500000e+03
7.8500000e+03
7.8500000e+03
7.8500000e+03
7.8500000e+03
7.8500000e+03
7.8500000e+03
7.8500000e+03
7.8500000e+03
CROSS_AREA 1 30  float
9.9999998e-03
9.9999998e-03
9.9999998e-03
9.9999998e-03
9.9999998e-03
9.9999998e-03
9.9999998e-03
9.9999998e-03
9.9999998e-03
9.9999998e-03
9.9999998e-03
9.9999998e-03
9.9999998e-03
9.9999998e-03
9.9999998e-03
9.9999998e-03
9.9999998e-03
9.9999998e-03
9.9999998e-03
9.9999998e-03
9.9999998e-03
9.9999998e-03
9.9999998e-03
9.9999998e-03
9.9999998e-03
9.9999998e-03
9.9999998e-03
9.9999998e-03
9.9999998e-03
9.9999998e-03
I22 1 30  float
1.5000001e-04
1.5000001e-04
1.5000001e-04
1.5000001e-04
1.5000001e-04
1.5000001e-04
1.5000001e-04
1.5000001e-04
1.5000001e-04
1.5000001e-04
1.5000001e-04
1.5000001e-04
1.5000001e-04
1.5000001e-04
1.5000001e-04
1.5000001e-04
1.5000001e-04
1.5000001e-04
1.5000001e-04
1.5000001e-04
1.5000001e-04
1.5000001e-04
1.5000001e-04
1.5000001e-04
1.5000001e-04
1.5000001e-04
1.5000001e-04
1.5000001e-04
1.5000001e-04
1.5000001e-04
I33 1 30  float
1.5000001e-04
1.5000001e-04
1.5000001e-04
1.5000001e-04
1.5000001e-04
1.5000001e-04
1.5000001e-04
1.5000001e-04
1.5000001e-04
1.5000001e-04
1.5000001e-04
1.5000001e-04
1.5000001e-04
1.5000001e-04
1.5000001e-04
1.5000001e-04
1.5000001e-04
1.5000001e-04
1.5000001e-04
1.5000001e-04
1.5000001e-04
1.5000001e-04
1.5000001e-04
1.5000001e-04
1.5000001e-04
1.5000001e-04
1.5000001e-04
1.5000001e-04
1.5000001e-04
1.5000001e-04
TORSIONAL_INERTIA 1 30  float
3.0000001e-04
3.0000001e-04
3.0000001e-04
3.0000001e-04
3.0000001e-04
3.0000001e-04
3.0000001e-04
3.0000001e-04
3.0000001e-04
3.0000001e-04
3.0000001e-04
3.0000001e-04
3.0000001e-04
3.0000001e-04
3.0000001e-04
3.0000001e-04
3.0000001e-04
3.0000001e-04
3.0000001e-04
3.0000001e-04
3.0000001e-04
3.0000001e-04
3.0000001e-04
3.0000001e-04
3.0000001e-04
3.0000001e-04
3.0000001e-04
3.0000001e-04
3.0000001e-04
3.0000001e-04
POISSON_RATIO 1 30  float
3.0000001e-01
3.0000001e-01
3.0000001e-01
3.0000001e-01
3.0000001e-01
3.0000001e-01
3.0000001e-01
3.0000001e-01
3.0000001e-01
3.0000001e-01
3.0000001e-01
3.0000001e-01
3.0000001e-01
3.0000001e-01
3.0000001e-01
3.0000001e-01
3.0000001e-01
3.0000001e-01
3.0000001e-01
3.0000001e-01
3.0000001e-01
3.0000001e-01
3.0000001e-01
3.0000001e-01
3.0000001e-01
3.0000001e-01
3.0000001e-01
3.0000001e-01
3.0000001e-01
3.0000001e-01
MOMENT 3 30  float
0.0000000e+00 3.1648896e+03 0.0000000e+00 
0.0000000e+00 1.0809294e+04 0.0000000e+00 
0.0000000e+00 1.6508533e+04 0.0000000e+00 
0.0000000e+00 1.5675934e+04 0.0000000e+00 
0.0000000e+00 1.2501868e+04 0.0000000e+00 
0.0000000e+00 -7.9638589e+03 0.0000000e+00 
0.0000000e+00 -6.9652383e+03 0.0000000e+00 
0.0000000e+00 -2.9300774e+03 0.0000000e+00 
0.0000000e+00 9.0697656e+02 0.0000000e+00 
0.0000000e+00 7.6811353e+03 0.0000000e+00 
0.0000000e+00 2.1344075e+03 0.0000000e+00 
0.0000000e+00 6.4032222e+03 0.0000000e+00 
0.0000000e+00 9.1841289e+03 0.0000000e+00 
0.0000000e+00 1.0477127e+04 0.0000000e+00 
0.0000000e+00 8.0009399e+03 0.0000000e+00 
0.0000000e+00 -1.9429197e+03 0.0000000e+00 
0.0000000e+00 -1.1137573e+03 0.0000000e+00 
0.0000000e+00 7.6554193e+02 0.0000000e+00 
0.0000000e+00 5.8101333e+03 0.0000000e+00 
0.0000000e+00 1.0587059e+04 0.0000000e+00 
0.0000000e+00 8.8625098e+03 0.0000000e+00 
0.0000000e+00 -1.0108106e+03 0.0000000e+00 
0.0000000e+00 -2.4731833e+03 0.0000000e+00 
0.0000000e+00 -4.3782119e+03 0.0000000e+00 
0.0000000e+00 -6.2832402e+03 0.0000000e+00 
0.0000000e+00 7.3686997e+03 0.0000000e+00 
0.0000000e+00 1.7747201e+03 0.0000000e+00 
0.0000000e+00 9.2289581e+02 0.0000000e+00 
0.0000000e+00 7.1071457e+01 0.0000000e+00 
0.0000000e+00 -6.0694756e+03 0.0000000e+00 
FORCE 3 30  float
2.0695627e+04 0.0000000e+00 7.9122241e+03 
1.1555573e+04 0.0000000e+00 1.1198786e+04 
1.1692253e+04 0.0000000e+00 3.0493103e+03 
4.4413062e+03 0.0000000e+00 -5.1308081e+03 
-4.6553230e+01 0.0000000e+00 -2.8043552e+03 
9.3169092e+03 0.0000000e+00 -2.7950334e+03 
-4.2604010e+02 0.0000000e+00 5.2915845e+03 
-6.5264951e+03 0.0000000e+00 4.7963174e+03 
-6.5264951e+03 0.0000000e+00 4.7963174e+03 
-3.4907593e+03 0.0000000e+00 1.2139079e+04 
2.0371373e+04 0.0000000e+00 5.3360186e+03 
2.0371373e+04 0.0000000e+00 5.3360186e+03 
1.8035762e+04 0.0000000e+00 1.6162478e+03 
1.8035762e+04 0.0000000e+00 1.6162478e+03 
2.4153457e+04 0.0000000e+00 -7.8067158e+03 
2.3200941e+04 0.0000000e+00 1.0364530e+03 
2.3200941e+04 0.0000000e+00 1.0364530e+03 
2.7989559e+04 0.0000000e+00 3.6617954e+03 
1.9001447e+04 0.0000000e+00 8.9496836e+03 
1.1947262e+04 0.0000000e+00 2.9926294e+03 
9.3218899e+00 0.0000000e+00 -9.3634619e+03 
-7.8163633e+03 0.0000000e+00 -5.0985834e+02 
-8.8431689e+03 0.0000000e+00 -9.5251428e+02 
-8.8431689e+03 0.0000000e+00 -9.5251428e+02 
-8.8431689e+03 0.0000000e+00 -9.5251428e+02 
-5.1847505e+03 0.0000000e+00 -5.1680674e+03 
-8.1888589e+03 0.0000000e+00 -4.2591217e+02 
-8.1888589e+03 0.0000000e+00 -4.2591217e+02 
-8.1888589e+03 0.0000000e+00 -4.2591217e+02 
-4.1329629e+03 0.0000000e+00 -5.7146348e+03 
