# vtk DataFile Version 4.0
vtk output
ASCII
DATASET UNSTRUCTURED_GRID
POINTS 212 float
0.0000000e+00 0.0000000e+00 0.0000000e+00 
0.0000000e+00 0.0000000e+00 2.5000000e-01 
0.0000000e+00 0.0000000e+00 5.0000000e-01 
0.0000000e+00 0.0000000e+00 7.5000000e-01 
0.0000000e+00 0.0000000e+00 1.0000000e+00 
0.0000000e+00 0.0000000e+00 1.2500000e+00 
0.0000000e+00 0.0000000e+00 1.5000000e+00 
0.0000000e+00 0.0000000e+00 1.7500000e+00 
0.0000000e+00 0.0000000e+00 2.0000000e+00 
0.0000000e+00 0.0000000e+00 2.2500000e+00 
0.0000000e+00 0.0000000e+00 2.5000000e+00 
0.0000000e+00 0.0000000e+00 2.7500000e+00 
0.0000000e+00 0.0000000e+00 3.0000000e+00 
0.0000000e+00 0.0000000e+00 3.2500000e+00 
0.0000000e+00 0.0000000e+00 3.5000000e+00 
0.0000000e+00 0.0000000e+00 3.7500000e+00 
0.0000000e+00 0.0000000e+00 4.0000000e+00 
0.0000000e+00 0.0000000e+00 4.2500000e+00 
0.0000000e+00 0.0000000e+00 4.5000000e+00 
0.0000000e+00 0.0000000e+00 4.7500000e+00 
0.0000000e+00 0.0000000e+00 5.0000000e+00 
0.0000000e+00 0.0000000e+00 5.2500000e+00 
0.0000000e+00 0.0000000e+00 5.5000000e+00 
0.0000000e+00 0.0000000e+00 5.7500000e+00 
0.0000000e+00 0.0000000e+00 6.0000000e+00 
0.0000000e+00 0.0000000e+00 6.2500000e+00 
0.0000000e+00 0.0000000e+00 6.5000000e+00 
0.0000000e+00 0.0000000e+00 6.7500000e+00 
0.0000000e+00 0.0000000e+00 7.0000000e+00 
0.0000000e+00 0.0000000e+00 7.2500000e+00 
0.0000000e+00 0.0000000e+00 7.5000000e+00 
0.0000000e+00 0.0000000e+00 7.7500000e+00 
0.0000000e+00 0.0000000e+00 8.0000000e+00 
0.0000000e+00 0.0000000e+00 8.2500000e+00 
0.0000000e+00 0.0000000e+00 8.5000000e+00 
0.0000000e+00 0.0000000e+00 8.7500000e+00 
0.0000000e+00 0.0000000e+00 9.0000000e+00 
0.0000000e+00 0.0000000e+00 9.2500000e+00 
0.0000000e+00 0.0000000e+00 9.5000000e+00 
0.0000000e+00 0.0000000e+00 9.7500000e+00 
0.0000000e+00 0.0000000e+00 1.0000000e+01 
0.0000000e+00 0.0000000e+00 1.0250000e+01 
0.0000000e+00 0.0000000e+00 1.0500000e+01 
0.0000000e+00 0.0000000e+00 1.0750000e+01 
0.0000000e+00 0.0000000e+00 1.1000000e+01 
0.0000000e+00 0.0000000e+00 1.1250000e+01 
0.0000000e+00 0.0000000e+00 1.1500000e+01 
0.0000000e+00 0.0000000e+00 1.1750000e+01 
0.0000000e+00 0.0000000e+00 1.2000000e+01 
0.0000000e+00 0.0000000e+00 1.2250000e+01 
0.0000000e+00 0.0000000e+00 1.2500000e+01 
0.0000000e+00 0.0000000e+00 1.2750000e+01 
0.0000000e+00 0.0000000e+00 1.3000000e+01 
0.0000000e+00 0.0000000e+00 1.3250000e+01 
0.0000000e+00 0.0000000e+00 1.3500000e+01 
0.0000000e+00 0.0000000e+00 1.3750000e+01 
0.0000000e+00 0.0000000e+00 1.4000000e+01 
0.0000000e+00 0.0000000e+00 1.4250000e+01 
0.0000000e+00 0.0000000e+00 1.4500000e+01 
0.0000000e+00 0.0000000e+00 1.4750000e+01 
0.0000000e+00 0.0000000e+00 1.5000000e+01 
0.0000000e+00 0.0000000e+00 1.5250000e+01 
0.0000000e+00 0.0000000e+00 1.5500000e+01 
0.0000000e+00 0.0000000e+00 1.5750000e+01 
0.0000000e+00 0.0000000e+00 1.6000000e+01 
0.0000000e+00 0.0000000e+00 1.6250000e+01 
0.0000000e+00 0.0000000e+00 1.6500000e+01 
0.0000000e+00 0.0000000e+00 1.6750000e+01 
0.0000000e+00 0.0000000e+00 1.7000000e+01 
0.0000000e+00 0.0000000e+00 1.7250000e+01 
0.0000000e+00 0.0000000e+00 1.7500000e+01 
0.0000000e+00 0.0000000e+00 1.7750000e+01 
0.0000000e+00 0.0000000e+00 1.8000000e+01 
5.0000000e-01 0.0000000e+00 3.0000000e+00 
5.0000000e-01 0.0000000e+00 6.0000000e+00 
5.0000000e-01 0.0000000e+00 9.0000000e+00 
5.0000000e-01 0.0000000e+00 1.2000000e+01 
5.0000000e-01 0.0000000e+00 1.5000000e+01 
5.0000000e-01 0.0000000e+00 1.8000000e+01 
1.0000000e+00 0.0000000e+00 3.0000000e+00 
1.0000000e+00 0.0000000e+00 6.0000000e+00 
1.0000000e+00 0.0000000e+00 9.0000000e+00 
1.0000000e+00 0.0000000e+00 1.2000000e+01 
1.0000000e+00 0.0000000e+00 1.5000000e+01 
1.0000000e+00 0.0000000e+00 1.8000000e+01 
1.5000000e+00 0.0000000e+00 3.0000000e+00 
1.5000000e+00 0.0000000e+00 6.0000000e+00 
1.5000000e+00 0.0000000e+00 9.0000000e+00 
1.5000000e+00 0.0000000e+00 1.2000000e+01 
1.5000000e+00 0.0000000e+00 1.5000000e+01 
1.5000000e+00 0.0000000e+00 1.8000000e+01 
2.0000000e+00 0.0000000e+00 3.0000000e+00 
2.0000000e+00 0.0000000e+00 6.0000000e+00 
2.0000000e+00 0.0000000e+00 9.0000000e+00 
2.0000000e+00 0.0000000e+00 1.2000000e+01 
2.0000000e+00 0.0000000e+00 1.5000000e+01 
2.0000000e+00 0.0000000e+00 1.8000000e+01 
2.5000000e+00 0.0000000e+00 3.0000000e+00 
2.5000000e+00 0.0000000e+00 6.0000000e+00 
2.5000000e+00 0.0000000e+00 9.0000000e+00 
2.5000000e+00 0.0000000e+00 1.2000000e+01 
2.5000000e+00 0.0000000e+00 1.5000000e+01 
2.5000000e+00 0.0000000e+00 1.8000000e+01 
3.0000000e+00 0.0000000e+00 3.0000000e+00 
3.0000000e+00 0.0000000e+00 6.0000000e+00 
3.0000000e+00 0.0000000e+00 9.0000000e+00 
3.0000000e+00 0.0000000e+00 1.2000000e+01 
3.0000000e+00 0.0000000e+00 1.5000000e+01 
3.0000000e+00 0.0000000e+00 1.8000000e+01 
3.5000000e+00 0.0000000e+00 3.0000000e+00 
3.5000000e+00 0.0000000e+00 6.0000000e+00 
3.5000000e+00 0.0000000e+00 9.0000000e+00 
3.5000000e+00 0.0000000e+00 1.2000000e+01 
3.5000000e+00 0.0000000e+00 1.5000000e+01 
3.5000000e+00 0.0000000e+00 1.8000000e+01 
4.0000000e+00 0.0000000e+00 3.0000000e+00 
4.0000000e+00 0.0000000e+00 6.0000000e+00 
4.0000000e+00 0.0000000e+00 9.0000000e+00 
4.0000000e+00 0.0000000e+00 1.2000000e+01 
4.0000000e+00 0.0000000e+00 1.5000000e+01 
4.0000000e+00 0.0000000e+00 1.8000000e+01 
4.5000000e+00 0.0000000e+00 3.0000000e+00 
4.5000000e+00 0.0000000e+00 6.0000000e+00 
4.5000000e+00 0.0000000e+00 9.0000000e+00 
4.5000000e+00 0.0000000e+00 1.2000000e+01 
4.5000000e+00 0.0000000e+00 1.5000000e+01 
4.5000000e+00 0.0000000e+00 1.8000000e+01 
5.0000000e+00 0.0000000e+00 3.0000000e+00 
5.0000000e+00 0.0000000e+00 6.0000000e+00 
5.0000000e+00 0.0000000e+00 9.0000000e+00 
5.0000000e+00 0.0000000e+00 1.2000000e+01 
5.0000000e+00 0.0000000e+00 1.5000000e+01 
5.0000000e+00 0.0000000e+00 1.8000000e+01 
5.5000000e+00 0.0000000e+00 3.0000000e+00 
5.5000000e+00 0.0000000e+00 6.0000000e+00 
5.5000000e+00 0.0000000e+00 9.0000000e+00 
5.5000000e+00 0.0000000e+00 1.2000000e+01 
5.5000000e+00 0.0000000e+00 1.5000000e+01 
5.5000000e+00 0.0000000e+00 1.8000000e+01 
6.0000000e+00 0.0000000e+00 0.0000000e+00 
6.0000000e+00 0.0000000e+00 2.5000000e-01 
6.0000000e+00 0.0000000e+00 5.0000000e-01 
6.0000000e+00 0.0000000e+00 7.5000000e-01 
6.0000000e+00 0.0000000e+00 1.0000000e+00 
6.0000000e+00 0.0000000e+00 1.2500000e+00 
6.0000000e+00 0.0000000e+00 1.5000000e+00 
6.0000000e+00 0.0000000e+00 1.7500000e+00 
6.0000000e+00 0.0000000e+00 2.0000000e+00 
6.0000000e+00 0.0000000e+00 2.2500000e+00 
6.0000000e+00 0.0000000e+00 2.5000000e+00 
6.0000000e+00 0.0000000e+00 2.7500000e+00 
6.0000000e+00 0.0000000e+00 3.0000000e+00 
6.0000000e+00 0.0000000e+00 3.2500000e+00 
6.0000000e+00 0.0000000e+00 3.5000000e+00 
6.0000000e+00 0.0000000e+00 3.7500000e+00 
6.0000000e+00 0.0000000e+00 4.0000000e+00 
6.0000000e+00 0.0000000e+00 4.2500000e+00 
6.0000000e+00 0.0000000e+00 4.5000000e+00 
6.0000000e+00 0.0000000e+00 4.7500000e+00 
6.0000000e+00 0.0000000e+00 5.0000000e+00 
6.0000000e+00 0.0000000e+00 5.2500000e+00 
6.0000000e+00 0.0000000e+00 5.5000000e+00 
6.0000000e+00 0.0000000e+00 5.7500000e+00 
6.0000000e+00 0.0000000e+00 6.0000000e+00 
6.0000000e+00 0.0000000e+00 6.2500000e+00 
6.0000000e+00 0.0000000e+00 6.5000000e+00 
6.0000000e+00 0.0000000e+00 6.7500000e+00 
6.0000000e+00 0.0000000e+00 7.0000000e+00 
6.0000000e+00 0.0000000e+00 7.2500000e+00 
6.0000000e+00 0.0000000e+00 7.5000000e+00 
6.0000000e+00 0.0000000e+00 7.7500000e+00 
6.0000000e+00 0.0000000e+00 8.0000000e+00 
6.0000000e+00 0.0000000e+00 8.2500000e+00 
6.0000000e+00 0.0000000e+00 8.5000000e+00 
6.0000000e+00 0.0000000e+00 8.7500000e+00 
6.0000000e+00 0.0000000e+00 9.0000000e+00 
6.0000000e+00 0.0000000e+00 9.2500000e+00 
6.0000000e+00 0.0000000e+00 9.5000000e+00 
6.0000000e+00 0.0000000e+00 9.7500000e+00 
6.0000000e+00 0.0000000e+00 1.0000000e+01 
6.0000000e+00 0.0000000e+00 1.0250000e+01 
6.0000000e+00 0.0000000e+00 1.0500000e+01 
6.0000000e+00 0.0000000e+00 1.0750000e+01 
6.0000000e+00 0.0000000e+00 1.1000000e+01 
6.0000000e+00 0.0000000e+00 1.1250000e+01 
6.0000000e+00 0.0000000e+00 1.1500000e+01 
6.0000000e+00 0.0000000e+00 1.1750000e+01 
6.0000000e+00 0.0000000e+00 1.2000000e+01 
6.0000000e+00 0.0000000e+00 1.2250000e+01 
6.0000000e+00 0.0000000e+00 1.2500000e+01 
6.0000000e+00 0.0000000e+00 1.2750000e+01 
6.0000000e+00 0.0000000e+00 1.3000000e+01 
6.0000000e+00 0.0000000e+00 1.3250000e+01 
6.0000000e+00 0.0000000e+00 1.3500000e+01 
6.0000000e+00 0.0000000e+00 1.3750000e+01 
6.0000000e+00 0.0000000e+00 1.4000000e+01 
6.0000000e+00 0.0000000e+00 1.4250000e+01 
6.0000000e+00 0.0000000e+00 1.4500000e+01 
6.0000000e+00 0.0000000e+00 1.4750000e+01 
6.0000000e+00 0.0000000e+00 1.5000000e+01 
6.0000000e+00 0.0000000e+00 1.5250000e+01 
6.0000000e+00 0.0000000e+00 1.5500000e+01 
6.0000000e+00 0.0000000e+00 1.5750000e+01 
6.0000000e+00 0.0000000e+00 1.6000000e+01 
6.0000000e+00 0.0000000e+00 1.6250000e+01 
6.0000000e+00 0.0000000e+00 1.6500000e+01 
6.0000000e+00 0.0000000e+00 1.6750000e+01 
6.0000000e+00 0.0000000e+00 1.7000000e+01 
6.0000000e+00 0.0000000e+00 1.7250000e+01 
6.0000000e+00 0.0000000e+00 1.7500000e+01 
6.0000000e+00 0.0000000e+00 1.7750000e+01 
6.0000000e+00 0.0000000e+00 1.8000000e+01 

CELLS 216 648
2 0 1
2 1 2
2 2 3
2 3 4
2 4 5
2 5 6
2 6 7
2 7 8
2 8 9
2 9 10
2 10 11
2 11 12
2 12 13
2 13 14
2 14 15
2 15 16
2 16 17
2 17 18
2 18 19
2 19 20
2 20 21
2 21 22
2 22 23
2 23 24
2 24 25
2 25 26
2 26 27
2 27 28
2 28 29
2 29 30
2 30 31
2 31 32
2 32 33
2 33 34
2 34 35
2 35 36
2 36 37
2 37 38
2 38 39
2 39 40
2 40 41
2 41 42
2 42 43
2 43 44
2 44 45
2 45 46
2 46 47
2 47 48
2 48 49
2 49 50
2 50 51
2 51 52
2 52 53
2 53 54
2 54 55
2 55 56
2 56 57
2 57 58
2 58 59
2 59 60
2 60 61
2 61 62
2 62 63
2 63 64
2 64 65
2 65 66
2 66 67
2 67 68
2 68 69
2 69 70
2 70 71
2 71 72
2 139 140
2 140 141
2 141 142
2 142 143
2 143 144
2 144 145
2 145 146
2 146 147
2 147 148
2 148 149
2 149 150
2 150 151
2 151 152
2 152 153
2 153 154
2 154 155
2 155 156
2 156 157
2 157 158
2 158 159
2 159 160
2 160 161
2 161 162
2 162 163
2 163 164
2 164 165
2 165 166
2 166 167
2 167 168
2 168 169
2 169 170
2 170 171
2 171 172
2 172 173
2 173 174
2 174 175
2 175 176
2 176 177
2 177 178
2 178 179
2 179 180
2 180 181
2 181 182
2 182 183
2 183 184
2 184 185
2 185 186
2 186 187
2 187 188
2 188 189
2 189 190
2 190 191
2 191 192
2 192 193
2 193 194
2 194 195
2 195 196
2 196 197
2 197 198
2 198 199
2 199 200
2 200 201
2 201 202
2 202 203
2 203 204
2 204 205
2 205 206
2 206 207
2 207 208
2 208 209
2 209 210
2 210 211
2 12 73
2 73 79
2 79 85
2 85 91
2 91 97
2 97 103
2 103 109
2 109 115
2 115 121
2 121 127
2 127 133
2 133 151
2 24 74
2 74 80
2 80 86
2 86 92
2 92 98
2 98 104
2 104 110
2 110 116
2 116 122
2 122 128
2 128 134
2 134 163
2 36 75
2 75 81
2 81 87
2 87 93
2 93 99
2 99 105
2 105 111
2 111 117
2 117 123
2 123 129
2 129 135
2 135 175
2 48 76
2 76 82
2 82 88
2 88 94
2 94 100
2 100 106
2 106 112
2 112 118
2 118 124
2 124 130
2 130 136
2 136 187
2 60 77
2 77 83
2 83 89
2 89 95
2 95 101
2 101 107
2 107 113
2 113 119
2 119 125
2 125 131
2 131 137
2 137 199
2 72 78
2 78 84
2 84 90
2 90 96
2 96 102
2 102 108
2 108 114
2 114 120
2 120 126
2 126 132
2 132 138
2 138 211

CELL_TYPES 216
3
3
3
3
3
3
3
3
3
3
3
3
3
3
3
3
3
3
3
3
3
3
3
3
3
3
3
3
3
3
3
3
3
3
3
3
3
3
3
3
3
3
3
3
3
3
3
3
3
3
3
3
3
3
3
3
3
3
3
3
3
3
3
3
3
3
3
3
3
3
3
3
3
3
3
3
3
3
3
3
3
3
3
3
3
3
3
3
3
3
3
3
3
3
3
3
3
3
3
3
3
3
3
3
3
3
3
3
3
3
3
3
3
3
3
3
3
3
3
3
3
3
3
3
3
3
3
3
3
3
3
3
3
3
3
3
3
3
3
3
3
3
3
3
3
3
3
3
3
3
3
3
3
3
3
3
3
3
3
3
3
3
3
3
3
3
3
3
3
3
3
3
3
3
3
3
3
3
3
3
3
3
3
3
3
3
3
3
3
3
3
3
3
3
3
3
3
3
3
3
3
3
3
3
3
3
3
3
3
3
3
3
3
3
3
3
POINT_DATA 212
FIELD FieldData 3
ADJOINT_DISPLACEMENT 3 212  float
0.0000000e+00 0.0000000e+00 0.0000000e+00 
-9.9187647e-04 0.0000000e+00 1.3078406e-15 
-2.0025033e-03 0.0000000e+00 2.6156812e-15 
-3.0506302e-03 0.0000000e+00 3.9235214e-15 
-4.1550081e-03 0.0000000e+00 5.2313623e-15 
-5.3343866e-03 0.0000000e+00 6.5392028e-15 
-6.6075157e-03 0.0000000e+00 7.8470428e-15 
-7.9931468e-03 0.0000000e+00 9.1548837e-15 
-9.5100291e-03 0.0000000e+00 1.0462725e-14 
-1.1176912e-02 0.0000000e+00 1.1770565e-14 
-1.3012548e-02 0.0000000e+00 1.3078406e-14 
-1.5035685e-02 0.0000000e+00 1.4386246e-14 
-1.7265076e-02 0.0000000e+00 1.5694086e-14 
-1.9914571e-02 0.0000000e+00 6.2417644e-07 
-2.3109986e-02 0.0000000e+00 1.2483529e-06 
-2.6737999e-02 0.0000000e+00 1.8725293e-06 
-3.0685300e-02 0.0000000e+00 2.4967057e-06 
-3.4838568e-02 0.0000000e+00 3.1208822e-06 
-3.9084490e-02 0.0000000e+00 3.7450584e-06 
-4.3309752e-02 0.0000000e+00 4.3692348e-06 
-4.7401030e-02 0.0000000e+00 4.9934115e-06 
-5.1245019e-02 0.0000000e+00 5.6175877e-06 
-5.4728393e-02 0.0000000e+00 6.2417644e-06 
-5.7737842e-02 0.0000000e+00 6.8659406e-06 
-6.0160048e-02 0.0000000e+00 7.4901168e-06 
-6.2548734e-02 0.0000000e+00 1.0611270e-05 
-6.5862328e-02 0.0000000e+00 1.3732424e-05 
-7.0594572e-02 0.0000000e+00 1.6853577e-05 
-7.7239208e-02 0.0000000e+00 1.9974730e-05 
-8.6289972e-02 0.0000000e+00 2.3095883e-05 
-9.8240614e-02 0.0000000e+00 2.6217038e-05 
-1.1358487e-01 0.0000000e+00 2.9338191e-05 
-1.3281648e-01 0.0000000e+00 3.2459346e-05 
-1.5642920e-01 0.0000000e+00 3.5580499e-05 
-1.8491675e-01 0.0000000e+00 3.8701652e-05 
-2.1877289e-01 0.0000000e+00 4.1822805e-05 
-2.5849134e-01 0.0000000e+00 4.4943958e-05 
-2.9820743e-01 0.0000000e+00 4.1815947e-05 
-3.3205667e-01 0.0000000e+00 3.8687936e-05 
-3.6053294e-01 0.0000000e+00 3.5559926e-05 
-3.8413024e-01 0.0000000e+00 3.2431915e-05 
-4.0334252e-01 0.0000000e+00 2.9303905e-05 
-4.1866368e-01 0.0000000e+00 2.6175896e-05 
-4.3058771e-01 0.0000000e+00 2.3047885e-05 
-4.3960857e-01 0.0000000e+00 1.9919875e-05 
-4.4622016e-01 0.0000000e+00 1.6791864e-05 
-4.5091647e-01 0.0000000e+00 1.3663854e-05 
-4.5419145e-01 0.0000000e+00 1.0535843e-05 
-4.5653901e-01 0.0000000e+00 7.4078330e-06 
-4.5891196e-01 0.0000000e+00 6.7562255e-06 
-4.6185771e-01 0.0000000e+00 6.1046180e-06 
-4.6526223e-01 0.0000000e+00 5.4530105e-06 
-4.6901149e-01 0.0000000e+00 4.8014031e-06 
-4.7299138e-01 0.0000000e+00 4.1497956e-06 
-4.7708789e-01 0.0000000e+00 3.4981879e-06 
-4.8118696e-01 0.0000000e+00 2.8465806e-06 
-4.8517454e-01 0.0000000e+00 2.1949731e-06 
-4.8893657e-01 0.0000000e+00 1.5433656e-06 
-4.9235901e-01 0.0000000e+00 8.9175813e-07 
-4.9532780e-01 0.0000000e+00 2.4015065e-07 
-4.9772891e-01 0.0000000e+00 -4.1145680e-07 
-4.9965748e-01 0.0000000e+00 -5.4176695e-07 
-5.0129938e-01 0.0000000e+00 -6.7207714e-07 
-5.0267643e-01 0.0000000e+00 -8.0238732e-07 
-5.0381052e-01 0.0000000e+00 -9.3269745e-07 
-5.0472361e-01 0.0000000e+00 -1.0630076e-06 
-5.0543749e-01 0.0000000e+00 -1.1933178e-06 
-5.0597411e-01 0.0000000e+00 -1.3236280e-06 
-5.0635540e-01 0.0000000e+00 -1.4539381e-06 
-5.0660312e-01 0.0000000e+00 -1.5842483e-06 
-5.0673926e-01 0.0000000e+00 -1.7145585e-06 
-5.0678569e-01 0.0000000e+00 -1.8448686e-06 
-5.0676429e-01 0.0000000e+00 -1.9751787e-06 
-1.7259564e-02 0.0000000e+00 3.8489595e-03 
-6.0185380e-02 0.0000000e+00 2.0852415e-03 
-2.5849134e-01 0.0000000e+00 1.1070777e-01 
-4.5651364e-01 0.0000000e+00 2.0220927e-03 
-4.9773458e-01 0.0000000e+00 3.4450588e-03 
-5.0676334e-01 0.0000000e+00 -1.8162697e-04 
-1.7254053e-02 0.0000000e+00 6.2003299e-03 
-6.0210712e-02 0.0000000e+00 5.9353316e-04 
-2.5849137e-01 0.0000000e+00 2.6984203e-01 
-4.5648828e-01 0.0000000e+00 5.0508342e-04 
-4.9774024e-01 0.0000000e+00 5.5978070e-03 
-5.0676244e-01 0.0000000e+00 -4.9510819e-04 
-1.7248543e-02 0.0000000e+00 7.2934446e-03 
-6.0236044e-02 0.0000000e+00 -3.5101969e-03 
-2.5849137e-01 0.0000000e+00 4.7505155e-01 
-4.5646289e-01 0.0000000e+00 -3.5940714e-03 
-4.9774593e-01 0.0000000e+00 6.6577187e-03 
-5.0676155e-01 0.0000000e+00 -8.9245290e-04 
-1.7243031e-02 0.0000000e+00 7.3676370e-03 
-6.0261372e-02 0.0000000e+00 -9.2685111e-03 
-2.5849137e-01 0.0000000e+00 7.2394013e-01 
-4.5643753e-01 0.0000000e+00 -9.3258219e-03 
-4.9775159e-01 0.0000000e+00 6.8246797e-03 
-5.0676060e-01 0.0000000e+00 -1.3236951e-03 
-1.7237522e-02 0.0000000e+00 6.6622412e-03 
-6.0286704e-02 0.0000000e+00 -1.5723972e-02 
-2.5849137e-01 0.0000000e+00 5.1411164e-01 
-4.5641217e-01 0.0000000e+00 -1.5740620e-02 
-4.9775726e-01 0.0000000e+00 6.2985751e-03 
-5.0675970e-01 0.0000000e+00 -1.7388688e-03 
-1.7232010e-02 0.0000000e+00 5.4165903e-03 
-6.0312036e-02 0.0000000e+00 -2.1919139e-02 
-2.5849140e-01 0.0000000e+00 3.4316987e-01 
-4.5638677e-01 0.0000000e+00 -2.1888917e-02 
-4.9776295e-01 0.0000000e+00 5.2792914e-03 
-5.0675881e-01 0.0000000e+00 -2.0880080e-03 
-1.7226499e-02 0.0000000e+00 3.8700174e-03 
-6.0337368e-02 0.0000000e+00 -2.6896577e-02 
-2.5849140e-01 0.0000000e+00 2.0871866e-01 
-4.5636141e-01 0.0000000e+00 -2.6821163e-02 
-4.9776861e-01 0.0000000e+00 3.9667133e-03 
-5.0675786e-01 0.0000000e+00 -2.3211467e-03 
-1.7220989e-02 0.0000000e+00 2.2618563e-03 
-6.0362697e-02 0.0000000e+00 -2.9698847e-02 
-2.5849140e-01 0.0000000e+00 1.0836184e-01 
-4.5633605e-01 0.0000000e+00 -2.9587807e-02 
-4.9777427e-01 0.0000000e+00 2.5607271e-03 
-5.0675696e-01 0.0000000e+00 -2.3883192e-03 
-1.7215477e-02 0.0000000e+00 8.3144067e-04 
-6.0388029e-02 0.0000000e+00 -2.9368510e-02 
-2.5849143e-01 0.0000000e+00 3.9703246e-02 
-4.5631066e-01 0.0000000e+00 -2.9239304e-02 
-4.9777997e-01 0.0000000e+00 1.2612181e-03 
-5.0675607e-01 0.0000000e+00 -2.2395591e-03 
-1.7209968e-02 0.0000000e+00 -1.8189628e-04 
-6.0413361e-02 0.0000000e+00 -2.4948131e-02 
-2.5849143e-01 0.0000000e+00 3.4669825e-04 
-4.5628530e-01 0.0000000e+00 -2.4826102e-02 
-4.9778563e-01 0.0000000e+00 2.6807215e-04 
-5.0675511e-01 0.0000000e+00 -1.8249007e-03 
-1.7204456e-02 0.0000000e+00 -5.3882098e-04 
-6.0438693e-02 0.0000000e+00 -1.5480271e-02 
-2.5849143e-01 0.0000000e+00 -1.2103974e-02 
-4.5625994e-01 0.0000000e+00 -1.5398653e-02 
-4.9779129e-01 0.0000000e+00 -2.1882530e-04 
-5.0675422e-01 0.0000000e+00 -1.0943779e-03 
0.0000000e+00 0.0000000e+00 0.0000000e+00 
-1.8801253e-03 0.0000000e+00 -1.3119790e-15 
-3.7415002e-03 0.0000000e+00 -2.6239554e-15 
-5.5653751e-03 0.0000000e+00 -3.9359326e-15 
-7.3329988e-03 0.0000000e+00 -5.2479040e-15 
-9.0256222e-03 0.0000000e+00 -6.5598784e-15 
-1.0624494e-02 0.0000000e+00 -7.8718550e-15 
-1.2110866e-02 0.0000000e+00 -9.1838345e-15 
-1.3465985e-02 0.0000000e+00 -1.0495810e-14 
-1.4671103e-02 0.0000000e+00 -1.1807792e-14 
-1.5707469e-02 0.0000000e+00 -1.3119773e-14 
-1.6556334e-02 0.0000000e+00 -1.4431761e-14 
-1.7198946e-02 0.0000000e+00 -1.5743744e-14 
-1.7780451e-02 0.0000000e+00 -6.2417644e-07 
-1.8534040e-02 0.0000000e+00 -1.2483529e-06 
-1.9573027e-02 0.0000000e+00 -1.8725293e-06 
-2.1010732e-02 0.0000000e+00 -2.4967057e-06 
-2.2960465e-02 0.0000000e+00 -3.1208822e-06 
-2.5535548e-02 0.0000000e+00 -3.7450584e-06 
-2.8849293e-02 0.0000000e+00 -4.3692348e-06 
-3.3015016e-02 0.0000000e+00 -4.9934115e-06 
-3.8146038e-02 0.0000000e+00 -5.6175877e-06 
-4.4355664e-02 0.0000000e+00 -6.2417644e-06 
-5.1757224e-02 0.0000000e+00 -6.8659406e-06 
-6.0464021e-02 0.0000000e+00 -7.4901168e-06 
-7.1358502e-02 0.0000000e+00 -1.0611270e-05 
-8.4918387e-02 0.0000000e+00 -1.3732424e-05 
-1.0064993e-01 0.0000000e+00 -1.6853577e-05 
-1.1805940e-01 0.0000000e+00 -1.9974730e-05 
-1.3665307e-01 0.0000000e+00 -2.3095883e-05 
-1.5593715e-01 0.0000000e+00 -2.6217038e-05 
-1.7541794e-01 0.0000000e+00 -2.9338191e-05 
-1.9460170e-01 0.0000000e+00 -3.2459346e-05 
-2.1299466e-01 0.0000000e+00 -3.5580499e-05 
-2.3010311e-01 0.0000000e+00 -3.8701652e-05 
-2.4543327e-01 0.0000000e+00 -4.1822805e-05 
-2.5849146e-01 0.0000000e+00 -4.4943958e-05 
-2.7154800e-01 0.0000000e+00 -4.1815947e-05 
-2.8687325e-01 0.0000000e+00 -3.8687936e-05 
-3.0397326e-01 0.0000000e+00 -3.5559926e-05 
-3.2235402e-01 0.0000000e+00 -3.2431915e-05 
-3.4152162e-01 0.0000000e+00 -2.9303905e-05 
-3.6098212e-01 0.0000000e+00 -2.6175896e-05 
-3.8024157e-01 0.0000000e+00 -2.3047885e-05 
-3.9880598e-01 0.0000000e+00 -1.9919875e-05 
-4.1618145e-01 0.0000000e+00 -1.6791864e-05 
-4.3187398e-01 0.0000000e+00 -1.3663854e-05 
-4.4538969e-01 0.0000000e+00 -1.0535843e-05 
-4.5623457e-01 0.0000000e+00 -7.4078330e-06 
-4.6488020e-01 0.0000000e+00 -6.7562255e-06 
-4.7220346e-01 0.0000000e+00 -6.1046180e-06 
-4.7831839e-01 0.0000000e+00 -5.4530105e-06 
-4.8333907e-01 0.0000000e+00 -4.8014031e-06 
-4.8737952e-01 0.0000000e+00 -4.1497956e-06 
-4.9055383e-01 0.0000000e+00 -3.4981879e-06 
-4.9297598e-01 0.0000000e+00 -2.8465806e-06 
-4.9476010e-01 0.0000000e+00 -2.1949731e-06 
-4.9602020e-01 0.0000000e+00 -1.5433656e-06 
-4.9687037e-01 0.0000000e+00 -8.9175813e-07 
-4.9742460e-01 0.0000000e+00 -2.4015065e-07 
-4.9779698e-01 0.0000000e+00 4.1145680e-07 
-4.9819213e-01 0.0000000e+00 5.4176695e-07 
-4.9872410e-01 0.0000000e+00 6.7207714e-07 
-4.9937102e-01 0.0000000e+00 8.0238732e-07 
-5.0011098e-01 0.0000000e+00 9.3269745e-07 
-5.0092202e-01 0.0000000e+00 1.0630076e-06 
-5.0178242e-01 0.0000000e+00 1.1933178e-06 
-5.0267011e-01 0.0000000e+00 1.3236280e-06 
-5.0356334e-01 0.0000000e+00 1.4539381e-06 
-5.0444013e-01 0.0000000e+00 1.5842483e-06 
-5.0527865e-01 0.0000000e+00 1.7145585e-06 
-5.0605702e-01 0.0000000e+00 1.8448686e-06 
-5.0675333e-01 0.0000000e+00 1.9751787e-06 
ADJOINT_ROTATION 3 212  float
0.0000000e+00 -3.9550057e-03 0.0000000e+00 
0.0000000e+00 -3.9925063e-03 0.0000000e+00 
0.0000000e+00 -4.1050073e-03 0.0000000e+00 
0.0000000e+00 -4.2925095e-03 0.0000000e+00 
0.0000000e+00 -4.5550121e-03 0.0000000e+00 
0.0000000e+00 -4.8925159e-03 0.0000000e+00 
0.0000000e+00 -5.3050201e-03 0.0000000e+00 
0.0000000e+00 -5.7925256e-03 0.0000000e+00 
0.0000000e+00 -6.3550314e-03 0.0000000e+00 
0.0000000e+00 -6.9925385e-03 0.0000000e+00 
0.0000000e+00 -7.7050459e-03 0.0000000e+00 
0.0000000e+00 -8.4925545e-03 0.0000000e+00 
0.0000000e+00 -9.3550636e-03 0.0000000e+00 
0.0000000e+00 -1.1765364e-02 0.0000000e+00 
0.0000000e+00 -1.3722400e-02 0.0000000e+00 
0.0000000e+00 -1.5226173e-02 0.0000000e+00 
0.0000000e+00 -1.6276682e-02 0.0000000e+00 
0.0000000e+00 -1.6873926e-02 0.0000000e+00 
0.0000000e+00 -1.7017908e-02 0.0000000e+00 
0.0000000e+00 -1.6708625e-02 0.0000000e+00 
0.0000000e+00 -1.5946079e-02 0.0000000e+00 
0.0000000e+00 -1.4730268e-02 0.0000000e+00 
0.0000000e+00 -1.3061194e-02 0.0000000e+00 
0.0000000e+00 -1.0938856e-02 0.0000000e+00 
0.0000000e+00 -8.3632544e-03 0.0000000e+00 
0.0000000e+00 -1.1075402e-02 0.0000000e+00 
0.0000000e+00 -1.5762515e-02 0.0000000e+00 
0.0000000e+00 -2.2424595e-02 0.0000000e+00 
0.0000000e+00 -3.1061640e-02 0.0000000e+00 
0.0000000e+00 -4.1673653e-02 0.0000000e+00 
0.0000000e+00 -5.4260630e-02 0.0000000e+00 
0.0000000e+00 -6.8822578e-02 0.0000000e+00 
0.0000000e+00 -8.5359491e-02 0.0000000e+00 
0.0000000e+00 -1.0387137e-01 0.0000000e+00 
0.0000000e+00 -1.2435821e-01 0.0000000e+00 
0.0000000e+00 -1.4682002e-01 0.0000000e+00 
0.0000000e+00 -1.7125680e-01 0.0000000e+00 
0.0000000e+00 -1.4680135e-01 0.0000000e+00 
0.0000000e+00 -1.2432171e-01 0.0000000e+00 
0.0000000e+00 -1.0381787e-01 0.0000000e+00 
0.0000000e+00 -8.5289821e-02 0.0000000e+00 
0.0000000e+00 -6.8737566e-02 0.0000000e+00 
0.0000000e+00 -5.4161113e-02 0.0000000e+00 
0.0000000e+00 -4.1560452e-02 0.0000000e+00 
0.0000000e+00 -3.0935587e-02 0.0000000e+00 
0.0000000e+00 -2.2286521e-02 0.0000000e+00 
0.0000000e+00 -1.5613250e-02 0.0000000e+00 
0.0000000e+00 -1.0915775e-02 0.0000000e+00 
0.0000000e+00 -8.1940973e-03 0.0000000e+00 
0.0000000e+00 -1.0713458e-02 0.0000000e+00 
0.0000000e+00 -1.2776614e-02 0.0000000e+00 
0.0000000e+00 -1.4383566e-02 0.0000000e+00 
0.0000000e+00 -1.5534312e-02 0.0000000e+00 
0.0000000e+00 -1.6228855e-02 0.0000000e+00 
0.0000000e+00 -1.6467193e-02 0.0000000e+00 
0.0000000e+00 -1.6249325e-02 0.0000000e+00 
0.0000000e+00 -1.5575253e-02 0.0000000e+00 
0.0000000e+00 -1.4444977e-02 0.0000000e+00 
0.0000000e+00 -1.2858496e-02 0.0000000e+00 
0.0000000e+00 -1.0815810e-02 0.0000000e+00 
0.0000000e+00 -8.3169201e-03 0.0000000e+00 
0.0000000e+00 -7.1263090e-03 0.0000000e+00 
0.0000000e+00 -6.0232477e-03 0.0000000e+00 
0.0000000e+00 -5.0077355e-03 0.0000000e+00 
0.0000000e+00 -4.0797726e-03 0.0000000e+00 
0.0000000e+00 -3.2393585e-03 0.0000000e+00 
0.0000000e+00 -2.4864937e-03 0.0000000e+00 
0.0000000e+00 -1.8211779e-03 0.0000000e+00 
0.0000000e+00 -1.2434113e-03 0.0000000e+00 
0.0000000e+00 -7.5319392e-04 0.0000000e+00 
0.0000000e+00 -3.5052566e-04 0.0000000e+00 
0.0000000e+00 -3.5406531e-05 0.0000000e+00 
0.0000000e+00 1.9216347e-04 0.0000000e+00 
0.0000000e+00 -6.1205518e-03 0.0000000e+00 
0.0000000e+00 -2.6689708e-04 0.0000000e+00 
0.0000000e+00 -2.7059582e-01 0.0000000e+00 
0.0000000e+00 -1.8115921e-04 0.0000000e+00 
0.0000000e+00 -5.5315900e-03 0.0000000e+00 
0.0000000e+00 5.0978834e-04 0.0000000e+00 
0.0000000e+00 -3.3647073e-03 0.0000000e+00 
0.0000000e+00 5.9145843e-03 0.0000000e+00 
0.0000000e+00 -3.6514249e-01 0.0000000e+00 
0.0000000e+00 5.9326803e-03 0.0000000e+00 
0.0000000e+00 -3.1460314e-03 0.0000000e+00 
0.0000000e+00 7.2748127e-04 0.0000000e+00 
0.0000000e+00 -1.0875296e-03 0.0000000e+00 
0.0000000e+00 1.0181190e-02 0.0000000e+00 
0.0000000e+00 -4.5489681e-01 0.0000000e+00 
0.0000000e+00 1.0147422e-02 0.0000000e+00 
0.0000000e+00 -1.1602440e-03 0.0000000e+00 
0.0000000e+00 8.4524218e-04 0.0000000e+00 
0.0000000e+00 7.1098114e-04 0.0000000e+00 
0.0000000e+00 1.2532920e-02 0.0000000e+00 
0.0000000e+00 -5.3985882e-01 0.0000000e+00 
0.0000000e+00 1.2463066e-02 0.0000000e+00 
0.0000000e+00 4.2577204e-04 0.0000000e+00 
0.0000000e+00 8.6307118e-04 0.0000000e+00 
0.0000000e+00 2.0308250e-03 0.0000000e+00 
0.0000000e+00 1.2969774e-02 0.0000000e+00 
0.0000000e+00 3.7997153e-01 0.0000000e+00 
0.0000000e+00 1.2879611e-02 0.0000000e+00 
0.0000000e+00 1.6120168e-03 0.0000000e+00 
0.0000000e+00 7.8096823e-04 0.0000000e+00 
0.0000000e+00 2.8720016e-03 0.0000000e+00 
0.0000000e+00 1.1491752e-02 0.0000000e+00 
0.0000000e+00 3.0459425e-01 0.0000000e+00 
0.0000000e+00 1.1397058e-02 0.0000000e+00 
0.0000000e+00 2.3984904e-03 0.0000000e+00 
0.0000000e+00 5.9893331e-04 0.0000000e+00 
0.0000000e+00 3.2345117e-03 0.0000000e+00 
0.0000000e+00 8.0988538e-03 0.0000000e+00 
0.0000000e+00 2.3400930e-01 0.0000000e+00 
0.0000000e+00 8.0154072e-03 0.0000000e+00 
0.0000000e+00 2.7851928e-03 0.0000000e+00 
0.0000000e+00 3.1696647e-04 0.0000000e+00 
0.0000000e+00 3.1183546e-03 0.0000000e+00 
0.0000000e+00 2.7910804e-03 0.0000000e+00 
0.0000000e+00 1.6821669e-01 0.0000000e+00 
0.0000000e+00 2.7346581e-03 0.0000000e+00 
0.0000000e+00 2.7721238e-03 0.0000000e+00 
0.0000000e+00 -6.4932348e-05 0.0000000e+00 
0.0000000e+00 2.5235305e-03 0.0000000e+00 
0.0000000e+00 -4.4315690e-03 0.0000000e+00 
0.0000000e+00 1.0721642e-01 0.0000000e+00 
0.0000000e+00 -4.4451891e-03 0.0000000e+00 
0.0000000e+00 2.3592834e-03 0.0000000e+00 
0.0000000e+00 -5.4676313e-04 0.0000000e+00 
0.0000000e+00 1.4500394e-03 0.0000000e+00 
0.0000000e+00 -1.3569094e-02 0.0000000e+00 
0.0000000e+00 5.1008496e-02 0.0000000e+00 
0.0000000e+00 -1.3524135e-02 0.0000000e+00 
0.0000000e+00 1.5466720e-03 0.0000000e+00 
0.0000000e+00 -1.1285258e-03 0.0000000e+00 
0.0000000e+00 -1.0211846e-04 0.0000000e+00 
0.0000000e+00 -2.4621496e-02 0.0000000e+00 
0.0000000e+00 -4.0708182e-04 0.0000000e+00 
0.0000000e+00 -2.4502177e-02 0.0000000e+00 
0.0000000e+00 3.3428925e-04 0.0000000e+00 
0.0000000e+00 -1.8102205e-03 0.0000000e+00 
0.0000000e+00 -7.5330012e-03 0.0000000e+00 
0.0000000e+00 -7.4955006e-03 0.0000000e+00 
0.0000000e+00 -7.3829996e-03 0.0000000e+00 
0.0000000e+00 -7.1954974e-03 0.0000000e+00 
0.0000000e+00 -6.9329948e-03 0.0000000e+00 
0.0000000e+00 -6.5954910e-03 0.0000000e+00 
0.0000000e+00 -6.1829868e-03 0.0000000e+00 
0.0000000e+00 -5.6954813e-03 0.0000000e+00 
0.0000000e+00 -5.1329755e-03 0.0000000e+00 
0.0000000e+00 -4.4954685e-03 0.0000000e+00 
0.0000000e+00 -3.7829611e-03 0.0000000e+00 
0.0000000e+00 -2.9954526e-03 0.0000000e+00 
0.0000000e+00 -2.1329434e-03 0.0000000e+00 
0.0000000e+00 -2.5946449e-03 0.0000000e+00 
0.0000000e+00 -3.5096102e-03 0.0000000e+00 
0.0000000e+00 -4.8778392e-03 0.0000000e+00 
0.0000000e+00 -6.6993320e-03 0.0000000e+00 
0.0000000e+00 -8.9740893e-03 0.0000000e+00 
0.0000000e+00 -1.1702109e-02 0.0000000e+00 
0.0000000e+00 -1.4883393e-02 0.0000000e+00 
0.0000000e+00 -1.8517941e-02 0.0000000e+00 
0.0000000e+00 -2.2605754e-02 0.0000000e+00 
0.0000000e+00 -2.7146829e-02 0.0000000e+00 
0.0000000e+00 -3.2141171e-02 0.0000000e+00 
0.0000000e+00 -3.7588771e-02 0.0000000e+00 
0.0000000e+00 -4.9237885e-02 0.0000000e+00 
0.0000000e+00 -5.8912028e-02 0.0000000e+00 
0.0000000e+00 -6.6611201e-02 0.0000000e+00 
0.0000000e+00 -7.2335415e-02 0.0000000e+00 
0.0000000e+00 -7.6084659e-02 0.0000000e+00 
0.0000000e+00 -7.7858940e-02 0.0000000e+00 
0.0000000e+00 -7.7658251e-02 0.0000000e+00 
0.0000000e+00 -7.5482592e-02 0.0000000e+00 
0.0000000e+00 -7.1331978e-02 0.0000000e+00 
0.0000000e+00 -6.5206386e-02 0.0000000e+00 
0.0000000e+00 -5.7105836e-02 0.0000000e+00 
0.0000000e+00 -4.7030315e-02 0.0000000e+00 
0.0000000e+00 -5.7092946e-02 0.0000000e+00 
0.0000000e+00 -6.5179780e-02 0.0000000e+00 
0.0000000e+00 -7.1290821e-02 0.0000000e+00 
0.0000000e+00 -7.5426057e-02 0.0000000e+00 
0.0000000e+00 -7.7585503e-02 0.0000000e+00 
0.0000000e+00 -7.7769153e-02 0.0000000e+00 
0.0000000e+00 -7.5977005e-02 0.0000000e+00 
0.0000000e+00 -7.2209060e-02 0.0000000e+00 
0.0000000e+00 -6.6465318e-02 0.0000000e+00 
0.0000000e+00 -5.8745783e-02 0.0000000e+00 
0.0000000e+00 -4.9050450e-02 0.0000000e+00 
0.0000000e+00 -3.7379321e-02 0.0000000e+00 
0.0000000e+00 -3.1861737e-02 0.0000000e+00 
0.0000000e+00 -2.6800362e-02 0.0000000e+00 
0.0000000e+00 -2.2195192e-02 0.0000000e+00 
0.0000000e+00 -1.8046226e-02 0.0000000e+00 
0.0000000e+00 -1.4353464e-02 0.0000000e+00 
0.0000000e+00 -1.1116908e-02 0.0000000e+00 
0.0000000e+00 -8.3365552e-03 0.0000000e+00 
0.0000000e+00 -6.0124081e-03 0.0000000e+00 
0.0000000e+00 -4.1444651e-03 0.0000000e+00 
0.0000000e+00 -2.7327270e-03 0.0000000e+00 
0.0000000e+00 -1.7771935e-03 0.0000000e+00 
0.0000000e+00 -1.2778648e-03 0.0000000e+00 
0.0000000e+00 -1.8688836e-03 0.0000000e+00 
0.0000000e+00 -2.3723533e-03 0.0000000e+00 