# vtk DataFile Version 4.0
vtk output
ASCII
DATASET UNSTRUCTURED_GRID
POINTS 30 float
0.0000000e+00 0.0000000e+00 0.0000000e+00 
0.0000000e+00 0.0000000e+00 8.0000001e-01 
0.0000000e+00 0.0000000e+00 1.6000000e+00 
0.0000000e+00 0.0000000e+00 2.4000001e+00 
0.0000000e+00 0.0000000e+00 3.2000000e+00 
0.0000000e+00 0.0000000e+00 4.0000000e+00 
0.0000000e+00 0.0000000e+00 4.8000002e+00 
0.0000000e+00 0.0000000e+00 5.5999999e+00 
0.0000000e+00 0.0000000e+00 6.4000001e+00 
0.0000000e+00 0.0000000e+00 7.1999998e+00 
0.0000000e+00 0.0000000e+00 8.0000000e+00 
1.0000000e+01 0.0000000e+00 0.0000000e+00 
1.0000000e+01 0.0000000e+00 8.0000001e-01 
1.0000000e+01 0.0000000e+00 1.6000000e+00 
1.0000000e+01 0.0000000e+00 2.4000001e+00 
1.0000000e+01 0.0000000e+00 3.2000000e+00 
1.0000000e+01 0.0000000e+00 4.0000000e+00 
1.0000000e+01 0.0000000e+00 4.8000002e+00 
1.0000000e+01 0.0000000e+00 5.5999999e+00 
1.0000000e+01 0.0000000e+00 6.4000001e+00 
1.0000000e+01 0.0000000e+00 7.1999998e+00 
1.0000000e+01 0.0000000e+00 8.0000000e+00 
2.0000000e+00 0.0000000e+00 4.0000000e+00 
4.0000000e+00 0.0000000e+00 4.0000000e+00 
6.0000000e+00 0.0000000e+00 4.0000000e+00 
8.0000000e+00 0.0000000e+00 4.0000000e+00 
2.0000000e+00 0.0000000e+00 8.0000000e+00 
4.0000000e+00 0.0000000e+00 8.0000000e+00 
6.0000000e+00 0.0000000e+00 8.0000000e+00 
8.0000000e+00 0.0000000e+00 8.0000000e+00 

CELLS 30 90
2 0 1
2 1 2
2 2 3
2 3 4
2 4 5
2 5 6
2 6 7
2 7 8
2 8 9
2 9 10
2 11 12
2 12 13
2 13 14
2 14 15
2 15 16
2 16 17
2 17 18
2 18 19
2 19 20
2 20 21
2 5 22
2 22 23
2 23 24
2 24 25
2 25 16
2 10 26
2 26 27
2 27 28
2 28 29
2 29 21

CELL_TYPES 30
3
3
3
3
3
3
3
3
3
3
3
3
3
3
3
3
3
3
3
3
3
3
3
3
3
3
3
3
3
3
POINT_DATA 30
FIELD FieldData 7
DISPLACEMENT 3 30  float
0.0000000e+00 0.0000000e+00 0.0000000e+00 
3.1826671e-04 0.0000000e+00 1.0768907e-05 
7.6245447e-04 0.0000000e+00 2.0078969e-05 
1.3376359e-03 0.0000000e+00 2.6629388e-05 
1.9692082e-03 0.0000000e+00 3.1840562e-05 
2.5915762e-03 0.0000000e+00 3.5256257e-05 
3.2365071e-03 0.0000000e+00 4.0026625e-05 
3.9232448e-03 0.0000000e+00 4.5148809e-05 
4.5389649e-03 0.0000000e+00 5.0270988e-05 
4.9835523e-03 0.0000000e+00 5.2318999e-05 
5.2422844e-03 0.0000000e+00 5.1928790e-05 
0.0000000e+00 0.0000000e+00 0.0000000e+00 
6.6627539e-04 0.0000000e+00 -5.0043282e-06 
1.2935260e-03 0.0000000e+00 -9.9377557e-06 
1.8553146e-03 0.0000000e+00 -1.3135502e-05 
2.2861441e-03 0.0000000e+00 -1.5174532e-05 
2.5893182e-03 0.0000000e+00 -1.7798217e-05 
2.9259624e-03 0.0000000e+00 -2.1327880e-05 
3.4219602e-03 0.0000000e+00 -2.2886823e-05 
4.0500448e-03 0.0000000e+00 -2.2763266e-05 
4.6941726e-03 0.0000000e+00 -2.3228120e-05 
5.2869054e-03 0.0000000e+00 -2.2374888e-05 
2.5971860e-03 0.0000000e+00 -9.8450074e-04 
2.5943853e-03 0.0000000e+00 -1.0418406e-03 
2.5984503e-03 0.0000000e+00 -3.7551619e-04 
2.5938842e-03 0.0000000e+00 1.5086310e-04 
5.2500670e-03 0.0000000e+00 3.1815158e-04 
5.2557969e-03 0.0000000e+00 1.2303961e-03 
5.2615264e-03 0.0000000e+00 1.7899158e-03 
5.2742162e-03 0.0000000e+00 1.2538956e-03 
ROTATION 3 30  float
0.0000000e+00 3.6606067e-04 0.0000000e+00 
0.0000000e+00 4.6137889e-04 0.0000000e+00 
0.0000000e+00 6.4762816e-04 0.0000000e+00 
0.0000000e+00 7.7074300e-04 0.0000000e+00 
0.0000000e+00 7.9472596e-04 0.0000000e+00 
0.0000000e+00 7.5262919e-04 0.0000000e+00 
0.0000000e+00 8.5019623e-04 0.0000000e+00 
0.0000000e+00 8.4034208e-04 0.0000000e+00 
0.0000000e+00 6.7265372e-04 0.0000000e+00 
0.0000000e+00 4.4519722e-04 0.0000000e+00 
0.0000000e+00 1.8400465e-04 0.0000000e+00 
0.0000000e+00 8.4245711e-04 0.0000000e+00 
0.0000000e+00 8.1361848e-04 0.0000000e+00 
0.0000000e+00 7.5379165e-04 0.0000000e+00 
0.0000000e+00 6.3011178e-04 0.0000000e+00 
0.0000000e+00 4.4807923e-04 0.0000000e+00 
0.0000000e+00 3.3008502e-04 0.0000000e+00 
0.0000000e+00 5.1819900e-04 0.0000000e+00 
0.0000000e+00 7.1952603e-04 0.0000000e+00 
0.0000000e+00 8.1900560e-04 0.0000000e+00 
0.0000000e+00 7.7524834e-04 0.0000000e+00 
0.0000000e+00 7.1822834e-04 0.0000000e+00 
0.0000000e+00 2.6670573e-04 0.0000000e+00 
0.0000000e+00 -2.0380678e-04 0.0000000e+00 
0.0000000e+00 -3.6495554e-04 0.0000000e+00 
0.0000000e+00 -1.2542661e-04 0.0000000e+00 
0.0000000e+00 -3.7474651e-04 0.0000000e+00 
0.0000000e+00 -4.5271957e-04 0.0000000e+00 
0.0000000e+00 -2.2021744e-05 0.0000000e+00 
0.0000000e+00 5.0555740e-04 0.0000000e+00 
REACTION 3 30  float
9.3828877e+03 -0.0000000e+00 -2.8268381e+04 
-2.7284841e-11 -0.0000000e+00 -3.6379788e-12 
6.7302608e-11 -0.0000000e+00 1.4551915e-11 
-2.8376235e-10 -0.0000000e+00 -0.0000000e+00 
-2.8740033e-10 -0.0000000e+00 -1.8189894e-11 
1.1277734e-10 -0.0000000e+00 6.0026650e-11 
-1.2187229e-10 -0.0000000e+00 -1.2369128e-10 
8.7311491e-11 -0.0000000e+00 1.4551915e-11 
2.9649527e-10 -0.0000000e+00 -5.1841198e-11 
-2.2373570e-10 -0.0000000e+00 2.0918378e-11 
-6.2391337e-10 -0.0000000e+00 2.7284841e-12 
-2.8388049e+03 -0.0000000e+00 1.3136361e+04 
8.3673513e-11 -0.0000000e+00 7.2759576e-12 
3.1377567e-10 -0.0000000e+00 7.2759576e-12 
-3.8198777e-10 -0.0000000e+00 -4.5474735e-12 
-1.0550139e-10 -0.0000000e+00 -3.4560799e-11 
-1.4497346e-09 -0.0000000e+00 -7.6397555e-10 
7.2759576e-11 -0.0000000e+00 -9.0949470e-13 
-1.3824319e-10 -0.0000000e+00 1.0913936e-11 
9.0949470e-12 -0.0000000e+00 9.2995833e-11 
-3.6288839e-10 -0.0000000e+00 1.8189894e-12 
9.4587449e-10 -0.0000000e+00 8.3673513e-11 
-1.7462298e-10 -0.0000000e+00 1.0732037e-10 
5.5206328e-10 -0.0000000e+00 -1.8189894e-12 
-3.2741809e-11 -0.0000000e+00 5.8207661e-11 
1.3969839e-09 -0.0000000e+00 -1.2732926e-11 
1.0986696e-09 -0.0000000e+00 1.0913936e-11 
-9.3132257e-10 -0.0000000e+00 -2.0918378e-11 
3.1104719e-10 -0.0000000e+00 1.0095391e-10 
-0.0000000e+00 -0.0000000e+00 1.4551915e-11 
REACTION_MOMENT 3 30  float
-0.0000000e+00 3.6379788e-11 -0.0000000e+00 
-0.0000000e+00 1.4551915e-11 -0.0000000e+00 
-0.0000000e+00 -7.2759576e-12 -0.0000000e+00 
-0.0000000e+00 -9.4587449e-11 -0.0000000e+00 
-0.0000000e+00 5.1659299e-10 -0.0000000e+00 
-0.0000000e+00 -2.8194336e-10 -0.0000000e+00 
-0.0000000e+00 1.5716068e-09 -0.0000000e+00 
-0.0000000e+00 -2.5465852e-10 -0.0000000e+00 
-0.0000000e+00 5.6752469e-10 -0.0000000e+00 
-0.0000000e+00 -5.6388672e-10 -0.0000000e+00 
-0.0000000e+00 -4.2928150e-10 -0.0000000e+00 
-0.0000000e+00 -1.4551915e-11 -0.0000000e+00 
-0.0000000e+00 -3.6379788e-11 -0.0000000e+00 
-0.0000000e+00 6.5483619e-11 -0.0000000e+00 
-0.0000000e+00 -5.8207661e-11 -0.0000000e+00 
-0.0000000e+00 1.4551915e-11 -0.0000000e+00 
-0.0000000e+00 1.2732926e-11 -0.0000000e+00 
-0.0000000e+00 8.7311491e-11 -0.0000000e+00 
-0.0000000e+00 2.2555469e-10 -0.0000000e+00 
-0.0000000e+00 6.5483619e-11 -0.0000000e+00 
-0.0000000e+00 8.7311491e-11 -0.0000000e+00 
-0.0000000e+00 -1.1641532e-10 -0.0000000e+00 
-0.0000000e+00 -3.8198777e-11 -0.0000000e+00 
-0.0000000e+00 1.0913936e-11 -0.0000000e+00 
-0.0000000e+00 -9.5496944e-12 -0.0000000e+00 
-0.0000000e+00 -1.1823431e-11 -0.0000000e+00 
-0.0000000e+00 -1.8189894e-12 -0.0000000e+00 
-0.0000000e+00 -4.5474735e-12 -0.0000000e+00 
-0.0000000e+00 9.0949470e-12 -0.0000000e+00 
-0.0000000e+00 -1.4551915e-11 -0.0000000e+00 
VOLUME_ACCELERATION 3 30  float
0.0000000e+00 0.0000000e+00 0.0000000e+00 
0.0000000e+00 0.0000000e+00 0.0000000e+00 
0.0000000e+00 0.0000000e+00 0.0000000e+00 
0.0000000e+00 0.0000000e+00 0.0000000e+00 
0.0000000e+00 0.0000000e+00 0.0000000e+00 
0.0000000e+00 0.0000000e+00 0.0000000e+00 
0.0000000e+00 0.0000000e+00 0.0000000e+00 
0.0000000e+00 0.0000000e+00 0.0000000e+00 
0.0000000e+00 0.0000000e+00 0.0000000e+00 
0.0000000e+00 0.0000000e+00 0.0000000e+00 
0.0000000e+00 0.0000000e+00 0.0000000e+00 
0.0000000e+00 0.0000000e+00 0.0000000e+00 
0.0000000e+00 0.0000000e+00 0.0000000e+00 
0.0000000e+00 0.0000000e+00 0.0000000e+00 
0.0000000e+00 0.0000000e+00 0.0000000e+00 
0.0000000e+00 0.0000000e+00 0.0000000e+00 
0.0000000e+00 0.0000000e+00 0.0000000e+00 
0.0000000e+00 0.0000000e+00 0.0000000e+00 
0.0000000e+00 0.0000000e+00 0.0000000e+00 
0.0000000e+00 0.0000000e+00 0.0000000e+00 
0.0000000e+00 0.0000000e+00 0.0000000e+00 
0.0000000e+00 0.0000000e+00 0.0000000e+00 
0.0000000e+00 0.0000000e+00 0.0000000e+00 
0.0000000e+00 0.0000000e+00 0.0000000e+00 
0.0000000e+00 0.0000000e+00 0.0000000e+00 
0.0000000e+00 0.0000000e+00 0.0000000e+00 
0.0000000e+00 0.0000000e+00 0.0000000e+00 
0.0000000e+00 0.0000000e+00 0.0000000e+00 
0.0000000e+00 0.0000000e+00 0.0000000e+00 
0.0000000e+00 0.0000000e+00 0.0000000e+00 
POINT_LOAD 3 30  float
0.0000000e+00 0.0000000e+00 0.0000000e+00 
-9.8147520e+03 0.0000000e+00 3.8294680e+03 
-5.3510576e+03 0.0000000e+00 7.2440591e+03 
1.8075428e+03 0.0000000e+00 3.5155283e+03 
1.4460383e+03 0.0000000e+00 4.7131201e+03 
-6.1667168e+03 0.0000000e+00 -3.5360676e+03 
-4.9625229e+03 0.0000000e+00 -9.2351050e+02 
0.0000000e+00 0.0000000e+00 0.0000000e+00 
9.6533711e+03 0.0000000e+00 8.0697075e+03 
-7.0908354e+03 0.0000000e+00 6.4003193e+03 
-2.9660000e+03 0.0000000e+00 -4.5907720e+03 
0.0000000e+00 0.0000000e+00 0.0000000e+00 
2.6272122e+03 0.0000000e+00 -1.8611295e+02 
-5.8623521e+03 0.0000000e+00 -4.5561650e+03 
6.4038008e+03 0.0000000e+00 -3.0416299e+03 
5.6440630e+03 0.0000000e+00 1.5347214e+03 
-8.7975977e+03 0.0000000e+00 4.0790542e+03 
-2.6406829e+03 0.0000000e+00 -5.1731382e+03 
-8.6855791e+03 0.0000000e+00 -4.4165654e+03 
4.6113003e+03 0.0000000e+00 1.5445780e+03 
8.1830327e+03 0.0000000e+00 -3.4599683e+03 
9.8852061e+03 0.0000000e+00 -2.4017332e+02 
8.8309287e+03 0.0000000e+00 -2.8261349e+02 
-7.2090806e+03 0.0000000e+00 -4.3471421e+03 
9.0626816e+03 0.0000000e+00 2.9089465e+03 
0.0000000e+00 0.0000000e+00 0.0000000e+00 
2.1557095e+03 0.0000000e+00 -4.3931030e+02 
0.0000000e+00 0.0000000e+00 0.0000000e+00 
-7.3077925e+03 0.0000000e+00 6.4856851e+03 
0.0000000e+00 0.0000000e+00 0.0000000e+00 
POINT_MOMENT 3 30  float
0.0000000e+00 0.0000000e+00 0.0000000e+00 
0.0000000e+00 0.0000000e+00 0.0000000e+00 
0.0000000e+00 0.0000000e+00 0.0000000e+00 
0.0000000e+00 0.0000000e+00 0.0000000e+00 
0.0000000e+00 0.0000000e+00 0.0000000e+00 
0.0000000e+00 0.0000000e+00 0.0000000e+00 
0.0000000e+00 0.0000000e+00 0.0000000e+00 
0.0000000e+00 0.0000000e+00 0.0000000e+00 
0.0000000e+00 0.0000000e+00 0.0000000e+00 
0.0000000e+00 0.0000000e+00 0.0000000e+00 
0.0000000e+00 0.0000000e+00 0.0000000e+00 
0.0000000e+00 0.0000000e+00 0.0000000e+00 
0.0000000e+00 0.0000000e+00 0.0000000e+00 
0.0000000e+00 0.0000000e+00 0.0000000e+00 
0.0000000e+00 0.0000000e+00 0.0000000e+00 
0.0000000e+00 0.0000000e+00 0.0000000e+00 
0.0000000e+00 0.0000000e+00 0.0000000e+00 
0.0000000e+00 0.0000000e+00 0.0000000e+00 
0.0000000e+00 0.0000000e+00 0.0000000e+00 
0.0000000e+00 0.0000000e+00 0.0000000e+00 
0.0000000e+00 0.0000000e+00 0.0000000e+00 
0.0000000e+00 0.0000000e+00 0.0000000e+00 
0.0000000e+00 0.0000000e+00 0.0000000e+00 
0.0000000e+00 0.0000000e+00 0.0000000e+00 
0.0000000e+00 0.0000000e+00 0.0000000e+00 
0.0000000e+00 0.0000000e+00 0.0000000e+00 
0.0000000e+00 0.0000000e+00 0.0000000e+00 
0.0000000e+00 0.0000000e+00 0.0000000e+00 
0.0000000e+00 0.0000000e+00 0.0000000e+00 
0.0000000e+00 0.0000000e+00 0.0000000e+00 
CELL_DATA 30
FIELD FieldData 9
YOUNG_MODULUS 1 30  float
2.1000000e+11
2.1000000e+11
2.1000000e+11
2.1000000e+11
2.1000000e+11
2.1000000e+11
2.1000000e+11
2.1000000e+11
2.1000000e+11
2.1000000e+11
2.1000000e+11
2.1000000e+11
2.1000000e+11
2.1000000e+11
2.1000000e+11
2.1000000e+11
2.1000000e+11
2.1000000e+11
2.1000000e+11
2.1000000e+11
2.1000000e+11
2.1000000e+11
2.1000000e+11
2.1000000e+11
2.1000000e+11
2.1000000e+11
2.1000000e+11
2.1000000e+11
2.1000000e+11
2.1000000e+11
DENSITY 1 30  float
7.8500000e+03
7.8500000e+03
7.8500000e+03
7.8500000e+03
7.8500000e+03
7.8500000e+03
7.8500000e+03
7.8500000e+03
7.8500000e+03
7.8500000e+03
7.8500000e+03
7.8500000e+03
7.8500000e+03
7.8500000e+03
7.8500000e+03
7.8500000e+03
7.8500000e+03
7.8500000e+03
7.8500000e+03
7.8500000e+03
7.8500000e+03
7.8500000e+03
7.8500000e+03
7.8500000e+03
7.8500000e+03
7.8500000e+03
7.8500000e+03
7.8500000e+03
7.8500000e+03
7.8500000e+03
CROSS_AREA 1 30  float
9.9999998e-03
9.9999998e-03
9.9999998e-03
9.9999998e-03
9.9999998e-03
9.9999998e-03
9.9999998e-03
9.9999998e-03
9.9999998e-03
9.9999998e-03
9.9999998e-03
9.9999998e-03
9.9999998e-03
9.9999998e-03
9.9999998e-03
9.9999998e-03
9.9999998e-03
9.9999998e-03
9.9999998e-03
9.9999998e-03
9.9999998e-03
9.9999998e-03
9.9999998e-03
9.9999998e-03
9.9999998e-03
9.9999998e-03
9.9999998e-03
9.9999998e-03
9.9999998e-03
9.9999998e-03
I22 1 30  float
1.5000001e-04
1.5000001e-04
1.5000001e-04
1.5000001e-04
1.5000001e-04
1.5000001e-04
1.5000001e-04
1.5000001e-04
1.5000001e-04
1.5000001e-04
1.5000001e-04
1.5000001e-04
1.5000001e-04
1.5000001e-04
1.5000001e-04
1.5000001e-04
1.5000001e-04
1.5000001e-04
1.5000001e-04
1.5000001e-04
1.5000001e-04
1.5000001e-04
1.5000001e-04
1.5000001e-04
1.5000001e-04
1.5000001e-04
1.5000001e-04
1.5000001e-04
1.5000001e-04
1.5000001e-04
I33 1 30  float
1.5000001e-04
1.5000001e-04
1.5000001e-04
1.5000001e-04
1.5000001e-04
1.5000001e-04
1.5000001e-04
1.5000001e-04
1.5000001e-04
1.5000001e-04
1.5000001e-04
1.5000001e-04
1.5000001e-04
1.5000001e-04
1.5000001e-04
1.5000001e-04
1.5000001e-04
1.5000001e-04
1.5000001e-04
1.5000001e-04
1.5000001e-04
1.5000001e-04
1.5000001e-04
1.5000001e-04
1.5000001e-04
1.5000001e-04
1.5000001e-04
1.5000001e-04
1.5000001e-04
1.5000001e-04
TORSIONAL_INERTIA 1 30  float
3.0000001e-04
3.0000001e-04
3.0000001e-04
3.0000001e-04
3.0000001e-04
3.0000001e-04
3.0000001e-04
3.0000001e-04
3.0000001e-04
3.0000001e-04
3.0000001e-04
3.0000001e-04
3.0000001e-04
3.0000001e-04
3.0000001e-04
3.0000001e-04
3.0000001e-04
3.0000001e-04
3.0000001e-04
3.0000001e-04
3.0000001e-04
3.0000001e-04
3.0000001e-04
3.0000001e-04
3.0000001e-04
3.0000001e-04
3.0000001e-04
3.0000001e-04
3.0000001e-04
3.0000001e-04
POISSON_RATIO 1 30  float
3.0000001e-01
3.0000001e-01
3.0000001e-01
3.0000001e-01
3.0000001e-01
3.0000001e-01
3.0000001e-01
3.0000001e-01
3.0000001e-01
3.0000001e-01
3.0000001e-01
3.0000001e-01
3.0000001e-01
3.0000001e-01
3.0000001e-01
3.0000001e-01
3.0000001e-01
3.0000001e-01
3.0000001e-01
3.0000001e-01
3.0000001e-01
3.0000001e-01
3.0000001e-01
3.0000001e-01
3.0000001e-01
3.0000001e-01
3.0000001e-01
3.0000001e-01
3.0000001e-01
3.0000001e-01
MOMENT 3 30  float
0.0000000e+00 3.7531550e+03 0.0000000e+00 
0.0000000e+00 7.3335640e+03 0.0000000e+00 
0.0000000e+00 4.8476489e+03 0.0000000e+00 
0.0000000e+00 9.4432831e+02 0.0000000e+00 
0.0000000e+00 -1.6575601e+03 0.0000000e+00 
0.0000000e+00 3.8417021e+03 0.0000000e+00 
0.0000000e+00 -3.8800851e+02 0.0000000e+00 
0.0000000e+00 -6.6027285e+03 0.0000000e+00 
0.0000000e+00 -8.9560996e+03 0.0000000e+00 
0.0000000e+00 -1.0284458e+04 0.0000000e+00 
0.0000000e+00 -1.1355220e+03 0.0000000e+00 
0.0000000e+00 -2.3556809e+03 0.0000000e+00 
0.0000000e+00 -4.8698960e+03 0.0000000e+00 
0.0000000e+00 -7.1675312e+03 0.0000000e+00 
0.0000000e+00 -4.6460210e+03 0.0000000e+00 
0.0000000e+00 7.4069873e+03 0.0000000e+00 
0.0000000e+00 7.9272510e+03 0.0000000e+00 
0.0000000e+00 3.9170098e+03 0.0000000e+00 
0.0000000e+00 -1.7229429e+03 0.0000000e+00 
0.0000000e+00 -2.2451621e+03 0.0000000e+00 
0.0000000e+00 -7.6532949e+03 0.0000000e+00 
0.0000000e+00 -7.4105718e+03 0.0000000e+00 
0.0000000e+00 -2.5380933e+03 0.0000000e+00 
0.0000000e+00 3.7725808e+03 0.0000000e+00 
0.0000000e+00 7.1743086e+03 0.0000000e+00 
0.0000000e+00 -8.8003311e+03 0.0000000e+00 
0.0000000e+00 -1.2280753e+03 0.0000000e+00 
0.0000000e+00 6.7834907e+03 0.0000000e+00 
0.0000000e+00 8.3093711e+03 0.0000000e+00 
0.0000000e+00 3.3495674e+03 0.0000000e+00 
FORCE 3 30  float
2.8268381e+04 0.0000000e+00 9.3828877e+03 
2.4438912e+04 0.0000000e+00 -4.3186484e+02 
1.7194854e+04 0.0000000e+00 -5.7829224e+03 
1.3679325e+04 0.0000000e+00 -3.9753796e+03 
8.9662041e+03 0.0000000e+00 -2.5293413e+03 
1.2522218e+04 0.0000000e+00 -2.8058770e+03 
1.3445728e+04 0.0000000e+00 -7.7683999e+03 
1.3445728e+04 0.0000000e+00 -7.7683999e+03 
5.3760200e+03 0.0000000e+00 1.8849708e+03 
-1.0242993e+03 0.0000000e+00 -5.2058647e+03 
-1.3136361e+04 0.0000000e+00 -2.8388049e+03 
-1.2950248e+04 0.0000000e+00 -2.1159273e+02 
-8.3940830e+03 0.0000000e+00 -6.0739443e+03 
-5.3524531e+03 0.0000000e+00 3.2985641e+02 
-6.8871743e+03 0.0000000e+00 5.9739189e+03 
-9.2653652e+03 0.0000000e+00 1.9706709e+03 
-4.0922271e+03 0.0000000e+00 -6.7001196e+02 
3.2433856e+02 0.0000000e+00 -9.3555908e+03 
-1.2202395e+03 0.0000000e+00 -4.7442905e+03 
2.2397288e+03 0.0000000e+00 3.4387422e+03 
5.8901807e+03 0.0000000e+00 -1.9945240e+01 
-2.9407480e+03 0.0000000e+00 2.6266827e+02 
4.2683325e+03 0.0000000e+00 4.6098105e+03 
-4.7943496e+03 0.0000000e+00 1.7008638e+03 
-4.7943496e+03 0.0000000e+00 1.7008638e+03 
8.1718647e+03 0.0000000e+00 3.5664727e+03 
6.0161553e+03 0.0000000e+00 4.0057830e+03 
6.0161553e+03 0.0000000e+00 4.0057830e+03 
1.3323948e+04 0.0000000e+00 -2.4799021e+03 
1.3323948e+04 0.0000000e+00 -2.4799021e+03 
