# vtk DataFile Version 4.0
vtk output
ASCII
DATASET UNSTRUCTURED_GRID
POINTS 212 float
0.0000000e+00 0.0000000e+00 0.0000000e+00 
0.0000000e+00 0.0000000e+00 2.5000000e-01 
0.0000000e+00 0.0000000e+00 5.0000000e-01 
0.0000000e+00 0.0000000e+00 7.5000000e-01 
0.0000000e+00 0.0000000e+00 1.0000000e+00 
0.0000000e+00 0.0000000e+00 1.2500000e+00 
0.0000000e+00 0.0000000e+00 1.5000000e+00 
0.0000000e+00 0.0000000e+00 1.7500000e+00 
0.0000000e+00 0.0000000e+00 2.0000000e+00 
0.0000000e+00 0.0000000e+00 2.2500000e+00 
0.0000000e+00 0.0000000e+00 2.5000000e+00 
0.0000000e+00 0.0000000e+00 2.7500000e+00 
0.0000000e+00 0.0000000e+00 3.0000000e+00 
0.0000000e+00 0.0000000e+00 3.2500000e+00 
0.0000000e+00 0.0000000e+00 3.5000000e+00 
0.0000000e+00 0.0000000e+00 3.7500000e+00 
0.0000000e+00 0.0000000e+00 4.0000000e+00 
0.0000000e+00 0.0000000e+00 4.2500000e+00 
0.0000000e+00 0.0000000e+00 4.5000000e+00 
0.0000000e+00 0.0000000e+00 4.7500000e+00 
0.0000000e+00 0.0000000e+00 5.0000000e+00 
0.0000000e+00 0.0000000e+00 5.2500000e+00 
0.0000000e+00 0.0000000e+00 5.5000000e+00 
0.0000000e+00 0.0000000e+00 5.7500000e+00 
0.0000000e+00 0.0000000e+00 6.0000000e+00 
0.0000000e+00 0.0000000e+00 6.2500000e+00 
0.0000000e+00 0.0000000e+00 6.5000000e+00 
0.0000000e+00 0.0000000e+00 6.7500000e+00 
0.0000000e+00 0.0000000e+00 7.0000000e+00 
0.0000000e+00 0.0000000e+00 7.2500000e+00 
0.0000000e+00 0.0000000e+00 7.5000000e+00 
0.0000000e+00 0.0000000e+00 7.7500000e+00 
0.0000000e+00 0.0000000e+00 8.0000000e+00 
0.0000000e+00 0.0000000e+00 8.2500000e+00 
0.0000000e+00 0.0000000e+00 8.5000000e+00 
0.0000000e+00 0.0000000e+00 8.7500000e+00 
0.0000000e+00 0.0000000e+00 9.0000000e+00 
0.0000000e+00 0.0000000e+00 9.2500000e+00 
0.0000000e+00 0.0000000e+00 9.5000000e+00 
0.0000000e+00 0.0000000e+00 9.7500000e+00 
0.0000000e+00 0.0000000e+00 1.0000000e+01 
0.0000000e+00 0.0000000e+00 1.0250000e+01 
0.0000000e+00 0.0000000e+00 1.0500000e+01 
0.0000000e+00 0.0000000e+00 1.0750000e+01 
0.0000000e+00 0.0000000e+00 1.1000000e+01 
0.0000000e+00 0.0000000e+00 1.1250000e+01 
0.0000000e+00 0.0000000e+00 1.1500000e+01 
0.0000000e+00 0.0000000e+00 1.1750000e+01 
0.0000000e+00 0.0000000e+00 1.2000000e+01 
0.0000000e+00 0.0000000e+00 1.2250000e+01 
0.0000000e+00 0.0000000e+00 1.2500000e+01 
0.0000000e+00 0.0000000e+00 1.2750000e+01 
0.0000000e+00 0.0000000e+00 1.3000000e+01 
0.0000000e+00 0.0000000e+00 1.3250000e+01 
0.0000000e+00 0.0000000e+00 1.3500000e+01 
0.0000000e+00 0.0000000e+00 1.3750000e+01 
0.0000000e+00 0.0000000e+00 1.4000000e+01 
0.0000000e+00 0.0000000e+00 1.4250000e+01 
0.0000000e+00 0.0000000e+00 1.4500000e+01 
0.0000000e+00 0.0000000e+00 1.4750000e+01 
0.0000000e+00 0.0000000e+00 1.5000000e+01 
0.0000000e+00 0.0000000e+00 1.5250000e+01 
0.0000000e+00 0.0000000e+00 1.5500000e+01 
0.0000000e+00 0.0000000e+00 1.5750000e+01 
0.0000000e+00 0.0000000e+00 1.6000000e+01 
0.0000000e+00 0.0000000e+00 1.6250000e+01 
0.0000000e+00 0.0000000e+00 1.6500000e+01 
0.0000000e+00 0.0000000e+00 1.6750000e+01 
0.0000000e+00 0.0000000e+00 1.7000000e+01 
0.0000000e+00 0.0000000e+00 1.7250000e+01 
0.0000000e+00 0.0000000e+00 1.7500000e+01 
0.0000000e+00 0.0000000e+00 1.7750000e+01 
0.0000000e+00 0.0000000e+00 1.8000000e+01 
5.0000000e-01 0.0000000e+00 3.0000000e+00 
5.0000000e-01 0.0000000e+00 6.0000000e+00 
5.0000000e-01 0.0000000e+00 9.0000000e+00 
5.0000000e-01 0.0000000e+00 1.2000000e+01 
5.0000000e-01 0.0000000e+00 1.5000000e+01 
5.0000000e-01 0.0000000e+00 1.8000000e+01 
1.0000000e+00 0.0000000e+00 3.0000000e+00 
1.0000000e+00 0.0000000e+00 6.0000000e+00 
1.0000000e+00 0.0000000e+00 9.0000000e+00 
1.0000000e+00 0.0000000e+00 1.2000000e+01 
1.0000000e+00 0.0000000e+00 1.5000000e+01 
1.0000000e+00 0.0000000e+00 1.8000000e+01 
1.5000000e+00 0.0000000e+00 3.0000000e+00 
1.5000000e+00 0.0000000e+00 6.0000000e+00 
1.5000000e+00 0.0000000e+00 9.0000000e+00 
1.5000000e+00 0.0000000e+00 1.2000000e+01 
1.5000000e+00 0.0000000e+00 1.5000000e+01 
1.5000000e+00 0.0000000e+00 1.8000000e+01 
2.0000000e+00 0.0000000e+00 3.0000000e+00 
2.0000000e+00 0.0000000e+00 6.0000000e+00 
2.0000000e+00 0.0000000e+00 9.0000000e+00 
2.0000000e+00 0.0000000e+00 1.2000000e+01 
2.0000000e+00 0.0000000e+00 1.5000000e+01 
2.0000000e+00 0.0000000e+00 1.8000000e+01 
2.5000000e+00 0.0000000e+00 3.0000000e+00 
2.5000000e+00 0.0000000e+00 6.0000000e+00 
2.5000000e+00 0.0000000e+00 9.0000000e+00 
2.5000000e+00 0.0000000e+00 1.2000000e+01 
2.5000000e+00 0.0000000e+00 1.5000000e+01 
2.5000000e+00 0.0000000e+00 1.8000000e+01 
3.0000000e+00 0.0000000e+00 3.0000000e+00 
3.0000000e+00 0.0000000e+00 6.0000000e+00 
3.0000000e+00 0.0000000e+00 9.0000000e+00 
3.0000000e+00 0.0000000e+00 1.2000000e+01 
3.0000000e+00 0.0000000e+00 1.5000000e+01 
3.0000000e+00 0.0000000e+00 1.8000000e+01 
3.5000000e+00 0.0000000e+00 3.0000000e+00 
3.5000000e+00 0.0000000e+00 6.0000000e+00 
3.5000000e+00 0.0000000e+00 9.0000000e+00 
3.5000000e+00 0.0000000e+00 1.2000000e+01 
3.5000000e+00 0.0000000e+00 1.5000000e+01 
3.5000000e+00 0.0000000e+00 1.8000000e+01 
4.0000000e+00 0.0000000e+00 3.0000000e+00 
4.0000000e+00 0.0000000e+00 6.0000000e+00 
4.0000000e+00 0.0000000e+00 9.0000000e+00 
4.0000000e+00 0.0000000e+00 1.2000000e+01 
4.0000000e+00 0.0000000e+00 1.5000000e+01 
4.0000000e+00 0.0000000e+00 1.8000000e+01 
4.5000000e+00 0.0000000e+00 3.0000000e+00 
4.5000000e+00 0.0000000e+00 6.0000000e+00 
4.5000000e+00 0.0000000e+00 9.0000000e+00 
4.5000000e+00 0.0000000e+00 1.2000000e+01 
4.5000000e+00 0.0000000e+00 1.5000000e+01 
4.5000000e+00 0.0000000e+00 1.8000000e+01 
5.0000000e+00 0.0000000e+00 3.0000000e+00 
5.0000000e+00 0.0000000e+00 6.0000000e+00 
5.0000000e+00 0.0000000e+00 9.0000000e+00 
5.0000000e+00 0.0000000e+00 1.2000000e+01 
5.0000000e+00 0.0000000e+00 1.5000000e+01 
5.0000000e+00 0.0000000e+00 1.8000000e+01 
5.5000000e+00 0.0000000e+00 3.0000000e+00 
5.5000000e+00 0.0000000e+00 6.0000000e+00 
5.5000000e+00 0.0000000e+00 9.0000000e+00 
5.5000000e+00 0.0000000e+00 1.2000000e+01 
5.5000000e+00 0.0000000e+00 1.5000000e+01 
5.5000000e+00 0.0000000e+00 1.8000000e+01 
6.0000000e+00 0.0000000e+00 0.0000000e+00 
6.0000000e+00 0.0000000e+00 2.5000000e-01 
6.0000000e+00 0.0000000e+00 5.0000000e-01 
6.0000000e+00 0.0000000e+00 7.5000000e-01 
6.0000000e+00 0.0000000e+00 1.0000000e+00 
6.0000000e+00 0.0000000e+00 1.2500000e+00 
6.0000000e+00 0.0000000e+00 1.5000000e+00 
6.0000000e+00 0.0000000e+00 1.7500000e+00 
6.0000000e+00 0.0000000e+00 2.0000000e+00 
6.0000000e+00 0.0000000e+00 2.2500000e+00 
6.0000000e+00 0.0000000e+00 2.5000000e+00 
6.0000000e+00 0.0000000e+00 2.7500000e+00 
6.0000000e+00 0.0000000e+00 3.0000000e+00 
6.0000000e+00 0.0000000e+00 3.2500000e+00 
6.0000000e+00 0.0000000e+00 3.5000000e+00 
6.0000000e+00 0.0000000e+00 3.7500000e+00 
6.0000000e+00 0.0000000e+00 4.0000000e+00 
6.0000000e+00 0.0000000e+00 4.2500000e+00 
6.0000000e+00 0.0000000e+00 4.5000000e+00 
6.0000000e+00 0.0000000e+00 4.7500000e+00 
6.0000000e+00 0.0000000e+00 5.0000000e+00 
6.0000000e+00 0.0000000e+00 5.2500000e+00 
6.0000000e+00 0.0000000e+00 5.5000000e+00 
6.0000000e+00 0.0000000e+00 5.7500000e+00 
6.0000000e+00 0.0000000e+00 6.0000000e+00 
6.0000000e+00 0.0000000e+00 6.2500000e+00 
6.0000000e+00 0.0000000e+00 6.5000000e+00 
6.0000000e+00 0.0000000e+00 6.7500000e+00 
6.0000000e+00 0.0000000e+00 7.0000000e+00 
6.0000000e+00 0.0000000e+00 7.2500000e+00 
6.0000000e+00 0.0000000e+00 7.5000000e+00 
6.0000000e+00 0.0000000e+00 7.7500000e+00 
6.0000000e+00 0.0000000e+00 8.0000000e+00 
6.0000000e+00 0.0000000e+00 8.2500000e+00 
6.0000000e+00 0.0000000e+00 8.5000000e+00 
6.0000000e+00 0.0000000e+00 8.7500000e+00 
6.0000000e+00 0.0000000e+00 9.0000000e+00 
6.0000000e+00 0.0000000e+00 9.2500000e+00 
6.0000000e+00 0.0000000e+00 9.5000000e+00 
6.0000000e+00 0.0000000e+00 9.7500000e+00 
6.0000000e+00 0.0000000e+00 1.0000000e+01 
6.0000000e+00 0.0000000e+00 1.0250000e+01 
6.0000000e+00 0.0000000e+00 1.0500000e+01 
6.0000000e+00 0.0000000e+00 1.0750000e+01 
6.0000000e+00 0.0000000e+00 1.1000000e+01 
6.0000000e+00 0.0000000e+00 1.1250000e+01 
6.0000000e+00 0.0000000e+00 1.1500000e+01 
6.0000000e+00 0.0000000e+00 1.1750000e+01 
6.0000000e+00 0.0000000e+00 1.2000000e+01 
6.0000000e+00 0.0000000e+00 1.2250000e+01 
6.0000000e+00 0.0000000e+00 1.2500000e+01 
6.0000000e+00 0.0000000e+00 1.2750000e+01 
6.0000000e+00 0.0000000e+00 1.3000000e+01 
6.0000000e+00 0.0000000e+00 1.3250000e+01 
6.0000000e+00 0.0000000e+00 1.3500000e+01 
6.0000000e+00 0.0000000e+00 1.3750000e+01 
6.0000000e+00 0.0000000e+00 1.4000000e+01 
6.0000000e+00 0.0000000e+00 1.4250000e+01 
6.0000000e+00 0.0000000e+00 1.4500000e+01 
6.0000000e+00 0.0000000e+00 1.4750000e+01 
6.0000000e+00 0.0000000e+00 1.5000000e+01 
6.0000000e+00 0.0000000e+00 1.5250000e+01 
6.0000000e+00 0.0000000e+00 1.5500000e+01 
6.0000000e+00 0.0000000e+00 1.5750000e+01 
6.0000000e+00 0.0000000e+00 1.6000000e+01 
6.0000000e+00 0.0000000e+00 1.6250000e+01 
6.0000000e+00 0.0000000e+00 1.6500000e+01 
6.0000000e+00 0.0000000e+00 1.6750000e+01 
6.0000000e+00 0.0000000e+00 1.7000000e+01 
6.0000000e+00 0.0000000e+00 1.7250000e+01 
6.0000000e+00 0.0000000e+00 1.7500000e+01 
6.0000000e+00 0.0000000e+00 1.7750000e+01 
6.0000000e+00 0.0000000e+00 1.8000000e+01 

CELLS 216 648
2 0 1
2 1 2
2 2 3
2 3 4
2 4 5
2 5 6
2 6 7
2 7 8
2 8 9
2 9 10
2 10 11
2 11 12
2 12 13
2 13 14
2 14 15
2 15 16
2 16 17
2 17 18
2 18 19
2 19 20
2 20 21
2 21 22
2 22 23
2 23 24
2 24 25
2 25 26
2 26 27
2 27 28
2 28 29
2 29 30
2 30 31
2 31 32
2 32 33
2 33 34
2 34 35
2 35 36
2 36 37
2 37 38
2 38 39
2 39 40
2 40 41
2 41 42
2 42 43
2 43 44
2 44 45
2 45 46
2 46 47
2 47 48
2 48 49
2 49 50
2 50 51
2 51 52
2 52 53
2 53 54
2 54 55
2 55 56
2 56 57
2 57 58
2 58 59
2 59 60
2 60 61
2 61 62
2 62 63
2 63 64
2 64 65
2 65 66
2 66 67
2 67 68
2 68 69
2 69 70
2 70 71
2 71 72
2 139 140
2 140 141
2 141 142
2 142 143
2 143 144
2 144 145
2 145 146
2 146 147
2 147 148
2 148 149
2 149 150
2 150 151
2 151 152
2 152 153
2 153 154
2 154 155
2 155 156
2 156 157
2 157 158
2 158 159
2 159 160
2 160 161
2 161 162
2 162 163
2 163 164
2 164 165
2 165 166
2 166 167
2 167 168
2 168 169
2 169 170
2 170 171
2 171 172
2 172 173
2 173 174
2 174 175
2 175 176
2 176 177
2 177 178
2 178 179
2 179 180
2 180 181
2 181 182
2 182 183
2 183 184
2 184 185
2 185 186
2 186 187
2 187 188
2 188 189
2 189 190
2 190 191
2 191 192
2 192 193
2 193 194
2 194 195
2 195 196
2 196 197
2 197 198
2 198 199
2 199 200
2 200 201
2 201 202
2 202 203
2 203 204
2 204 205
2 205 206
2 206 207
2 207 208
2 208 209
2 209 210
2 210 211
2 12 73
2 73 79
2 79 85
2 85 91
2 91 97
2 97 103
2 103 109
2 109 115
2 115 121
2 121 127
2 127 133
2 133 151
2 24 74
2 74 80
2 80 86
2 86 92
2 92 98
2 98 104
2 104 110
2 110 116
2 116 122
2 122 128
2 128 134
2 134 163
2 36 75
2 75 81
2 81 87
2 87 93
2 93 99
2 99 105
2 105 111
2 111 117
2 117 123
2 123 129
2 129 135
2 135 175
2 48 76
2 76 82
2 82 88
2 88 94
2 94 100
2 100 106
2 106 112
2 112 118
2 118 124
2 124 130
2 130 136
2 136 187
2 60 77
2 77 83
2 83 89
2 89 95
2 95 101
2 101 107
2 107 113
2 113 119
2 119 125
2 125 131
2 131 137
2 137 199
2 72 78
2 78 84
2 84 90
2 90 96
2 96 102
2 102 108
2 108 114
2 114 120
2 120 126
2 126 132
2 132 138
2 138 211

CELL_TYPES 216
3
3
3
3
3
3
3
3
3
3
3
3
3
3
3
3
3
3
3
3
3
3
3
3
3
3
3
3
3
3
3
3
3
3
3
3
3
3
3
3
3
3
3
3
3
3
3
3
3
3
3
3
3
3
3
3
3
3
3
3
3
3
3
3
3
3
3
3
3
3
3
3
3
3
3
3
3
3
3
3
3
3
3
3
3
3
3
3
3
3
3
3
3
3
3
3
3
3
3
3
3
3
3
3
3
3
3
3
3
3
3
3
3
3
3
3
3
3
3
3
3
3
3
3
3
3
3
3
3
3
3
3
3
3
3
3
3
3
3
3
3
3
3
3
3
3
3
3
3
3
3
3
3
3
3
3
3
3
3
3
3
3
3
3
3
3
3
3
3
3
3
3
3
3
3
3
3
3
3
3
3
3
3
3
3
3
3
3
3
3
3
3
3
3
3
3
3
3
3
3
3
3
3
3
3
3
3
3
3
3
3
3
3
3
3
3
POINT_DATA 212
FIELD FieldData 3
ADJOINT_DISPLACEMENT 3 212  float
0.0000000e+00 0.0000000e+00 0.0000000e+00 
-3.1436384e-03 0.0000000e+00 2.8032590e-16 
-6.3060964e-03 0.0000000e+00 5.6065180e-16 
-9.5061939e-03 0.0000000e+00 8.4097767e-16 
-1.2762750e-02 0.0000000e+00 1.1213036e-15 
-1.6094586e-02 0.0000000e+00 1.4016295e-15 
-1.9520519e-02 0.0000000e+00 1.6819553e-15 
-2.3059372e-02 0.0000000e+00 1.9622812e-15 
-2.6729960e-02 0.0000000e+00 2.2426072e-15 
-3.0551108e-02 0.0000000e+00 2.5229329e-15 
-3.4541633e-02 0.0000000e+00 2.8032589e-15 
-3.8720354e-02 0.0000000e+00 3.0835847e-15 
-4.3106090e-02 0.0000000e+00 3.3639107e-15 
-4.8182104e-02 0.0000000e+00 1.1370540e-06 
-5.4343428e-02 0.0000000e+00 2.2741081e-06 
-6.1476551e-02 0.0000000e+00 3.4111620e-06 
-6.9467954e-02 0.0000000e+00 4.5482161e-06 
-7.8204140e-02 0.0000000e+00 5.6852700e-06 
-8.7571584e-02 0.0000000e+00 6.8223239e-06 
-9.7456776e-02 0.0000000e+00 7.9593783e-06 
-1.0774620e-01 0.0000000e+00 9.0964322e-06 
-1.1832635e-01 0.0000000e+00 1.0233486e-05 
-1.2908372e-01 0.0000000e+00 1.1370540e-05 
-1.3990478e-01 0.0000000e+00 1.2507594e-05 
-1.5067603e-01 0.0000000e+00 1.3644648e-05 
-1.6302823e-01 0.0000000e+00 1.9330279e-05 
-1.7899707e-01 0.0000000e+00 2.5015908e-05 
-1.9907640e-01 0.0000000e+00 3.0701536e-05 
-2.2376010e-01 0.0000000e+00 3.6387170e-05 
-2.5354201e-01 0.0000000e+00 4.2072799e-05 
-2.8891599e-01 0.0000000e+00 4.7758429e-05 
-3.3037591e-01 0.0000000e+00 5.3444059e-05 
-3.7841561e-01 0.0000000e+00 5.9129688e-05 
-4.3352902e-01 0.0000000e+00 6.4815315e-05 
-4.9620989e-01 0.0000000e+00 7.0500952e-05 
-5.6695217e-01 0.0000000e+00 7.6186581e-05 
-6.4624971e-01 0.0000000e+00 8.1872211e-05 
-7.2554189e-01 0.0000000e+00 7.6174088e-05 
-7.9626834e-01 0.0000000e+00 7.0475966e-05 
-8.5892320e-01 0.0000000e+00 6.4777843e-05 
-9.1400039e-01 0.0000000e+00 5.9079717e-05 
-9.6199411e-01 0.0000000e+00 5.3381595e-05 
-1.0033984e+00 0.0000000e+00 4.7683472e-05 
-1.0387073e+00 0.0000000e+00 4.1985353e-05 
-1.0684149e+00 0.0000000e+00 3.6287231e-05 
-1.0930152e+00 0.0000000e+00 3.0589108e-05 
-1.1130024e+00 0.0000000e+00 2.4890984e-05 
-1.1288705e+00 0.0000000e+00 1.9192861e-05 
-1.1411136e+00 0.0000000e+00 1.3494740e-05 
-1.1517528e+00 0.0000000e+00 1.2307712e-05 
-1.1624038e+00 0.0000000e+00 1.1120685e-05 
-1.1729522e+00 0.0000000e+00 9.9336576e-06 
-1.1832838e+00 0.0000000e+00 8.7466296e-06 
-1.1932845e+00 0.0000000e+00 7.5596026e-06 
-1.2028399e+00 0.0000000e+00 6.3725752e-06 
-1.2118356e+00 0.0000000e+00 5.1855477e-06 
-1.2201576e+00 0.0000000e+00 3.9985207e-06 
-1.2276915e+00 0.0000000e+00 2.8114930e-06 
-1.2343231e+00 0.0000000e+00 1.6244658e-06 
-1.2399383e+00 0.0000000e+00 4.3743836e-07 
-1.2444226e+00 0.0000000e+00 -7.4958905e-07 
-1.2480960e+00 0.0000000e+00 -9.8697944e-07 
-1.2513695e+00 0.0000000e+00 -1.2243700e-06 
-1.2542650e+00 0.0000000e+00 -1.4617603e-06 
-1.2568045e+00 0.0000000e+00 -1.6991507e-06 
-1.2590100e+00 0.0000000e+00 -1.9365411e-06 
-1.2609034e+00 0.0000000e+00 -2.1739318e-06 
-1.2625066e+00 0.0000000e+00 -2.4113222e-06 
-1.2638419e+00 0.0000000e+00 -2.6487126e-06 
-1.2649310e+00 0.0000000e+00 -2.8861029e-06 
-1.2657959e+00 0.0000000e+00 -3.1234933e-06 
-1.2664586e+00 0.0000000e+00 -3.3608837e-06 
-1.2669413e+00 0.0000000e+00 -3.5982744e-06 
-4.3102067e-02 0.0000000e+00 7.1447920e-03 
-1.5069449e-01 0.0000000e+00 1.5257389e-02 
-6.4624971e-01 0.0000000e+00 2.0278075e-01 
-1.1410952e+00 0.0000000e+00 1.5085790e-02 
-1.2444267e+00 0.0000000e+00 6.1978255e-03 
-1.2669406e+00 0.0000000e+00 5.0040713e-04 
-4.3098044e-02 0.0000000e+00 1.0995996e-02 
-1.5071297e-01 0.0000000e+00 1.9750360e-02 
-6.4624971e-01 0.0000000e+00 -2.8075332e-02 
-1.1410767e+00 0.0000000e+00 1.9504236e-02 
-1.2444308e+00 0.0000000e+00 9.6036280e-03 
-1.2669399e+00 0.0000000e+00 4.9647177e-04 
-4.3094020e-02 0.0000000e+00 1.2151972e-02 
-1.5073143e-01 0.0000000e+00 1.5886188e-02 
-6.4624971e-01 0.0000000e+00 -1.9847694e-01 
-1.1410581e+00 0.0000000e+00 1.5642738e-02 
-1.2444350e+00 0.0000000e+00 1.0716392e-02 
-1.2669393e+00 0.0000000e+00 1.0951932e-04 
-4.3089997e-02 0.0000000e+00 1.1211082e-02 
-1.5074989e-01 0.0000000e+00 6.0585029e-03 
-6.4624971e-01 0.0000000e+00 -3.1441462e-01 
-1.1410396e+00 0.0000000e+00 5.8752033e-03 
-1.2444391e+00 0.0000000e+00 1.0035852e-02 
-1.2669386e+00 0.0000000e+00 -5.3552643e-04 
-4.3085974e-02 0.0000000e+00 8.7716850e-03 
-1.5076835e-01 0.0000000e+00 -7.3390617e-03 
-6.4624971e-01 0.0000000e+00 -3.8187894e-01 
-1.1410211e+00 0.0000000e+00 -7.4244598e-03 
-1.2444433e+00 0.0000000e+00 8.0617433e-03 
-1.2669380e+00 0.0000000e+00 -1.3137418e-03 
-4.3081950e-02 0.0000000e+00 5.4321419e-03 
-1.5078683e-01 0.0000000e+00 -2.1912877e-02 
-6.4624971e-01 0.0000000e+00 -4.0686047e-01 
-1.1410027e+00 0.0000000e+00 -2.1882344e-02 
-1.2444474e+00 0.0000000e+00 5.2937996e-03 
-1.2669373e+00 0.0000000e+00 -2.1002030e-03 
-4.3077927e-02 0.0000000e+00 1.7908134e-03 
-1.5080529e-01 0.0000000e+00 -3.5269309e-02 
-6.4624971e-01 0.0000000e+00 -3.9534974e-01 
-1.1409842e+00 0.0000000e+00 -3.5124544e-02 
-1.2444515e+00 0.0000000e+00 2.2317565e-03 
-1.2669365e+00 0.0000000e+00 -2.7699859e-03 
-4.3073904e-02 0.0000000e+00 -1.5539406e-03 
-1.5082376e-01 0.0000000e+00 -4.5014728e-02 
-6.4624977e-01 0.0000000e+00 -3.5333732e-01 
-1.1409657e+00 0.0000000e+00 -4.4777147e-02 
-1.2444557e+00 0.0000000e+00 -6.2465231e-04 
-1.2669359e+00 0.0000000e+00 -3.1981675e-03 
-4.3069880e-02 0.0000000e+00 -4.0037595e-03 
-1.5084223e-01 0.0000000e+00 -4.8755500e-02 
-6.4624977e-01 0.0000000e+00 -2.8681377e-01 
-1.1409471e+00 0.0000000e+00 -4.8466254e-02 
-1.2444599e+00 0.0000000e+00 -2.7756919e-03 
-1.2669352e+00 0.0000000e+00 -3.2598237e-03 
-4.3065857e-02 0.0000000e+00 -4.9602822e-03 
-1.5086070e-01 0.0000000e+00 -4.4098001e-02 
-6.4624977e-01 0.0000000e+00 -2.0176964e-01 
-1.1409286e+00 0.0000000e+00 -4.3817952e-02 
-1.2444639e+00 0.0000000e+00 -3.7216279e-03 
-1.2669346e+00 0.0000000e+00 -2.8300304e-03 
-4.3061834e-02 0.0000000e+00 -3.8251495e-03 
-1.5087916e-01 0.0000000e+00 -2.8648591e-02 
-6.4624977e-01 0.0000000e+00 -1.0419548e-01 
-1.1409101e+00 0.0000000e+00 -2.8458335e-02 
-1.2444681e+00 0.0000000e+00 -2.9627255e-03 
-1.2669339e+00 0.0000000e+00 -1.7838645e-03 
0.0000000e+00 0.0000000e+00 0.0000000e+00 
-4.0366868e-03 0.0000000e+00 -2.1674569e-16 
-8.0545545e-03 0.0000000e+00 -4.3349741e-16 
-1.2034782e-02 0.0000000e+00 -6.5024131e-16 
-1.5958551e-02 0.0000000e+00 -8.6698237e-16 
-1.9807041e-02 0.0000000e+00 -1.0837170e-15 
-2.3561431e-02 0.0000000e+00 -1.3004405e-15 
-2.7202906e-02 0.0000000e+00 -1.5171460e-15 
-3.0712640e-02 0.0000000e+00 -1.7338485e-15 
-3.4071818e-02 0.0000000e+00 -1.9505430e-15 
-3.7261620e-02 0.0000000e+00 -2.1672399e-15 
-4.0263224e-02 0.0000000e+00 -2.3839454e-15 
-4.3057811e-02 0.0000000e+00 -2.6006283e-15 
-4.6059664e-02 0.0000000e+00 -1.1370540e-06 
-4.9771287e-02 0.0000000e+00 -2.2741081e-06 
-5.4306194e-02 0.0000000e+00 -3.4111620e-06 
-5.9777897e-02 0.0000000e+00 -4.5482161e-06 
-6.6299908e-02 0.0000000e+00 -5.6852700e-06 
-7.3985733e-02 0.0000000e+00 -6.8223239e-06 
-8.2948893e-02 0.0000000e+00 -7.9593783e-06 
-9.3302906e-02 0.0000000e+00 -9.0964322e-06 
-1.0516126e-01 0.0000000e+00 -1.0233486e-05 
-1.1863750e-01 0.0000000e+00 -1.1370540e-05 
-1.3384512e-01 0.0000000e+00 -1.2507594e-05 
-1.5089764e-01 0.0000000e+00 -1.3644648e-05 
-1.7175472e-01 0.0000000e+00 -1.9330279e-05 
-1.9797114e-01 0.0000000e+00 -2.5015908e-05 
-2.2905305e-01 0.0000000e+00 -3.0701536e-05 
-2.6450658e-01 0.0000000e+00 -3.6387170e-05 
-3.0383784e-01 0.0000000e+00 -4.2072799e-05 
-3.4655303e-01 0.0000000e+00 -4.7758429e-05 
-3.9215824e-01 0.0000000e+00 -5.3444059e-05 
-4.4015965e-01 0.0000000e+00 -5.9129688e-05 
-4.9006334e-01 0.0000000e+00 -6.4815315e-05 
-5.4137552e-01 0.0000000e+00 -7.0500952e-05 
-5.9360230e-01 0.0000000e+00 -7.6186581e-05 
-6.4624977e-01 0.0000000e+00 -8.1872211e-05 
-6.9889271e-01 0.0000000e+00 -7.6174088e-05 
-7.5110573e-01 0.0000000e+00 -7.0475966e-05 
-8.0239463e-01 0.0000000e+00 -6.4777843e-05 
-8.5226548e-01 0.0000000e+00 -5.9079717e-05 
-9.0022415e-01 0.0000000e+00 -5.3381595e-05 
-9.4577652e-01 0.0000000e+00 -4.7683472e-05 
-9.8842859e-01 0.0000000e+00 -4.1985353e-05 
-1.0276862e+00 0.0000000e+00 -3.6287231e-05 
-1.0630555e+00 0.0000000e+00 -3.0589108e-05 
-1.0940422e+00 0.0000000e+00 -2.4890984e-05 
-1.1201522e+00 0.0000000e+00 -1.9192861e-05 
-1.1408917e+00 0.0000000e+00 -1.3494740e-05 
-1.1578001e+00 0.0000000e+00 -1.2307712e-05 
-1.1728228e+00 0.0000000e+00 -1.1120685e-05 
-1.1860741e+00 0.0000000e+00 -9.9336576e-06 
-1.1976682e+00 0.0000000e+00 -8.7466296e-06 
-1.2077193e+00 0.0000000e+00 -7.5596026e-06 
-1.2163417e+00 0.0000000e+00 -6.3725752e-06 
-1.2236497e+00 0.0000000e+00 -5.1855477e-06 
-1.2297575e+00 0.0000000e+00 -3.9985207e-06 
-1.2347795e+00 0.0000000e+00 -2.8114930e-06 
-1.2388297e+00 0.0000000e+00 -1.6244658e-06 
-1.2420225e+00 0.0000000e+00 -4.3743833e-07 
-1.2444723e+00 0.0000000e+00 7.4958905e-07 
-1.2466084e+00 0.0000000e+00 9.8697944e-07 
-1.2487696e+00 0.0000000e+00 1.2243700e-06 
-1.2509341e+00 0.0000000e+00 1.4617603e-06 
-1.2530799e+00 0.0000000e+00 1.6991507e-06 
-1.2551849e+00 0.0000000e+00 1.9365411e-06 
-1.2572272e+00 0.0000000e+00 2.1739318e-06 
-1.2591848e+00 0.0000000e+00 2.4113222e-06 
-1.2610357e+00 0.0000000e+00 2.6487126e-06 
-1.2627580e+00 0.0000000e+00 2.8861029e-06 
-1.2643297e+00 0.0000000e+00 3.1234933e-06 
-1.2657287e+00 0.0000000e+00 3.3608840e-06 
-1.2669332e+00 0.0000000e+00 3.5982744e-06 
ADJOINT_ROTATION 3 212  float
0.0000000e+00 -1.2562007e-02 0.0000000e+00 
0.0000000e+00 -1.2599646e-02 0.0000000e+00 
0.0000000e+00 -1.2712564e-02 0.0000000e+00 
0.0000000e+00 -1.2900761e-02 0.0000000e+00 
0.0000000e+00 -1.3164237e-02 0.0000000e+00 
0.0000000e+00 -1.3502992e-02 0.0000000e+00 
0.0000000e+00 -1.3917024e-02 0.0000000e+00 
0.0000000e+00 -1.4406336e-02 0.0000000e+00 
0.0000000e+00 -1.4970927e-02 0.0000000e+00 
0.0000000e+00 -1.5610797e-02 0.0000000e+00 
0.0000000e+00 -1.6325945e-02 0.0000000e+00 
0.0000000e+00 -1.7116373e-02 0.0000000e+00 
0.0000000e+00 -1.7982079e-02 0.0000000e+00 
0.0000000e+00 -2.2550346e-02 0.0000000e+00 
0.0000000e+00 -2.6664566e-02 0.0000000e+00 
0.0000000e+00 -3.0324735e-02 0.0000000e+00 
0.0000000e+00 -3.3530854e-02 0.0000000e+00 
0.0000000e+00 -3.6282923e-02 0.0000000e+00 
0.0000000e+00 -3.8580943e-02 0.0000000e+00 
0.0000000e+00 -4.0424913e-02 0.0000000e+00 
0.0000000e+00 -4.1814834e-02 0.0000000e+00 
0.0000000e+00 -4.2750705e-02 0.0000000e+00 
0.0000000e+00 -4.3232527e-02 0.0000000e+00 
0.0000000e+00 -4.3260295e-02 0.0000000e+00 
0.0000000e+00 -4.2834017e-02 0.0000000e+00 
0.0000000e+00 -5.6312840e-02 0.0000000e+00 
0.0000000e+00 -7.1767107e-02 0.0000000e+00 
0.0000000e+00 -8.9196809e-02 0.0000000e+00 
0.0000000e+00 -1.0860196e-01 0.0000000e+00 
0.0000000e+00 -1.2998255e-01 0.0000000e+00 
0.0000000e+00 -1.5333857e-01 0.0000000e+00 
0.0000000e+00 -1.7867005e-01 0.0000000e+00 
0.0000000e+00 -2.0597696e-01 0.0000000e+00 
0.0000000e+00 -2.3525931e-01 0.0000000e+00 
0.0000000e+00 -2.6651710e-01 0.0000000e+00 
0.0000000e+00 -2.9975036e-01 0.0000000e+00 
0.0000000e+00 -3.3495903e-01 0.0000000e+00 
0.0000000e+00 -2.9970798e-01 0.0000000e+00 
0.0000000e+00 -2.6643321e-01 0.0000000e+00 
0.0000000e+00 -2.3513471e-01 0.0000000e+00 
0.0000000e+00 -2.0581251e-01 0.0000000e+00 
0.0000000e+00 -1.7846659e-01 0.0000000e+00 
0.0000000e+00 -1.5309694e-01 0.0000000e+00 
0.0000000e+00 -1.2970360e-01 0.0000000e+00 
0.0000000e+00 -1.0828651e-01 0.0000000e+00 
0.0000000e+00 -8.8845730e-02 0.0000000e+00 
0.0000000e+00 -7.1381219e-02 0.0000000e+00 
0.0000000e+00 -5.5892993e-02 0.0000000e+00 
0.0000000e+00 -4.2381048e-02 0.0000000e+00 
0.0000000e+00 -4.2656492e-02 0.0000000e+00 
0.0000000e+00 -4.2474918e-02 0.0000000e+00 
0.0000000e+00 -4.1836325e-02 0.0000000e+00 
0.0000000e+00 -4.0740710e-02 0.0000000e+00 
0.0000000e+00 -3.9188076e-02 0.0000000e+00 
0.0000000e+00 -3.7178423e-02 0.0000000e+00 
0.0000000e+00 -3.4711748e-02 0.0000000e+00 
0.0000000e+00 -3.1788055e-02 0.0000000e+00 
0.0000000e+00 -2.8407341e-02 0.0000000e+00 
0.0000000e+00 -2.4569606e-02 0.0000000e+00 
0.0000000e+00 -2.0274853e-02 0.0000000e+00 
0.0000000e+00 -1.5523079e-02 0.0000000e+00 
0.0000000e+00 -1.3879257e-02 0.0000000e+00 
0.0000000e+00 -1.2323345e-02 0.0000000e+00 
0.0000000e+00 -1.0855342e-02 0.0000000e+00 
0.0000000e+00 -9.4752489e-03 0.0000000e+00 
0.0000000e+00 -8.1830639e-03 0.0000000e+00 
0.0000000e+00 -6.9787889e-03 0.0000000e+00 
0.0000000e+00 -5.8624232e-03 0.0000000e+00 
0.0000000e+00 -4.8339670e-03 0.0000000e+00 
0.0000000e+00 -3.8934196e-03 0.0000000e+00 
0.0000000e+00 -3.0407819e-03 0.0000000e+00 
0.0000000e+00 -2.2760534e-03 0.0000000e+00 
0.0000000e+00 -1.5992342e-03 0.0000000e+00 
0.0000000e+00 -1.0796542e-02 0.0000000e+00 
0.0000000e+00 -1.8938838e-02 0.0000000e+00 
0.0000000e+00 -4.7383964e-01 0.0000000e+00 
0.0000000e+00 -1.8699439e-02 0.0000000e+00 
0.0000000e+00 -9.4377985e-03 0.0000000e+00 
0.0000000e+00 -4.5842878e-04 0.0000000e+00 
0.0000000e+00 -4.8077269e-03 0.0000000e+00 
0.0000000e+00 1.6907918e-04 0.0000000e+00 
0.0000000e+00 3.9926085e-01 0.0000000e+00 
0.0000000e+00 2.3435552e-04 0.0000000e+00 
0.0000000e+00 -4.3519880e-03 0.0000000e+00 
0.0000000e+00 4.3252908e-04 0.0000000e+00 
0.0000000e+00 -1.5632717e-05 0.0000000e+00 
0.0000000e+00 1.4489734e-02 0.0000000e+00 
0.0000000e+00 2.8434244e-01 0.0000000e+00 
0.0000000e+00 1.4420335e-02 0.0000000e+00 
0.0000000e+00 -2.6564609e-04 0.0000000e+00 
0.0000000e+00 1.0736395e-03 0.0000000e+00 
0.0000000e+00 3.5797409e-03 0.0000000e+00 
0.0000000e+00 2.4023127e-02 0.0000000e+00 
0.0000000e+00 1.8140516e-01 0.0000000e+00 
0.0000000e+00 2.3858501e-02 0.0000000e+00 
0.0000000e+00 2.8212266e-03 0.0000000e+00 
0.0000000e+00 1.4649023e-03 0.0000000e+00 
0.0000000e+00 5.9783934e-03 0.0000000e+00 
0.0000000e+00 2.8769257e-02 0.0000000e+00 
0.0000000e+00 9.0448990e-02 0.0000000e+00 
0.0000000e+00 2.8548850e-02 0.0000000e+00 
0.0000000e+00 4.9086302e-03 0.0000000e+00 
0.0000000e+00 1.6063177e-03 0.0000000e+00 
0.0000000e+00 7.1803252e-03 0.0000000e+00 
0.0000000e+00 2.8728124e-02 0.0000000e+00 
0.0000000e+00 1.1473937e-02 0.0000000e+00 
0.0000000e+00 2.8491385e-02 0.0000000e+00 
0.0000000e+00 5.9965649e-03 0.0000000e+00 
0.0000000e+00 1.4978856e-03 0.0000000e+00 
0.0000000e+00 7.1855360e-03 0.0000000e+00 
0.0000000e+00 2.3899728e-02 0.0000000e+00 
0.0000000e+00 -5.5520002e-02 0.0000000e+00 
0.0000000e+00 2.3686107e-02 0.0000000e+00 
0.0000000e+00 6.0850303e-03 0.0000000e+00 
0.0000000e+00 1.1396059e-03 0.0000000e+00 
0.0000000e+00 5.9940261e-03 0.0000000e+00 
0.0000000e+00 1.4284071e-02 0.0000000e+00 
0.0000000e+00 -1.1053283e-01 0.0000000e+00 
0.0000000e+00 1.4133014e-02 0.0000000e+00 
0.0000000e+00 5.1740264e-03 0.0000000e+00 
0.0000000e+00 5.3147884e-04 0.0000000e+00 
0.0000000e+00 3.6057953e-03 0.0000000e+00 
0.0000000e+00 -1.1885001e-04 0.0000000e+00 
0.0000000e+00 -1.5356454e-01 0.0000000e+00 
0.0000000e+00 -1.6789472e-04 0.0000000e+00 
0.0000000e+00 3.2635536e-03 0.0000000e+00 
0.0000000e+00 -3.2649579e-04 0.0000000e+00 
0.0000000e+00 2.0843623e-05 0.0000000e+00 
0.0000000e+00 -1.9309033e-02 0.0000000e+00 
0.0000000e+00 -1.8461514e-01 0.0000000e+00 
0.0000000e+00 -1.9216618e-02 0.0000000e+00 
0.0000000e+00 3.5361177e-04 0.0000000e+00 
0.0000000e+00 -1.4343179e-03 0.0000000e+00 
0.0000000e+00 -4.7608288e-03 0.0000000e+00 
0.0000000e+00 -4.3286476e-02 0.0000000e+00 
0.0000000e+00 -2.0368461e-01 0.0000000e+00 
0.0000000e+00 -4.3013155e-02 0.0000000e+00 
0.0000000e+00 -3.5557994e-03 0.0000000e+00 
0.0000000e+00 -2.7919875e-03 0.0000000e+00 
0.0000000e+00 -1.6159294e-02 0.0000000e+00 
0.0000000e+00 -1.6121654e-02 0.0000000e+00 
0.0000000e+00 -1.6008737e-02 0.0000000e+00 
0.0000000e+00 -1.5820539e-02 0.0000000e+00 
0.0000000e+00 -1.5557064e-02 0.0000000e+00 
0.0000000e+00 -1.5218309e-02 0.0000000e+00 
0.0000000e+00 -1.4804276e-02 0.0000000e+00 
0.0000000e+00 -1.4314964e-02 0.0000000e+00 
0.0000000e+00 -1.3750373e-02 0.0000000e+00 
0.0000000e+00 -1.3110504e-02 0.0000000e+00 
0.0000000e+00 -1.2395355e-02 0.0000000e+00 
0.0000000e+00 -1.1604928e-02 0.0000000e+00 
0.0000000e+00 -1.0739222e-02 0.0000000e+00 
0.0000000e+00 -1.3351279e-02 0.0000000e+00 
0.0000000e+00 -1.6417386e-02 0.0000000e+00 
0.0000000e+00 -1.9937541e-02 0.0000000e+00 
0.0000000e+00 -2.3911746e-02 0.0000000e+00 
0.0000000e+00 -2.8340003e-02 0.0000000e+00 
0.0000000e+00 -3.3222307e-02 0.0000000e+00 
0.0000000e+00 -3.8558662e-02 0.0000000e+00 
0.0000000e+00 -4.4349067e-02 0.0000000e+00 
0.0000000e+00 -5.0593521e-02 0.0000000e+00 
0.0000000e+00 -5.7292026e-02 0.0000000e+00 
0.0000000e+00 -6.4444579e-02 0.0000000e+00 
0.0000000e+00 -7.2051182e-02 0.0000000e+00 
0.0000000e+00 -9.4476260e-02 0.0000000e+00 
0.0000000e+00 -1.1492590e-01 0.0000000e+00 
0.0000000e+00 -1.3340010e-01 0.0000000e+00 
0.0000000e+00 -1.4989884e-01 0.0000000e+00 
0.0000000e+00 -1.6442215e-01 0.0000000e+00 
0.0000000e+00 -1.7697003e-01 0.0000000e+00 
0.0000000e+00 -1.8754245e-01 0.0000000e+00 
0.0000000e+00 -1.9613944e-01 0.0000000e+00 
0.0000000e+00 -2.0276099e-01 0.0000000e+00 
0.0000000e+00 -2.0740710e-01 0.0000000e+00 
0.0000000e+00 -2.1007776e-01 0.0000000e+00 
0.0000000e+00 -2.1077298e-01 0.0000000e+00 
0.0000000e+00 -2.1004124e-01 0.0000000e+00 
0.0000000e+00 -2.0733322e-01 0.0000000e+00 
0.0000000e+00 -2.0264892e-01 0.0000000e+00 
0.0000000e+00 -1.9598834e-01 0.0000000e+00 
0.0000000e+00 -1.8735148e-01 0.0000000e+00 
0.0000000e+00 -1.7673834e-01 0.0000000e+00 
0.0000000e+00 -1.6414890e-01 0.0000000e+00 
0.0000000e+00 -1.4958319e-01 0.0000000e+00 
0.0000000e+00 -1.3304119e-01 0.0000000e+00 
0.0000000e+00 -1.1452291e-01 0.0000000e+00 
0.0000000e+00 -9.4028354e-02 0.0000000e+00 
0.0000000e+00 -7.1557507e-02 0.0000000e+00 
0.0000000e+00 -6.3786164e-02 0.0000000e+00 
0.0000000e+00 -5.6471836e-02 0.0000000e+00 
0.0000000e+00 -4.9614530e-02 0.0000000e+00 
0.0000000e+00 -4.3214247e-02 0.0000000e+00 
0.0000000e+00 -3.7270982e-02 0.0000000e+00 
0.0000000e+00 -3.1784736e-02 0.0000000e+00 
0.0000000e+00 -2.6755508e-02 0.0000000e+00 
0.0000000e+00 -2.2183303e-02 0.0000000e+00 
0.0000000e+00 -1.8068118e-02 0.0000000e+00 
0.0000000e+00 -1.4409951e-02 0.0000000e+00 
0.0000000e+00 -1.1208805e-02 0.0000000e+00 
0.0000000e+00 -8.4646791e-03 0.0000000e+00 
0.0000000e+00 -8.6094160e-03 0.0000000e+00 
0.0000000e+00 -8.6662434e-03 0.0000000e+00 