# vtk DataFile Version 4.0
vtk output
ASCII
DATASET UNSTRUCTURED_GRID
POINTS 30 float
0.0000000e+00 0.0000000e+00 0.0000000e+00 
0.0000000e+00 0.0000000e+00 8.0000001e-01 
0.0000000e+00 0.0000000e+00 1.6000000e+00 
0.0000000e+00 0.0000000e+00 2.4000001e+00 
0.0000000e+00 0.0000000e+00 3.2000000e+00 
0.0000000e+00 0.0000000e+00 4.0000000e+00 
0.0000000e+00 0.0000000e+00 4.8000002e+00 
0.0000000e+00 0.0000000e+00 5.5999999e+00 
0.0000000e+00 0.0000000e+00 6.4000001e+00 
0.0000000e+00 0.0000000e+00 7.1999998e+00 
0.0000000e+00 0.0000000e+00 8.0000000e+00 
1.0000000e+01 0.0000000e+00 0.0000000e+00 
1.0000000e+01 0.0000000e+00 8.0000001e-01 
1.0000000e+01 0.0000000e+00 1.6000000e+00 
1.0000000e+01 0.0000000e+00 2.4000001e+00 
1.0000000e+01 0.0000000e+00 3.2000000e+00 
1.0000000e+01 0.0000000e+00 4.0000000e+00 
1.0000000e+01 0.0000000e+00 4.8000002e+00 
1.0000000e+01 0.0000000e+00 5.5999999e+00 
1.0000000e+01 0.0000000e+00 6.4000001e+00 
1.0000000e+01 0.0000000e+00 7.1999998e+00 
1.0000000e+01 0.0000000e+00 8.0000000e+00 
2.0000000e+00 0.0000000e+00 4.0000000e+00 
4.0000000e+00 0.0000000e+00 4.0000000e+00 
6.0000000e+00 0.0000000e+00 4.0000000e+00 
8.0000000e+00 0.0000000e+00 4.0000000e+00 
2.0000000e+00 0.0000000e+00 8.0000000e+00 
4.0000000e+00 0.0000000e+00 8.0000000e+00 
6.0000000e+00 0.0000000e+00 8.0000000e+00 
8.0000000e+00 0.0000000e+00 8.0000000e+00 

CELLS 30 90
2 0 1
2 1 2
2 2 3
2 3 4
2 4 5
2 5 6
2 6 7
2 7 8
2 8 9
2 9 10
2 11 12
2 12 13
2 13 14
2 14 15
2 15 16
2 16 17
2 17 18
2 18 19
2 19 20
2 20 21
2 5 22
2 22 23
2 23 24
2 24 25
2 25 16
2 10 26
2 26 27
2 27 28
2 28 29
2 29 21

CELL_TYPES 30
3
3
3
3
3
3
3
3
3
3
3
3
3
3
3
3
3
3
3
3
3
3
3
3
3
3
3
3
3
3
POINT_DATA 30
FIELD FieldData 7
DISPLACEMENT 3 30  float
0.0000000e+00 0.0000000e+00 0.0000000e+00 
4.7212974e-03 0.0000000e+00 7.8814164e-06 
9.3141422e-03 0.0000000e+00 1.3902390e-05 
1.3552739e-02 0.0000000e+00 1.7443926e-05 
1.7138874e-02 0.0000000e+00 2.0337076e-05 
1.9852543e-02 0.0000000e+00 2.3230225e-05 
2.1921266e-02 0.0000000e+00 2.4701056e-05 
2.3602096e-02 0.0000000e+00 2.2540582e-05 
2.4835497e-02 0.0000000e+00 2.0449046e-05 
2.5640218e-02 0.0000000e+00 1.8736571e-05 
2.6088281e-02 0.0000000e+00 1.8908475e-05 
0.0000000e+00 0.0000000e+00 0.0000000e+00 
5.2035800e-03 0.0000000e+00 3.6527701e-06 
1.0043101e-02 0.0000000e+00 5.4550692e-06 
1.4228323e-02 0.0000000e+00 4.8957259e-06 
1.7552635e-02 0.0000000e+00 4.7559670e-06 
1.9835768e-02 0.0000000e+00 3.0189090e-06 
2.1468818e-02 0.0000000e+00 7.5623243e-06 
2.2904787e-02 0.0000000e+00 1.4777380e-05 
2.4122965e-02 0.0000000e+00 2.1992435e-05 
2.5144098e-02 0.0000000e+00 2.5644047e-05 
2.6072329e-02 0.0000000e+00 2.9295661e-05 
1.9852003e-02 0.0000000e+00 -3.1225844e-03 
1.9847773e-02 0.0000000e+00 -2.5929566e-03 
1.9843543e-02 0.0000000e+00 -3.6623137e-04 
1.9839613e-02 0.0000000e+00 1.4079411e-03 
2.6080677e-02 0.0000000e+00 -2.9912466e-05 
2.6077336e-02 0.0000000e+00 1.1375381e-03 
2.6073566e-02 0.0000000e+00 2.4260448e-03 
2.6071439e-02 0.0000000e+00 2.0638288e-03 
ROTATION 3 30  float
0.0000000e+00 5.9243189e-03 0.0000000e+00 
0.0000000e+00 5.8562267e-03 0.0000000e+00 
0.0000000e+00 5.5788071e-03 0.0000000e+00 
0.0000000e+00 4.9464521e-03 0.0000000e+00 
0.0000000e+00 3.9781323e-03 0.0000000e+00 
0.0000000e+00 2.7652835e-03 0.0000000e+00 
0.0000000e+00 2.3678653e-03 0.0000000e+00 
0.0000000e+00 1.8240839e-03 0.0000000e+00 
0.0000000e+00 1.2641690e-03 0.0000000e+00 
0.0000000e+00 7.6219247e-04 0.0000000e+00 
0.0000000e+00 3.8499347e-04 0.0000000e+00 
0.0000000e+00 6.5833023e-03 0.0000000e+00 
0.0000000e+00 6.3468204e-03 0.0000000e+00 
0.0000000e+00 5.6910464e-03 0.0000000e+00 
0.0000000e+00 4.7317776e-03 0.0000000e+00 
0.0000000e+00 3.5425893e-03 0.0000000e+00 
0.0000000e+00 2.1257906e-03 0.0000000e+00 
0.0000000e+00 1.9310416e-03 0.0000000e+00 
0.0000000e+00 1.6588609e-03 0.0000000e+00 
0.0000000e+00 1.3865608e-03 0.0000000e+00 
0.0000000e+00 1.1923149e-03 0.0000000e+00 
0.0000000e+00 1.1542968e-03 0.0000000e+00 
0.0000000e+00 5.0524424e-04 0.0000000e+00 
0.0000000e+00 -8.6198008e-04 0.0000000e+00 
0.0000000e+00 -1.1918533e-03 0.0000000e+00 
0.0000000e+00 -3.7195315e-04 0.0000000e+00 
0.0000000e+00 -3.2662228e-04 0.0000000e+00 
0.0000000e+00 -7.5644878e-04 0.0000000e+00 
0.0000000e+00 -3.3151836e-04 0.0000000e+00 
0.0000000e+00 6.9308624e-04 0.0000000e+00 
REACTION 3 30  float
-6.7028438e+03 -0.0000000e+00 -2.0688719e+04 
7.8216544e-11 -0.0000000e+00 3.6379788e-12 
6.4028427e-10 -0.0000000e+00 -0.0000000e+00 
-2.9103830e-10 -0.0000000e+00 3.6379788e-12 
-4.5401976e-09 -0.0000000e+00 -7.2759576e-12 
-1.3278623e-09 -0.0000000e+00 -7.9671736e-10 
8.9785317e-09 -0.0000000e+00 -7.9126039e-10 
-3.6734491e-09 -0.0000000e+00 3.8198777e-11 
8.8402885e-10 -0.0000000e+00 -4.1836756e-11 
-1.1787051e-09 -0.0000000e+00 3.5470293e-11 
-1.6007107e-10 -0.0000000e+00 5.4569682e-12 
-2.3278682e+04 -0.0000000e+00 -9.5885215e+03 
2.9103830e-10 -0.0000000e+00 1.8189894e-11 
3.5906851e-09 -0.0000000e+00 1.2914825e-10 
-4.8366928e-09 -0.0000000e+00 1.8189894e-12 
-4.4019544e-10 -0.0000000e+00 -4.3473847e-10 
-5.3551048e-09 -0.0000000e+00 -4.2891770e-09 
3.6379788e-10 -0.0000000e+00 -3.6379788e-12 
-1.1641532e-10 -0.0000000e+00 -3.6379788e-12 
-3.7325663e-09 -0.0000000e+00 -2.2118911e-09 
1.7462298e-09 -0.0000000e+00 -7.2759576e-12 
1.6589183e-09 -0.0000000e+00 4.4583430e-09 
1.3424142e-09 -0.0000000e+00 2.0554580e-09 
3.7252903e-09 -0.0000000e+00 2.1100277e-10 
-1.7334969e-09 -0.0000000e+00 1.8553692e-09 
3.2923708e-10 -0.0000000e+00 -1.8553692e-10 
3.5934136e-09 -0.0000000e+00 -4.3655746e-11 
-2.6539055e-09 -0.0000000e+00 7.2759576e-12 
-8.3673513e-10 -0.0000000e+00 -4.8567017e-09 
4.1609383e-09 -0.0000000e+00 -1.0913936e-11 
REACTION_MOMENT 3 30  float
-0.0000000e+00 5.8207661e-11 -0.0000000e+00 
-0.0000000e+00 2.9103830e-10 -0.0000000e+00 
-0.0000000e+00 4.0745363e-10 -0.0000000e+00 
-0.0000000e+00 -2.3283064e-10 -0.0000000e+00 
-0.0000000e+00 4.8021320e-09 -0.0000000e+00 
-0.0000000e+00 6.9121597e-10 -0.0000000e+00 
-0.0000000e+00 2.3574103e-09 -0.0000000e+00 
-0.0000000e+00 2.1827873e-10 -0.0000000e+00 
-0.0000000e+00 -1.9645086e-10 -0.0000000e+00 
-0.0000000e+00 -4.6311470e-09 -0.0000000e+00 
-0.0000000e+00 -1.6170816e-09 -0.0000000e+00 
-0.0000000e+00 -5.8207661e-11 -0.0000000e+00 
-0.0000000e+00 5.8207661e-11 -0.0000000e+00 
-0.0000000e+00 8.7311491e-10 -0.0000000e+00 
-0.0000000e+00 1.1641532e-10 -0.0000000e+00 
-0.0000000e+00 -3.2014214e-10 -0.0000000e+00 
-0.0000000e+00 -9.4587449e-10 -0.0000000e+00 
-0.0000000e+00 5.8207661e-11 -0.0000000e+00 
-0.0000000e+00 3.6525307e-09 -0.0000000e+00 
-0.0000000e+00 -3.6379788e-10 -0.0000000e+00 
-0.0000000e+00 -2.5902409e-09 -0.0000000e+00 
-0.0000000e+00 3.4924597e-10 -0.0000000e+00 
-0.0000000e+00 2.2555469e-10 -0.0000000e+00 
-0.0000000e+00 -2.9831426e-10 -0.0000000e+00 
-0.0000000e+00 -6.8394002e-10 -0.0000000e+00 
-0.0000000e+00 -2.1827873e-10 -0.0000000e+00 
-0.0000000e+00 -2.1827873e-11 -0.0000000e+00 
-0.0000000e+00 -9.0949470e-12 -0.0000000e+00 
-0.0000000e+00 3.6379788e-12 -0.0000000e+00 
-0.0000000e+00 -2.1827873e-11 -0.0000000e+00 
VOLUME_ACCELERATION 3 30  float
0.0000000e+00 0.0000000e+00 0.0000000e+00 
0.0000000e+00 0.0000000e+00 0.0000000e+00 
0.0000000e+00 0.0000000e+00 0.0000000e+00 
0.0000000e+00 0.0000000e+00 0.0000000e+00 
0.0000000e+00 0.0000000e+00 0.0000000e+00 
0.0000000e+00 0.0000000e+00 0.0000000e+00 
0.0000000e+00 0.0000000e+00 0.0000000e+00 
0.0000000e+00 0.0000000e+00 0.0000000e+00 
0.0000000e+00 0.0000000e+00 0.0000000e+00 
0.0000000e+00 0.0000000e+00 0.0000000e+00 
0.0000000e+00 0.0000000e+00 0.0000000e+00 
0.0000000e+00 0.0000000e+00 0.0000000e+00 
0.0000000e+00 0.0000000e+00 0.0000000e+00 
0.0000000e+00 0.0000000e+00 0.0000000e+00 
0.0000000e+00 0.0000000e+00 0.0000000e+00 
0.0000000e+00 0.0000000e+00 0.0000000e+00 
0.0000000e+00 0.0000000e+00 0.0000000e+00 
0.0000000e+00 0.0000000e+00 0.0000000e+00 
0.0000000e+00 0.0000000e+00 0.0000000e+00 
0.0000000e+00 0.0000000e+00 0.0000000e+00 
0.0000000e+00 0.0000000e+00 0.0000000e+00 
0.0000000e+00 0.0000000e+00 0.0000000e+00 
0.0000000e+00 0.0000000e+00 0.0000000e+00 
0.0000000e+00 0.0000000e+00 0.0000000e+00 
0.0000000e+00 0.0000000e+00 0.0000000e+00 
0.0000000e+00 0.0000000e+00 0.0000000e+00 
0.0000000e+00 0.0000000e+00 0.0000000e+00 
0.0000000e+00 0.0000000e+00 0.0000000e+00 
0.0000000e+00 0.0000000e+00 0.0000000e+00 
0.0000000e+00 0.0000000e+00 0.0000000e+00 
POINT_LOAD 3 30  float
0.0000000e+00 0.0000000e+00 0.0000000e+00 
-7.1999473e+03 0.0000000e+00 4.8836636e+03 
-7.1333770e+03 0.0000000e+00 6.5085244e+03 
9.0007695e+03 0.0000000e+00 1.7020126e+03 
0.0000000e+00 0.0000000e+00 0.0000000e+00 
1.1866743e+03 0.0000000e+00 -2.1591060e+03 
8.4252256e+03 0.0000000e+00 9.5321758e+03 
4.3942642e+03 0.0000000e+00 -1.8096280e+02 
2.8971882e+03 0.0000000e+00 -9.9503540e+02 
3.6822847e+03 0.0000000e+00 -4.9464956e+03 
0.0000000e+00 0.0000000e+00 0.0000000e+00 
0.0000000e+00 0.0000000e+00 0.0000000e+00 
5.2832861e+03 0.0000000e+00 4.8574868e+03 
6.1155479e+03 0.0000000e+00 6.1993115e+03 
1.1269396e+03 0.0000000e+00 -1.1014097e+03 
-8.9954517e+02 0.0000000e+00 4.1929106e+03 
0.0000000e+00 0.0000000e+00 0.0000000e+00 
7.6104204e+03 0.0000000e+00 -7.0130547e+03 
0.0000000e+00 0.0000000e+00 0.0000000e+00 
7.6952153e+03 0.0000000e+00 9.3540352e+03 
0.0000000e+00 0.0000000e+00 0.0000000e+00 
-6.7541934e+03 0.0000000e+00 7.4264789e+02 
3.8729424e+03 0.0000000e+00 -2.2764465e+03 
0.0000000e+00 0.0000000e+00 0.0000000e+00 
-3.1318460e+02 0.0000000e+00 -1.7706528e+03 
-9.1308876e+01 0.0000000e+00 -6.5464497e+03 
-4.4744609e+03 0.0000000e+00 -3.5356831e+03 
4.5122531e+02 0.0000000e+00 -5.4885571e+03 
-1.7250773e+03 0.0000000e+00 9.5061094e+03 
-3.1693640e+03 0.0000000e+00 8.8122158e+03 
POINT_MOMENT 3 30  float
0.0000000e+00 0.0000000e+00 0.0000000e+00 
0.0000000e+00 0.0000000e+00 0.0000000e+00 
0.0000000e+00 0.0000000e+00 0.0000000e+00 
0.0000000e+00 0.0000000e+00 0.0000000e+00 
0.0000000e+00 0.0000000e+00 0.0000000e+00 
0.0000000e+00 0.0000000e+00 0.0000000e+00 
0.0000000e+00 0.0000000e+00 0.0000000e+00 
0.0000000e+00 0.0000000e+00 0.0000000e+00 
0.0000000e+00 0.0000000e+00 0.0000000e+00 
0.0000000e+00 0.0000000e+00 0.0000000e+00 
0.0000000e+00 0.0000000e+00 0.0000000e+00 
0.0000000e+00 0.0000000e+00 0.0000000e+00 
0.0000000e+00 0.0000000e+00 0.0000000e+00 
0.0000000e+00 0.0000000e+00 0.0000000e+00 
0.0000000e+00 0.0000000e+00 0.0000000e+00 
0.0000000e+00 0.0000000e+00 0.0000000e+00 
0.0000000e+00 0.0000000e+00 0.0000000e+00 
0.0000000e+00 0.0000000e+00 0.0000000e+00 
0.0000000e+00 0.0000000e+00 0.0000000e+00 
0.0000000e+00 0.0000000e+00 0.0000000e+00 
0.0000000e+00 0.0000000e+00 0.0000000e+00 
0.0000000e+00 0.0000000e+00 0.0000000e+00 
0.0000000e+00 0.0000000e+00 0.0000000e+00 
0.0000000e+00 0.0000000e+00 0.0000000e+00 
0.0000000e+00 0.0000000e+00 0.0000000e+00 
0.0000000e+00 0.0000000e+00 0.0000000e+00 
0.0000000e+00 0.0000000e+00 0.0000000e+00 
0.0000000e+00 0.0000000e+00 0.0000000e+00 
0.0000000e+00 0.0000000e+00 0.0000000e+00 
0.0000000e+00 0.0000000e+00 0.0000000e+00 
CELL_DATA 30
FIELD FieldData 9
YOUNG_MODULUS 1 30  float
2.1000000e+11
2.1000000e+11
2.1000000e+11
2.1000000e+11
2.1000000e+11
2.1000000e+11
2.1000000e+11
2.1000000e+11
2.1000000e+11
2.1000000e+11
2.1000000e+11
2.1000000e+11
2.1000000e+11
2.1000000e+11
2.1000000e+11
2.1000000e+11
2.1000000e+11
2.1000000e+11
2.1000000e+11
2.1000000e+11
2.1000000e+11
2.1000000e+11
2.1000000e+11
2.1000000e+11
2.1000000e+11
2.1000000e+11
2.1000000e+11
2.1000000e+11
2.1000000e+11
2.1000000e+11
DENSITY 1 30  float
7.8500000e+03
7.8500000e+03
7.8500000e+03
7.8500000e+03
7.8500000e+03
7.8500000e+03
7.8500000e+03
7.8500000e+03
7.8500000e+03
7.8500000e+03
7.8500000e+03
7.8500000e+03
7.8500000e+03
7.8500000e+03
7.8500000e+03
7.8500000e+03
7.8500000e+03
7.8500000e+03
7.8500000e+03
7.8500000e+03
7.8500000e+03
7.8500000e+03
7.8500000e+03
7.8500000e+03
7.8500000e+03
7.8500000e+03
7.8500000e+03
7.8500000e+03
7.8500000e+03
7.8500000e+03
CROSS_AREA 1 30  float
9.9999998e-03
9.9999998e-03
9.9999998e-03
9.9999998e-03
9.9999998e-03
9.9999998e-03
9.9999998e-03
9.9999998e-03
9.9999998e-03
9.9999998e-03
9.9999998e-03
9.9999998e-03
9.9999998e-03
9.9999998e-03
9.9999998e-03
9.9999998e-03
9.9999998e-03
9.9999998e-03
9.9999998e-03
9.9999998e-03
9.9999998e-03
9.9999998e-03
9.9999998e-03
9.9999998e-03
9.9999998e-03
9.9999998e-03
9.9999998e-03
9.9999998e-03
9.9999998e-03
9.9999998e-03
I22 1 30  float
1.5000001e-04
1.5000001e-04
1.5000001e-04
1.5000001e-04
1.5000001e-04
1.5000001e-04
1.5000001e-04
1.5000001e-04
1.5000001e-04
1.5000001e-04
1.5000001e-04
1.5000001e-04
1.5000001e-04
1.5000001e-04
1.5000001e-04
1.5000001e-04
1.5000001e-04
1.5000001e-04
1.5000001e-04
1.5000001e-04
1.5000001e-04
1.5000001e-04
1.5000001e-04
1.5000001e-04
1.5000001e-04
1.5000001e-04
1.5000001e-04
1.5000001e-04
1.5000001e-04
1.5000001e-04
I33 1 30  float
1.5000001e-04
1.5000001e-04
1.5000001e-04
1.5000001e-04
1.5000001e-04
1.5000001e-04
1.5000001e-04
1.5000001e-04
1.5000001e-04
1.5000001e-04
1.5000001e-04
1.5000001e-04
1.5000001e-04
1.5000001e-04
1.5000001e-04
1.5000001e-04
1.5000001e-04
1.5000001e-04
1.5000001e-04
1.5000001e-04
1.5000001e-04
1.5000001e-04
1.5000001e-04
1.5000001e-04
1.5000001e-04
1.5000001e-04
1.5000001e-04
1.5000001e-04
1.5000001e-04
1.5000001e-04
TORSIONAL_INERTIA 1 30  float
3.0000001e-04
3.0000001e-04
3.0000001e-04
3.0000001e-04
3.0000001e-04
3.0000001e-04
3.0000001e-04
3.0000001e-04
3.0000001e-04
3.0000001e-04
3.0000001e-04
3.0000001e-04
3.0000001e-04
3.0000001e-04
3.0000001e-04
3.0000001e-04
3.0000001e-04
3.0000001e-04
3.0000001e-04
3.0000001e-04
3.0000001e-04
3.0000001e-04
3.0000001e-04
3.0000001e-04
3.0000001e-04
3.0000001e-04
3.0000001e-04
3.0000001e-04
3.0000001e-04
3.0000001e-04
POISSON_RATIO 1 30  float
3.0000001e-01
3.0000001e-01
3.0000001e-01
3.0000001e-01
3.0000001e-01
3.0000001e-01
3.0000001e-01
3.0000001e-01
3.0000001e-01
3.0000001e-01
3.0000001e-01
3.0000001e-01
3.0000001e-01
3.0000001e-01
3.0000001e-01
3.0000001e-01
3.0000001e-01
3.0000001e-01
3.0000001e-01
3.0000001e-01
3.0000001e-01
3.0000001e-01
3.0000001e-01
3.0000001e-01
3.0000001e-01
3.0000001e-01
3.0000001e-01
3.0000001e-01
3.0000001e-01
3.0000001e-01
MOMENT 3 30  float
0.0000000e+00 -2.6811375e+03 0.0000000e+00 
0.0000000e+00 -1.0923392e+04 0.0000000e+00 
0.0000000e+00 -2.4898975e+04 0.0000000e+00 
0.0000000e+00 -3.8127602e+04 0.0000000e+00 
0.0000000e+00 -4.7755918e+04 0.0000000e+00 
0.0000000e+00 -1.5648340e+04 0.0000000e+00 
0.0000000e+00 -2.1411393e+04 0.0000000e+00 
0.0000000e+00 -2.2046648e+04 0.0000000e+00 
0.0000000e+00 -1.9765324e+04 0.0000000e+00 
0.0000000e+00 -1.4852211e+04 0.0000000e+00 
0.0000000e+00 -9.3114727e+03 0.0000000e+00 
0.0000000e+00 -2.5821104e+04 0.0000000e+00 
0.0000000e+00 -3.7771199e+04 0.0000000e+00 
0.0000000e+00 -4.6824301e+04 0.0000000e+00 
0.0000000e+00 -5.5786445e+04 0.0000000e+00 
0.0000000e+00 -7.6682412e+03 0.0000000e+00 
0.0000000e+00 -1.0717112e+04 0.0000000e+00 
0.0000000e+00 -1.0721815e+04 0.0000000e+00 
0.0000000e+00 -7.6484326e+03 0.0000000e+00 
0.0000000e+00 -1.4969636e+03 0.0000000e+00 
0.0000000e+00 -3.5595617e+04 0.0000000e+00 
0.0000000e+00 -2.1533783e+04 0.0000000e+00 
0.0000000e+00 -5.1955039e+03 0.0000000e+00 
0.0000000e+00 1.2913429e+04 0.0000000e+00 
0.0000000e+00 3.9339465e+04 0.0000000e+00 
0.0000000e+00 -1.1207948e+04 0.0000000e+00 
0.0000000e+00 -6.7697671e+03 0.0000000e+00 
0.0000000e+00 6.6926538e+03 0.0000000e+00 
0.0000000e+00 1.6137522e+04 0.0000000e+00 
0.0000000e+00 7.2640659e+03 0.0000000e+00 
FORCE 3 30  float
2.0688719e+04 0.0000000e+00 -6.7028438e+03 
1.5805056e+04 0.0000000e+00 -1.3902791e+04 
9.2965312e+03 0.0000000e+00 -2.1036168e+04 
7.5945181e+03 0.0000000e+00 -1.2035397e+04 
7.5945181e+03 0.0000000e+00 -1.2035397e+04 
3.8609309e+03 0.0000000e+00 -1.1416428e+04 
-5.6712446e+03 0.0000000e+00 -2.9912026e+03 
-5.4902822e+03 0.0000000e+00 1.4030615e+03 
-4.4952466e+03 0.0000000e+00 4.3002495e+03 
4.5124893e+02 0.0000000e+00 7.9825342e+03 
9.5885215e+03 0.0000000e+00 -2.3278682e+04 
4.7310352e+03 0.0000000e+00 -1.7995395e+04 
-1.4682765e+03 0.0000000e+00 -1.1879848e+04 
-3.6686685e+02 0.0000000e+00 -1.0752907e+04 
-4.5597773e+03 0.0000000e+00 -1.1652453e+04 
1.1926465e+04 0.0000000e+00 -7.6162993e+03 
1.8939520e+04 0.0000000e+00 -5.8788366e+00 
1.8939520e+04 0.0000000e+00 -5.8788366e+00 
9.5854844e+03 0.0000000e+00 7.6893364e+03 
9.5854844e+03 0.0000000e+00 7.6893364e+03 
-5.6770465e+02 0.0000000e+00 5.8926934e+03 
-4.4406470e+03 0.0000000e+00 8.1691396e+03 
-4.4406470e+03 0.0000000e+00 8.1691396e+03 
-4.1274624e+03 0.0000000e+00 9.9397930e+03 
-4.0361536e+03 0.0000000e+00 1.6486242e+04 
-7.9825342e+03 0.0000000e+00 4.5124893e+02 
-3.5080732e+03 0.0000000e+00 3.9869319e+03 
-3.9592986e+03 0.0000000e+00 9.4754893e+03 
-2.2342212e+03 0.0000000e+00 -3.0620419e+01 
9.3514276e+02 0.0000000e+00 -8.8428369e+03 
