# vtk DataFile Version 4.0
vtk output
ASCII
DATASET UNSTRUCTURED_GRID
POINTS 212 float
0.0000000e+00 0.0000000e+00 0.0000000e+00 
0.0000000e+00 0.0000000e+00 2.5000000e-01 
0.0000000e+00 0.0000000e+00 5.0000000e-01 
0.0000000e+00 0.0000000e+00 7.5000000e-01 
0.0000000e+00 0.0000000e+00 1.0000000e+00 
0.0000000e+00 0.0000000e+00 1.2500000e+00 
0.0000000e+00 0.0000000e+00 1.5000000e+00 
0.0000000e+00 0.0000000e+00 1.7500000e+00 
0.0000000e+00 0.0000000e+00 2.0000000e+00 
0.0000000e+00 0.0000000e+00 2.2500000e+00 
0.0000000e+00 0.0000000e+00 2.5000000e+00 
0.0000000e+00 0.0000000e+00 2.7500000e+00 
0.0000000e+00 0.0000000e+00 3.0000000e+00 
0.0000000e+00 0.0000000e+00 3.2500000e+00 
0.0000000e+00 0.0000000e+00 3.5000000e+00 
0.0000000e+00 0.0000000e+00 3.7500000e+00 
0.0000000e+00 0.0000000e+00 4.0000000e+00 
0.0000000e+00 0.0000000e+00 4.2500000e+00 
0.0000000e+00 0.0000000e+00 4.5000000e+00 
0.0000000e+00 0.0000000e+00 4.7500000e+00 
0.0000000e+00 0.0000000e+00 5.0000000e+00 
0.0000000e+00 0.0000000e+00 5.2500000e+00 
0.0000000e+00 0.0000000e+00 5.5000000e+00 
0.0000000e+00 0.0000000e+00 5.7500000e+00 
0.0000000e+00 0.0000000e+00 6.0000000e+00 
0.0000000e+00 0.0000000e+00 6.2500000e+00 
0.0000000e+00 0.0000000e+00 6.5000000e+00 
0.0000000e+00 0.0000000e+00 6.7500000e+00 
0.0000000e+00 0.0000000e+00 7.0000000e+00 
0.0000000e+00 0.0000000e+00 7.2500000e+00 
0.0000000e+00 0.0000000e+00 7.5000000e+00 
0.0000000e+00 0.0000000e+00 7.7500000e+00 
0.0000000e+00 0.0000000e+00 8.0000000e+00 
0.0000000e+00 0.0000000e+00 8.2500000e+00 
0.0000000e+00 0.0000000e+00 8.5000000e+00 
0.0000000e+00 0.0000000e+00 8.7500000e+00 
0.0000000e+00 0.0000000e+00 9.0000000e+00 
0.0000000e+00 0.0000000e+00 9.2500000e+00 
0.0000000e+00 0.0000000e+00 9.5000000e+00 
0.0000000e+00 0.0000000e+00 9.7500000e+00 
0.0000000e+00 0.0000000e+00 1.0000000e+01 
0.0000000e+00 0.0000000e+00 1.0250000e+01 
0.0000000e+00 0.0000000e+00 1.0500000e+01 
0.0000000e+00 0.0000000e+00 1.0750000e+01 
0.0000000e+00 0.0000000e+00 1.1000000e+01 
0.0000000e+00 0.0000000e+00 1.1250000e+01 
0.0000000e+00 0.0000000e+00 1.1500000e+01 
0.0000000e+00 0.0000000e+00 1.1750000e+01 
0.0000000e+00 0.0000000e+00 1.2000000e+01 
0.0000000e+00 0.0000000e+00 1.2250000e+01 
0.0000000e+00 0.0000000e+00 1.2500000e+01 
0.0000000e+00 0.0000000e+00 1.2750000e+01 
0.0000000e+00 0.0000000e+00 1.3000000e+01 
0.0000000e+00 0.0000000e+00 1.3250000e+01 
0.0000000e+00 0.0000000e+00 1.3500000e+01 
0.0000000e+00 0.0000000e+00 1.3750000e+01 
0.0000000e+00 0.0000000e+00 1.4000000e+01 
0.0000000e+00 0.0000000e+00 1.4250000e+01 
0.0000000e+00 0.0000000e+00 1.4500000e+01 
0.0000000e+00 0.0000000e+00 1.4750000e+01 
0.0000000e+00 0.0000000e+00 1.5000000e+01 
0.0000000e+00 0.0000000e+00 1.5250000e+01 
0.0000000e+00 0.0000000e+00 1.5500000e+01 
0.0000000e+00 0.0000000e+00 1.5750000e+01 
0.0000000e+00 0.0000000e+00 1.6000000e+01 
0.0000000e+00 0.0000000e+00 1.6250000e+01 
0.0000000e+00 0.0000000e+00 1.6500000e+01 
0.0000000e+00 0.0000000e+00 1.6750000e+01 
0.0000000e+00 0.0000000e+00 1.7000000e+01 
0.0000000e+00 0.0000000e+00 1.7250000e+01 
0.0000000e+00 0.0000000e+00 1.7500000e+01 
0.0000000e+00 0.0000000e+00 1.7750000e+01 
0.0000000e+00 0.0000000e+00 1.8000000e+01 
5.0000000e-01 0.0000000e+00 3.0000000e+00 
5.0000000e-01 0.0000000e+00 6.0000000e+00 
5.0000000e-01 0.0000000e+00 9.0000000e+00 
5.0000000e-01 0.0000000e+00 1.2000000e+01 
5.0000000e-01 0.0000000e+00 1.5000000e+01 
5.0000000e-01 0.0000000e+00 1.8000000e+01 
1.0000000e+00 0.0000000e+00 3.0000000e+00 
1.0000000e+00 0.0000000e+00 6.0000000e+00 
1.0000000e+00 0.0000000e+00 9.0000000e+00 
1.0000000e+00 0.0000000e+00 1.2000000e+01 
1.0000000e+00 0.0000000e+00 1.5000000e+01 
1.0000000e+00 0.0000000e+00 1.8000000e+01 
1.5000000e+00 0.0000000e+00 3.0000000e+00 
1.5000000e+00 0.0000000e+00 6.0000000e+00 
1.5000000e+00 0.0000000e+00 9.0000000e+00 
1.5000000e+00 0.0000000e+00 1.2000000e+01 
1.5000000e+00 0.0000000e+00 1.5000000e+01 
1.5000000e+00 0.0000000e+00 1.8000000e+01 
2.0000000e+00 0.0000000e+00 3.0000000e+00 
2.0000000e+00 0.0000000e+00 6.0000000e+00 
2.0000000e+00 0.0000000e+00 9.0000000e+00 
2.0000000e+00 0.0000000e+00 1.2000000e+01 
2.0000000e+00 0.0000000e+00 1.5000000e+01 
2.0000000e+00 0.0000000e+00 1.8000000e+01 
2.5000000e+00 0.0000000e+00 3.0000000e+00 
2.5000000e+00 0.0000000e+00 6.0000000e+00 
2.5000000e+00 0.0000000e+00 9.0000000e+00 
2.5000000e+00 0.0000000e+00 1.2000000e+01 
2.5000000e+00 0.0000000e+00 1.5000000e+01 
2.5000000e+00 0.0000000e+00 1.8000000e+01 
3.0000000e+00 0.0000000e+00 3.0000000e+00 
3.0000000e+00 0.0000000e+00 6.0000000e+00 
3.0000000e+00 0.0000000e+00 9.0000000e+00 
3.0000000e+00 0.0000000e+00 1.2000000e+01 
3.0000000e+00 0.0000000e+00 1.5000000e+01 
3.0000000e+00 0.0000000e+00 1.8000000e+01 
3.5000000e+00 0.0000000e+00 3.0000000e+00 
3.5000000e+00 0.0000000e+00 6.0000000e+00 
3.5000000e+00 0.0000000e+00 9.0000000e+00 
3.5000000e+00 0.0000000e+00 1.2000000e+01 
3.5000000e+00 0.0000000e+00 1.5000000e+01 
3.5000000e+00 0.0000000e+00 1.8000000e+01 
4.0000000e+00 0.0000000e+00 3.0000000e+00 
4.0000000e+00 0.0000000e+00 6.0000000e+00 
4.0000000e+00 0.0000000e+00 9.0000000e+00 
4.0000000e+00 0.0000000e+00 1.2000000e+01 
4.0000000e+00 0.0000000e+00 1.5000000e+01 
4.0000000e+00 0.0000000e+00 1.8000000e+01 
4.5000000e+00 0.0000000e+00 3.0000000e+00 
4.5000000e+00 0.0000000e+00 6.0000000e+00 
4.5000000e+00 0.0000000e+00 9.0000000e+00 
4.5000000e+00 0.0000000e+00 1.2000000e+01 
4.5000000e+00 0.0000000e+00 1.5000000e+01 
4.5000000e+00 0.0000000e+00 1.8000000e+01 
5.0000000e+00 0.0000000e+00 3.0000000e+00 
5.0000000e+00 0.0000000e+00 6.0000000e+00 
5.0000000e+00 0.0000000e+00 9.0000000e+00 
5.0000000e+00 0.0000000e+00 1.2000000e+01 
5.0000000e+00 0.0000000e+00 1.5000000e+01 
5.0000000e+00 0.0000000e+00 1.8000000e+01 
5.5000000e+00 0.0000000e+00 3.0000000e+00 
5.5000000e+00 0.0000000e+00 6.0000000e+00 
5.5000000e+00 0.0000000e+00 9.0000000e+00 
5.5000000e+00 0.0000000e+00 1.2000000e+01 
5.5000000e+00 0.0000000e+00 1.5000000e+01 
5.5000000e+00 0.0000000e+00 1.8000000e+01 
6.0000000e+00 0.0000000e+00 0.0000000e+00 
6.0000000e+00 0.0000000e+00 2.5000000e-01 
6.0000000e+00 0.0000000e+00 5.0000000e-01 
6.0000000e+00 0.0000000e+00 7.5000000e-01 
6.0000000e+00 0.0000000e+00 1.0000000e+00 
6.0000000e+00 0.0000000e+00 1.2500000e+00 
6.0000000e+00 0.0000000e+00 1.5000000e+00 
6.0000000e+00 0.0000000e+00 1.7500000e+00 
6.0000000e+00 0.0000000e+00 2.0000000e+00 
6.0000000e+00 0.0000000e+00 2.2500000e+00 
6.0000000e+00 0.0000000e+00 2.5000000e+00 
6.0000000e+00 0.0000000e+00 2.7500000e+00 
6.0000000e+00 0.0000000e+00 3.0000000e+00 
6.0000000e+00 0.0000000e+00 3.2500000e+00 
6.0000000e+00 0.0000000e+00 3.5000000e+00 
6.0000000e+00 0.0000000e+00 3.7500000e+00 
6.0000000e+00 0.0000000e+00 4.0000000e+00 
6.0000000e+00 0.0000000e+00 4.2500000e+00 
6.0000000e+00 0.0000000e+00 4.5000000e+00 
6.0000000e+00 0.0000000e+00 4.7500000e+00 
6.0000000e+00 0.0000000e+00 5.0000000e+00 
6.0000000e+00 0.0000000e+00 5.2500000e+00 
6.0000000e+00 0.0000000e+00 5.5000000e+00 
6.0000000e+00 0.0000000e+00 5.7500000e+00 
6.0000000e+00 0.0000000e+00 6.0000000e+00 
6.0000000e+00 0.0000000e+00 6.2500000e+00 
6.0000000e+00 0.0000000e+00 6.5000000e+00 
6.0000000e+00 0.0000000e+00 6.7500000e+00 
6.0000000e+00 0.0000000e+00 7.0000000e+00 
6.0000000e+00 0.0000000e+00 7.2500000e+00 
6.0000000e+00 0.0000000e+00 7.5000000e+00 
6.0000000e+00 0.0000000e+00 7.7500000e+00 
6.0000000e+00 0.0000000e+00 8.0000000e+00 
6.0000000e+00 0.0000000e+00 8.2500000e+00 
6.0000000e+00 0.0000000e+00 8.5000000e+00 
6.0000000e+00 0.0000000e+00 8.7500000e+00 
6.0000000e+00 0.0000000e+00 9.0000000e+00 
6.0000000e+00 0.0000000e+00 9.2500000e+00 
6.0000000e+00 0.0000000e+00 9.5000000e+00 
6.0000000e+00 0.0000000e+00 9.7500000e+00 
6.0000000e+00 0.0000000e+00 1.0000000e+01 
6.0000000e+00 0.0000000e+00 1.0250000e+01 
6.0000000e+00 0.0000000e+00 1.0500000e+01 
6.0000000e+00 0.0000000e+00 1.0750000e+01 
6.0000000e+00 0.0000000e+00 1.1000000e+01 
6.0000000e+00 0.0000000e+00 1.1250000e+01 
6.0000000e+00 0.0000000e+00 1.1500000e+01 
6.0000000e+00 0.0000000e+00 1.1750000e+01 
6.0000000e+00 0.0000000e+00 1.2000000e+01 
6.0000000e+00 0.0000000e+00 1.2250000e+01 
6.0000000e+00 0.0000000e+00 1.2500000e+01 
6.0000000e+00 0.0000000e+00 1.2750000e+01 
6.0000000e+00 0.0000000e+00 1.3000000e+01 
6.0000000e+00 0.0000000e+00 1.3250000e+01 
6.0000000e+00 0.0000000e+00 1.3500000e+01 
6.0000000e+00 0.0000000e+00 1.3750000e+01 
6.0000000e+00 0.0000000e+00 1.4000000e+01 
6.0000000e+00 0.0000000e+00 1.4250000e+01 
6.0000000e+00 0.0000000e+00 1.4500000e+01 
6.0000000e+00 0.0000000e+00 1.4750000e+01 
6.0000000e+00 0.0000000e+00 1.5000000e+01 
6.0000000e+00 0.0000000e+00 1.5250000e+01 
6.0000000e+00 0.0000000e+00 1.5500000e+01 
6.0000000e+00 0.0000000e+00 1.5750000e+01 
6.0000000e+00 0.0000000e+00 1.6000000e+01 
6.0000000e+00 0.0000000e+00 1.6250000e+01 
6.0000000e+00 0.0000000e+00 1.6500000e+01 
6.0000000e+00 0.0000000e+00 1.6750000e+01 
6.0000000e+00 0.0000000e+00 1.7000000e+01 
6.0000000e+00 0.0000000e+00 1.7250000e+01 
6.0000000e+00 0.0000000e+00 1.7500000e+01 
6.0000000e+00 0.0000000e+00 1.7750000e+01 
6.0000000e+00 0.0000000e+00 1.8000000e+01 

CELLS 216 648
2 0 1
2 1 2
2 2 3
2 3 4
2 4 5
2 5 6
2 6 7
2 7 8
2 8 9
2 9 10
2 10 11
2 11 12
2 12 13
2 13 14
2 14 15
2 15 16
2 16 17
2 17 18
2 18 19
2 19 20
2 20 21
2 21 22
2 22 23
2 23 24
2 24 25
2 25 26
2 26 27
2 27 28
2 28 29
2 29 30
2 30 31
2 31 32
2 32 33
2 33 34
2 34 35
2 35 36
2 36 37
2 37 38
2 38 39
2 39 40
2 40 41
2 41 42
2 42 43
2 43 44
2 44 45
2 45 46
2 46 47
2 47 48
2 48 49
2 49 50
2 50 51
2 51 52
2 52 53
2 53 54
2 54 55
2 55 56
2 56 57
2 57 58
2 58 59
2 59 60
2 60 61
2 61 62
2 62 63
2 63 64
2 64 65
2 65 66
2 66 67
2 67 68
2 68 69
2 69 70
2 70 71
2 71 72
2 139 140
2 140 141
2 141 142
2 142 143
2 143 144
2 144 145
2 145 146
2 146 147
2 147 148
2 148 149
2 149 150
2 150 151
2 151 152
2 152 153
2 153 154
2 154 155
2 155 156
2 156 157
2 157 158
2 158 159
2 159 160
2 160 161
2 161 162
2 162 163
2 163 164
2 164 165
2 165 166
2 166 167
2 167 168
2 168 169
2 169 170
2 170 171
2 171 172
2 172 173
2 173 174
2 174 175
2 175 176
2 176 177
2 177 178
2 178 179
2 179 180
2 180 181
2 181 182
2 182 183
2 183 184
2 184 185
2 185 186
2 186 187
2 187 188
2 188 189
2 189 190
2 190 191
2 191 192
2 192 193
2 193 194
2 194 195
2 195 196
2 196 197
2 197 198
2 198 199
2 199 200
2 200 201
2 201 202
2 202 203
2 203 204
2 204 205
2 205 206
2 206 207
2 207 208
2 208 209
2 209 210
2 210 211
2 12 73
2 73 79
2 79 85
2 85 91
2 91 97
2 97 103
2 103 109
2 109 115
2 115 121
2 121 127
2 127 133
2 133 151
2 24 74
2 74 80
2 80 86
2 86 92
2 92 98
2 98 104
2 104 110
2 110 116
2 116 122
2 122 128
2 128 134
2 134 163
2 36 75
2 75 81
2 81 87
2 87 93
2 93 99
2 99 105
2 105 111
2 111 117
2 117 123
2 123 129
2 129 135
2 135 175
2 48 76
2 76 82
2 82 88
2 88 94
2 94 100
2 100 106
2 106 112
2 112 118
2 118 124
2 124 130
2 130 136
2 136 187
2 60 77
2 77 83
2 83 89
2 89 95
2 95 101
2 101 107
2 107 113
2 113 119
2 119 125
2 125 131
2 131 137
2 137 199
2 72 78
2 78 84
2 84 90
2 90 96
2 96 102
2 102 108
2 108 114
2 114 120
2 120 126
2 126 132
2 132 138
2 138 211

CELL_TYPES 216
3
3
3
3
3
3
3
3
3
3
3
3
3
3
3
3
3
3
3
3
3
3
3
3
3
3
3
3
3
3
3
3
3
3
3
3
3
3
3
3
3
3
3
3
3
3
3
3
3
3
3
3
3
3
3
3
3
3
3
3
3
3
3
3
3
3
3
3
3
3
3
3
3
3
3
3
3
3
3
3
3
3
3
3
3
3
3
3
3
3
3
3
3
3
3
3
3
3
3
3
3
3
3
3
3
3
3
3
3
3
3
3
3
3
3
3
3
3
3
3
3
3
3
3
3
3
3
3
3
3
3
3
3
3
3
3
3
3
3
3
3
3
3
3
3
3
3
3
3
3
3
3
3
3
3
3
3
3
3
3
3
3
3
3
3
3
3
3
3
3
3
3
3
3
3
3
3
3
3
3
3
3
3
3
3
3
3
3
3
3
3
3
3
3
3
3
3
3
3
3
3
3
3
3
3
3
3
3
3
3
3
3
3
3
3
3
POINT_DATA 212
FIELD FieldData 7
DISPLACEMENT 3 212  float
0.0000000e+00 0.0000000e+00 0.0000000e+00 
-8.5751617e-07 0.0000000e+00 -4.8239688e-08 
-1.6791354e-06 0.0000000e+00 -9.6479376e-08 
-2.4289607e-06 0.0000000e+00 -1.4471907e-07 
-3.0710953e-06 0.0000000e+00 -1.9295875e-07 
-3.5696421e-06 0.0000000e+00 -2.4119845e-07 
-3.8887042e-06 0.0000000e+00 -2.8943813e-07 
-3.9923843e-06 0.0000000e+00 -3.3767782e-07 
-3.8447861e-06 0.0000000e+00 -3.8591750e-07 
-3.4100121e-06 0.0000000e+00 -4.3415719e-07 
-2.6521657e-06 0.0000000e+00 -4.8239690e-07 
-1.5353498e-06 0.0000000e+00 -5.3063656e-07 
-2.3667607e-08 0.0000000e+00 -5.7887627e-07 
1.3373839e-06 0.0000000e+00 -6.1907599e-07 
2.0572161e-06 0.0000000e+00 -6.5927577e-07 
2.2540892e-06 0.0000000e+00 -6.9947549e-07 
2.0462635e-06 0.0000000e+00 -7.3967522e-07 
1.5519990e-06 0.0000000e+00 -7.7987494e-07 
8.8955613e-07 0.0000000e+00 -8.2007472e-07 
1.7719496e-07 0.0000000e+00 -8.6027444e-07 
-4.6682430e-07 0.0000000e+00 -9.0047416e-07 
-9.2424148e-07 0.0000000e+00 -9.4067394e-07 
-1.0767964e-06 0.0000000e+00 -9.8087366e-07 
-8.0622874e-07 0.0000000e+00 -1.0210734e-06 
5.7215295e-09 0.0000000e+00 -1.0612731e-06 
8.5391565e-07 0.0000000e+00 -1.0934330e-06 
1.2199408e-06 0.0000000e+00 -1.1255927e-06 
1.2021463e-06 0.0000000e+00 -1.1577525e-06 
8.9888141e-07 0.0000000e+00 -1.1899123e-06 
4.0849542e-07 0.0000000e+00 -1.2220721e-06 
-1.7066242e-07 0.0000000e+00 -1.2542318e-06 
-7.4024285e-07 0.0000000e+00 -1.2863917e-06 
-1.2018966e-06 0.0000000e+00 -1.3185515e-06 
-1.4572743e-06 0.0000000e+00 -1.3507113e-06 
-1.4080267e-06 0.0000000e+00 -1.3828711e-06 
-9.5580469e-07 0.0000000e+00 -1.4150309e-06 
-2.2588340e-09 0.0000000e+00 -1.4471907e-06 
9.3697838e-07 0.0000000e+00 -1.4713105e-06 
1.3515150e-06 0.0000000e+00 -1.4954303e-06 
1.3475612e-06 0.0000000e+00 -1.5195502e-06 
1.0313269e-06 0.0000000e+00 -1.5436700e-06 
5.0902196e-07 0.0000000e+00 -1.5677899e-06 
-1.1314346e-07 0.0000000e+00 -1.5919097e-06 
-7.2895932e-07 0.0000000e+00 -1.6160295e-06 
-1.2322157e-06 0.0000000e+00 -1.6401494e-06 
-1.5167025e-06 0.0000000e+00 -1.6642692e-06 
-1.4762097e-06 0.0000000e+00 -1.6883891e-06 
-1.0045273e-06 0.0000000e+00 -1.7125089e-06 
4.5545185e-09 0.0000000e+00 -1.7366287e-06 
1.0424874e-06 0.0000000e+00 -1.7527087e-06 
1.5901560e-06 0.0000000e+00 -1.7687886e-06 
1.7379207e-06 0.0000000e+00 -1.7848685e-06 
1.5761417e-06 0.0000000e+00 -1.8009483e-06 
1.1951794e-06 0.0000000e+00 -1.8170283e-06 
6.8539396e-07 0.0000000e+00 -1.8331082e-06 
1.3714580e-07 0.0000000e+00 -1.8491880e-06 
-3.5920482e-07 0.0000000e+00 -1.8652679e-06 
-7.1329760e-07 0.0000000e+00 -1.8813479e-06 
-8.3477227e-07 0.0000000e+00 -1.8974278e-06 
-6.3326848e-07 0.0000000e+00 -1.9135077e-06 
-1.8426048e-08 0.0000000e+00 -1.9295876e-06 
4.7945406e-07 0.0000000e+00 -1.9376275e-06 
3.7281924e-07 0.0000000e+00 -1.9456675e-06 
-1.8384763e-07 0.0000000e+00 -1.9537074e-06 
-1.0360636e-06 0.0000000e+00 -1.9617473e-06 
-2.0293458e-06 0.0000000e+00 -1.9697873e-06 
-3.0092112e-06 0.0000000e+00 -1.9778272e-06 
-3.8211770e-06 0.0000000e+00 -1.9858671e-06 
-4.3107602e-06 0.0000000e+00 -1.9939071e-06 
-4.3234777e-06 0.0000000e+00 -2.0019470e-06 
-3.7048469e-06 0.0000000e+00 -2.0099869e-06 
-2.3003847e-06 0.0000000e+00 -2.0180269e-06 
4.4391658e-08 0.0000000e+00 -2.0260670e-06 
-1.9723005e-08 0.0000000e+00 -5.9911654e-06 
4.7679412e-09 0.0000000e+00 -5.3753597e-06 
-1.8823616e-09 0.0000000e+00 -5.9719810e-06 
3.7954320e-09 0.0000000e+00 -6.4011083e-06 
-1.5355040e-08 0.0000000e+00 -5.7478865e-06 
3.6993047e-08 0.0000000e+00 -9.5381583e-06 
-1.5778404e-08 0.0000000e+00 -1.3776883e-05 
3.8143528e-09 0.0000000e+00 -1.2262549e-05 
-1.5058894e-09 0.0000000e+00 -1.3031563e-05 
3.0363456e-09 0.0000000e+00 -1.3574982e-05 
-1.2284032e-08 0.0000000e+00 -1.2229430e-05 
2.9594439e-08 0.0000000e+00 -1.9041896e-05 
-1.1833803e-08 0.0000000e+00 -2.1921542e-05 
2.8607647e-09 0.0000000e+00 -1.9708350e-05 
-1.1294170e-09 0.0000000e+00 -2.0611449e-05 
2.2772593e-09 0.0000000e+00 -2.1243761e-05 
-9.2130241e-09 0.0000000e+00 -1.9359732e-05 
2.2195829e-08 0.0000000e+00 -2.8522792e-05 
-7.8892022e-09 0.0000000e+00 -2.8858314e-05 
1.9071764e-09 0.0000000e+00 -2.6145941e-05 
-7.5294471e-10 0.0000000e+00 -2.7144813e-05 
1.5181728e-09 0.0000000e+00 -2.7840621e-05 
-6.1420162e-09 0.0000000e+00 -2.5571962e-05 
1.4797219e-08 0.0000000e+00 -3.6414021e-05 
-3.9446011e-09 0.0000000e+00 -3.3468041e-05 
9.5358821e-10 0.0000000e+00 -3.0456158e-05 
-3.7647238e-10 0.0000000e+00 -3.1512496e-05 
7.5908635e-10 0.0000000e+00 -3.2246400e-05 
-3.0710081e-09 0.0000000e+00 -2.9746967e-05 
7.3986097e-09 0.0000000e+00 -4.1596424e-05 
-3.0244076e-17 0.0000000e+00 -3.5079229e-05 
-4.7660188e-17 0.0000000e+00 -3.1967509e-05 
-6.0533666e-17 0.0000000e+00 -3.3043001e-05 
-7.0660283e-17 0.0000000e+00 -3.3789605e-05 
-7.8493385e-17 0.0000000e+00 -3.1213243e-05 
-8.2698891e-17 0.0000000e+00 -4.3398501e-05 
3.9446011e-09 0.0000000e+00 -3.3468041e-05 
-9.5358832e-10 0.0000000e+00 -3.0456158e-05 
3.7647227e-10 0.0000000e+00 -3.1512496e-05 
-7.5908652e-10 0.0000000e+00 -3.2246400e-05 
3.0710081e-09 0.0000000e+00 -2.9746967e-05 
-7.3986097e-09 0.0000000e+00 -4.1596424e-05 
7.8892022e-09 0.0000000e+00 -2.8858314e-05 
-1.9071766e-09 0.0000000e+00 -2.6145941e-05 
7.5294460e-10 0.0000000e+00 -2.7144813e-05 
-1.5181729e-09 0.0000000e+00 -2.7840621e-05 
6.1420162e-09 0.0000000e+00 -2.5571962e-05 
-1.4797219e-08 0.0000000e+00 -3.6414021e-05 
1.1833803e-08 0.0000000e+00 -2.1921542e-05 
-2.8607647e-09 0.0000000e+00 -1.9708350e-05 
1.1294169e-09 0.0000000e+00 -2.0611449e-05 
-2.2772593e-09 0.0000000e+00 -2.1243761e-05 
9.2130241e-09 0.0000000e+00 -1.9359732e-05 
-2.2195829e-08 0.0000000e+00 -2.8522792e-05 
1.5778404e-08 0.0000000e+00 -1.3776883e-05 
-3.8143533e-09 0.0000000e+00 -1.2262549e-05 
1.5058892e-09 0.0000000e+00 -1.3031563e-05 
-3.0363458e-09 0.0000000e+00 -1.3574982e-05 
1.2284032e-08 0.0000000e+00 -1.2229430e-05 
-2.9594439e-08 0.0000000e+00 -1.9041896e-05 
1.9723005e-08 0.0000000e+00 -5.9911654e-06 
-4.7679412e-09 0.0000000e+00 -5.3753597e-06 
1.8823616e-09 0.0000000e+00 -5.9719810e-06 
-3.7954320e-09 0.0000000e+00 -6.4011083e-06 
1.5355040e-08 0.0000000e+00 -5.7478865e-06 
-3.6993047e-08 0.0000000e+00 -9.5381583e-06 
0.0000000e+00 0.0000000e+00 0.0000000e+00 
8.5751617e-07 0.0000000e+00 -4.8239688e-08 
1.6791354e-06 0.0000000e+00 -9.6479376e-08 
2.4289607e-06 0.0000000e+00 -1.4471907e-07 
3.0710953e-06 0.0000000e+00 -1.9295875e-07 
3.5696421e-06 0.0000000e+00 -2.4119845e-07 
3.8887042e-06 0.0000000e+00 -2.8943813e-07 
3.9923843e-06 0.0000000e+00 -3.3767782e-07 
3.8447861e-06 0.0000000e+00 -3.8591750e-07 
3.4100121e-06 0.0000000e+00 -4.3415719e-07 
2.6521657e-06 0.0000000e+00 -4.8239690e-07 
1.5353498e-06 0.0000000e+00 -5.3063656e-07 
2.3667607e-08 0.0000000e+00 -5.7887627e-07 
-1.3373839e-06 0.0000000e+00 -6.1907599e-07 
-2.0572161e-06 0.0000000e+00 -6.5927577e-07 
-2.2540892e-06 0.0000000e+00 -6.9947549e-07 
-2.0462635e-06 0.0000000e+00 -7.3967522e-07 
-1.5519990e-06 0.0000000e+00 -7.7987494e-07 
-8.8955613e-07 0.0000000e+00 -8.2007472e-07 
-1.7719496e-07 0.0000000e+00 -8.6027444e-07 
4.6682430e-07 0.0000000e+00 -9.0047416e-07 
9.2424148e-07 0.0000000e+00 -9.4067394e-07 
1.0767964e-06 0.0000000e+00 -9.8087366e-07 
8.0622874e-07 0.0000000e+00 -1.0210734e-06 
-5.7215295e-09 0.0000000e+00 -1.0612731e-06 
-8.5391565e-07 0.0000000e+00 -1.0934330e-06 
-1.2199408e-06 0.0000000e+00 -1.1255927e-06 
-1.2021463e-06 0.0000000e+00 -1.1577525e-06 
-8.9888141e-07 0.0000000e+00 -1.1899123e-06 
-4.0849542e-07 0.0000000e+00 -1.2220721e-06 
1.7066242e-07 0.0000000e+00 -1.2542318e-06 
7.4024285e-07 0.0000000e+00 -1.2863917e-06 
1.2018966e-06 0.0000000e+00 -1.3185515e-06 
1.4572743e-06 0.0000000e+00 -1.3507113e-06 
1.4080267e-06 0.0000000e+00 -1.3828711e-06 
9.5580469e-07 0.0000000e+00 -1.4150309e-06 
2.2588338e-09 0.0000000e+00 -1.4471907e-06 
-9.3697838e-07 0.0000000e+00 -1.4713105e-06 
-1.3515150e-06 0.0000000e+00 -1.4954303e-06 
-1.3475612e-06 0.0000000e+00 -1.5195502e-06 
-1.0313269e-06 0.0000000e+00 -1.5436700e-06 
-5.0902196e-07 0.0000000e+00 -1.5677899e-06 
1.1314346e-07 0.0000000e+00 -1.5919097e-06 
7.2895932e-07 0.0000000e+00 -1.6160295e-06 
1.2322157e-06 0.0000000e+00 -1.6401494e-06 
1.5167025e-06 0.0000000e+00 -1.6642692e-06 
1.4762097e-06 0.0000000e+00 -1.6883891e-06 
1.0045273e-06 0.0000000e+00 -1.7125089e-06 
-4.5545185e-09 0.0000000e+00 -1.7366287e-06 
-1.0424874e-06 0.0000000e+00 -1.7527087e-06 
-1.5901560e-06 0.0000000e+00 -1.7687886e-06 
-1.7379207e-06 0.0000000e+00 -1.7848685e-06 
-1.5761417e-06 0.0000000e+00 -1.8009483e-06 
-1.1951794e-06 0.0000000e+00 -1.8170283e-06 
-6.8539396e-07 0.0000000e+00 -1.8331082e-06 
-1.3714580e-07 0.0000000e+00 -1.8491880e-06 
3.5920482e-07 0.0000000e+00 -1.8652679e-06 
7.1329760e-07 0.0000000e+00 -1.8813479e-06 
8.3477227e-07 0.0000000e+00 -1.8974278e-06 
6.3326848e-07 0.0000000e+00 -1.9135077e-06 
1.8426048e-08 0.0000000e+00 -1.9295876e-06 
-4.7945406e-07 0.0000000e+00 -1.9376275e-06 
-3.7281924e-07 0.0000000e+00 -1.9456675e-06 
1.8384763e-07 0.0000000e+00 -1.9537074e-06 
1.0360636e-06 0.0000000e+00 -1.9617473e-06 
2.0293458e-06 0.0000000e+00 -1.9697873e-06 
3.0092112e-06 0.0000000e+00 -1.9778272e-06 
3.8211770e-06 0.0000000e+00 -1.9858671e-06 
4.3107602e-06 0.0000000e+00 -1.9939071e-06 
4.3234777e-06 0.0000000e+00 -2.0019470e-06 
3.7048469e-06 0.0000000e+00 -2.0099869e-06 
2.3003847e-06 0.0000000e+00 -2.0180269e-06 
-4.4391658e-08 0.0000000e+00 -2.0260670e-06 
ROTATION 3 212  float
0.0000000e+00 -3.4539960e-06 0.0000000e+00 
0.0000000e+00 -3.3822021e-06 0.0000000e+00 
0.0000000e+00 -3.1668205e-06 0.0000000e+00 
0.0000000e+00 -2.8078509e-06 0.0000000e+00 
0.0000000e+00 -2.3052937e-06 0.0000000e+00 
0.0000000e+00 -1.6591488e-06 0.0000000e+00 
0.0000000e+00 -8.6941589e-07 0.0000000e+00 
0.0000000e+00 6.3904693e-08 0.0000000e+00 
0.0000000e+00 1.1408131e-06 0.0000000e+00 
0.0000000e+00 2.3613093e-06 0.0000000e+00 
0.0000000e+00 3.7253933e-06 0.0000000e+00 
0.0000000e+00 5.2330647e-06 0.0000000e+00 
0.0000000e+00 6.8843246e-06 0.0000000e+00 
0.0000000e+00 4.0829273e-06 0.0000000e+00 
0.0000000e+00 1.7545705e-06 0.0000000e+00 
0.0000000e+00 -1.0074533e-07 0.0000000e+00 
0.0000000e+00 -1.4830204e-06 0.0000000e+00 
0.0000000e+00 -2.3922546e-06 0.0000000e+00 
0.0000000e+00 -2.8284483e-06 0.0000000e+00 
0.0000000e+00 -2.7916010e-06 0.0000000e+00 
0.0000000e+00 -2.2817130e-06 0.0000000e+00 
0.0000000e+00 -1.2987842e-06 0.0000000e+00 
0.0000000e+00 1.5718533e-07 0.0000000e+00 
0.0000000e+00 2.0861955e-06 0.0000000e+00 
0.0000000e+00 4.4882468e-06 0.0000000e+00 
0.0000000e+00 2.3628725e-06 0.0000000e+00 
0.0000000e+00 6.3089516e-07 0.0000000e+00 
0.0000000e+00 -7.0768493e-07 0.0000000e+00 
0.0000000e+00 -1.6528679e-06 0.0000000e+00 
0.0000000e+00 -2.2046538e-06 0.0000000e+00 
0.0000000e+00 -2.3630428e-06 0.0000000e+00 
0.0000000e+00 -2.1280343e-06 0.0000000e+00 
0.0000000e+00 -1.4996291e-06 0.0000000e+00 
0.0000000e+00 -4.7782657e-07 0.0000000e+00 
0.0000000e+00 9.3737299e-07 0.0000000e+00 
0.0000000e+00 2.7459696e-06 0.0000000e+00 
0.0000000e+00 4.9479636e-06 0.0000000e+00 
0.0000000e+00 2.6367411e-06 0.0000000e+00 
0.0000000e+00 7.5035894e-07 0.0000000e+00 
0.0000000e+00 -7.1118319e-07 0.0000000e+00 
0.0000000e+00 -1.7478852e-06 0.0000000e+00 
0.0000000e+00 -2.3597472e-06 0.0000000e+00 
0.0000000e+00 -2.5467693e-06 0.0000000e+00 
0.0000000e+00 -2.3089510e-06 0.0000000e+00 
0.0000000e+00 -1.6462930e-06 0.0000000e+00 
0.0000000e+00 -5.5879474e-07 0.0000000e+00 
0.0000000e+00 9.5354352e-07 0.0000000e+00 
0.0000000e+00 2.8907218e-06 0.0000000e+00 
0.0000000e+00 5.2527403e-06 0.0000000e+00 
0.0000000e+00 3.1109628e-06 0.0000000e+00 
0.0000000e+00 1.3306263e-06 0.0000000e+00 
0.0000000e+00 -8.8268813e-08 0.0000000e+00 
0.0000000e+00 -1.1457228e-06 0.0000000e+00 
0.0000000e+00 -1.8417356e-06 0.0000000e+00 
0.0000000e+00 -2.1763074e-06 0.0000000e+00 
0.0000000e+00 -2.1494377e-06 0.0000000e+00 
0.0000000e+00 -1.7611270e-06 0.0000000e+00 
0.0000000e+00 -1.0113750e-06 0.0000000e+00 
0.0000000e+00 9.9817981e-08 0.0000000e+00 
0.0000000e+00 1.5724522e-06 0.0000000e+00 
0.0000000e+00 3.4065276e-06 0.0000000e+00 
0.0000000e+00 6.7950197e-07 0.0000000e+00 
0.0000000e+00 -1.4295921e-06 0.0000000e+00 
0.0000000e+00 -2.9207542e-06 0.0000000e+00 
0.0000000e+00 -3.7939849e-06 0.0000000e+00 
0.0000000e+00 -4.0492837e-06 0.0000000e+00 
0.0000000e+00 -3.6866511e-06 0.0000000e+00 
0.0000000e+00 -2.7060864e-06 0.0000000e+00 
0.0000000e+00 -1.1075903e-06 0.0000000e+00 
0.0000000e+00 1.1088376e-06 0.0000000e+00 
0.0000000e+00 3.9431975e-06 0.0000000e+00 
0.0000000e+00 7.3954889e-06 0.0000000e+00 
0.0000000e+00 1.1465711e-05 0.0000000e+00 
0.0000000e+00 1.3944114e-05 0.0000000e+00 
0.0000000e+00 1.1947383e-05 0.0000000e+00 
0.0000000e+00 1.2330480e-05 0.0000000e+00 
0.0000000e+00 1.2584460e-05 0.0000000e+00 
0.0000000e+00 1.1045950e-05 0.0000000e+00 
0.0000000e+00 1.7761937e-05 0.0000000e+00 
0.0000000e+00 1.6527261e-05 0.0000000e+00 
0.0000000e+00 1.4929876e-05 0.0000000e+00 
0.0000000e+00 1.5236354e-05 0.0000000e+00 
0.0000000e+00 1.5439538e-05 0.0000000e+00 
0.0000000e+00 1.4208730e-05 0.0000000e+00 
0.0000000e+00 1.9581519e-05 0.0000000e+00 
0.0000000e+00 1.5529095e-05 0.0000000e+00 
0.0000000e+00 1.4331056e-05 0.0000000e+00 
0.0000000e+00 1.4560915e-05 0.0000000e+00 
0.0000000e+00 1.4713303e-05 0.0000000e+00 
0.0000000e+00 1.3790197e-05 0.0000000e+00 
0.0000000e+00 1.7819790e-05 0.0000000e+00 
0.0000000e+00 1.1844944e-05 0.0000000e+00 
0.0000000e+00 1.1046252e-05 0.0000000e+00 
0.0000000e+00 1.1199490e-05 0.0000000e+00 
0.0000000e+00 1.1301083e-05 0.0000000e+00 
0.0000000e+00 1.0685679e-05 0.0000000e+00 
0.0000000e+00 1.3372073e-05 0.0000000e+00 
0.0000000e+00 6.3701364e-06 0.0000000e+00 
0.0000000e+00 5.9707900e-06 0.0000000e+00 
0.0000000e+00 6.0474094e-06 0.0000000e+00 
0.0000000e+00 6.0982056e-06 0.0000000e+00 
0.0000000e+00 5.7905036e-06 0.0000000e+00 
0.0000000e+00 7.1337008e-06 0.0000000e+00 
0.0000000e+00 3.0734756e-18 0.0000000e+00 
0.0000000e+00 2.0001984e-18 0.0000000e+00 
0.0000000e+00 1.4472980e-18 0.0000000e+00 
0.0000000e+00 1.0895389e-18 0.0000000e+00 
0.0000000e+00 9.7570648e-19 0.0000000e+00 
0.0000000e+00 1.5092608e-19 0.0000000e+00 
0.0000000e+00 -6.3701364e-06 0.0000000e+00 
0.0000000e+00 -5.9707900e-06 0.0000000e+00 
0.0000000e+00 -6.0474094e-06 0.0000000e+00 
0.0000000e+00 -6.0982056e-06 0.0000000e+00 
0.0000000e+00 -5.7905036e-06 0.0000000e+00 
0.0000000e+00 -7.1337008e-06 0.0000000e+00 
0.0000000e+00 -1.1844944e-05 0.0000000e+00 
0.0000000e+00 -1.1046252e-05 0.0000000e+00 
0.0000000e+00 -1.1199490e-05 0.0000000e+00 
0.0000000e+00 -1.1301083e-05 0.0000000e+00 
0.0000000e+00 -1.0685679e-05 0.0000000e+00 
0.0000000e+00 -1.3372073e-05 0.0000000e+00 
0.0000000e+00 -1.5529095e-05 0.0000000e+00 
0.0000000e+00 -1.4331056e-05 0.0000000e+00 
0.0000000e+00 -1.4560915e-05 0.0000000e+00 
0.0000000e+00 -1.4713303e-05 0.0000000e+00 
0.0000000e+00 -1.3790197e-05 0.0000000e+00 
0.0000000e+00 -1.7819790e-05 0.0000000e+00 
0.0000000e+00 -1.6527261e-05 0.0000000e+00 
0.0000000e+00 -1.4929876e-05 0.0000000e+00 
0.0000000e+00 -1.5236354e-05 0.0000000e+00 
0.0000000e+00 -1.5439538e-05 0.0000000e+00 
0.0000000e+00 -1.4208730e-05 0.0000000e+00 
0.0000000e+00 -1.9581519e-05 0.0000000e+00 
0.0000000e+00 -1.3944114e-05 0.0000000e+00 
0.0000000e+00 -1.1947383e-05 0.0000000e+00 
0.0000000e+00 -1.2330480e-05 0.0000000e+00 
0.0000000e+00 -1.2584460e-05 0.0000000e+00 
0.0000000e+00 -1.1045950e-05 0.0000000e+00 
0.0000000e+00 -1.7761937e-05 0.0000000e+00 
0.0000000e+00 3.4539960e-06 0.0000000e+00 
0.0000000e+00 3.3822021e-06 0.0000000e+00 
0.0000000e+00 3.1668205e-06 0.0000000e+00 
0.0000000e+00 2.8078509e-06 0.0000000e+00 
0.0000000e+00 2.3052937e-06 0.0000000e+00 
0.0000000e+00 1.6591488e-06 0.0000000e+00 
0.0000000e+00 8.6941589e-07 0.0000000e+00 
0.0000000e+00 -6.3904693e-08 0.0000000e+00 
0.0000000e+00 -1.1408131e-06 0.0000000e+00 
0.0000000e+00 -2.3613093e-06 0.0000000e+00 
0.0000000e+00 -3.7253933e-06 0.0000000e+00 
0.0000000e+00 -5.2330647e-06 0.0000000e+00 
0.0000000e+00 -6.8843246e-06 0.0000000e+00 
0.0000000e+00 -4.0829273e-06 0.0000000e+00 
0.0000000e+00 -1.7545705e-06 0.0000000e+00 
0.0000000e+00 1.0074533e-07 0.0000000e+00 
0.0000000e+00 1.4830204e-06 0.0000000e+00 
0.0000000e+00 2.3922546e-06 0.0000000e+00 
0.0000000e+00 2.8284483e-06 0.0000000e+00 
0.0000000e+00 2.7916010e-06 0.0000000e+00 
0.0000000e+00 2.2817130e-06 0.0000000e+00 
0.0000000e+00 1.2987842e-06 0.0000000e+00 
0.0000000e+00 -1.5718533e-07 0.0000000e+00 
0.0000000e+00 -2.0861955e-06 0.0000000e+00 
0.0000000e+00 -4.4882468e-06 0.0000000e+00 
0.0000000e+00 -2.3628725e-06 0.0000000e+00 
0.0000000e+00 -6.3089516e-07 0.0000000e+00 
0.0000000e+00 7.0768493e-07 0.0000000e+00 
0.0000000e+00 1.6528679e-06 0.0000000e+00 
0.0000000e+00 2.2046538e-06 0.0000000e+00 
0.0000000e+00 2.3630428e-06 0.0000000e+00 
0.0000000e+00 2.1280343e-06 0.0000000e+00 
0.0000000e+00 1.4996291e-06 0.0000000e+00 
0.0000000e+00 4.7782657e-07 0.0000000e+00 
0.0000000e+00 -9.3737299e-07 0.0000000e+00 
0.0000000e+00 -2.7459696e-06 0.0000000e+00 
0.0000000e+00 -4.9479636e-06 0.0000000e+00 
0.0000000e+00 -2.6367411e-06 0.0000000e+00 
0.0000000e+00 -7.5035894e-07 0.0000000e+00 
0.0000000e+00 7.1118319e-07 0.0000000e+00 
0.0000000e+00 1.7478852e-06 0.0000000e+00 
0.0000000e+00 2.3597472e-06 0.0000000e+00 
0.0000000e+00 2.5467693e-06 0.0000000e+00 
0.0000000e+00 2.3089510e-06 0.0000000e+00 
0.0000000e+00 1.6462930e-06 0.0000000e+00 
0.0000000e+00 5.5879474e-07 0.0000000e+00 
0.0000000e+00 -9.5354352e-07 0.0000000e+00 
0.0000000e+00 -2.8907218e-06 0.0000000e+00 
0.0000000e+00 -5.2527403e-06 0.0000000e+00 
0.0000000e+00 -3.1109628e-06 0.0000000e+00 
0.0000000e+00 -1.3306263e-06 0.0000000e+00 
0.0000000e+00 8.8268813e-08 0.0000000e+00 
0.0000000e+00 1.1457228e-06 0.0000000e+00 
0.0000000e+00 1.8417356e-06 0.0000000e+00 
0.0000000e+00 2.1763074e-06 0.0000000e+00 
0.0000000e+00 2.1494377e-06 0.0000000e+00 
0.0000000e+00 1.7611270e-06 0.0000000e+00 
0.0000000e+00 1.0113750e-06 0.0000000e+00 
0.0000000e+00 -9.9817981e-08 0.0000000e+00 
0.0000000e+00 -1.5724522e-06 0.0000000e+00 
0.0000000e+00 -3.4065276e-06 0.0000000e+00 
0.0000000e+00 -6.7950197e-07 0.0000000e+00 
0.0000000e+00 1.4295921e-06 0.0000000e+00 
0.0000000e+00 2.9207542e-06 0.0000000e+00 
0.0000000e+00 3.7939849e-06 0.0000000e+00 