# vtk DataFile Version 4.0
vtk output
ASCII
DATASET UNSTRUCTURED_GRID
POINTS 86 float
0.0000000e+00 0.0000000e+00 0.0000000e+00 
0.0000000e+00 0.0000000e+00 6.0000002e-01 
0.0000000e+00 0.0000000e+00 1.2000000e+00 
0.0000000e+00 0.0000000e+00 1.8000000e+00 
0.0000000e+00 0.0000000e+00 2.4000001e+00 
0.0000000e+00 0.0000000e+00 3.0000000e+00 
0.0000000e+00 0.0000000e+00 3.5999999e+00 
0.0000000e+00 0.0000000e+00 4.1999998e+00 
0.0000000e+00 0.0000000e+00 4.8000002e+00 
0.0000000e+00 0.0000000e+00 5.4000001e+00 
0.0000000e+00 0.0000000e+00 6.0000000e+00 
0.0000000e+00 0.0000000e+00 6.5999999e+00 
0.0000000e+00 0.0000000e+00 7.1999998e+00 
0.0000000e+00 0.0000000e+00 7.8000002e+00 
0.0000000e+00 0.0000000e+00 8.3999996e+00 
0.0000000e+00 0.0000000e+00 9.0000000e+00 
0.0000000e+00 0.0000000e+00 9.6000004e+00 
0.0000000e+00 0.0000000e+00 1.0200000e+01 
0.0000000e+00 0.0000000e+00 1.0800000e+01 
0.0000000e+00 0.0000000e+00 1.1400000e+01 
0.0000000e+00 0.0000000e+00 1.2000000e+01 
0.0000000e+00 0.0000000e+00 1.2600000e+01 
0.0000000e+00 0.0000000e+00 1.3200000e+01 
0.0000000e+00 0.0000000e+00 1.3800000e+01 
0.0000000e+00 0.0000000e+00 1.4400000e+01 
0.0000000e+00 0.0000000e+00 1.5000000e+01 
0.0000000e+00 0.0000000e+00 1.5600000e+01 
0.0000000e+00 0.0000000e+00 1.6200001e+01 
0.0000000e+00 0.0000000e+00 1.6799999e+01 
0.0000000e+00 0.0000000e+00 1.7400000e+01 
0.0000000e+00 0.0000000e+00 1.8000000e+01 
6.0000000e+00 0.0000000e+00 0.0000000e+00 
6.0000000e+00 0.0000000e+00 6.0000002e-01 
6.0000000e+00 0.0000000e+00 1.2000000e+00 
6.0000000e+00 0.0000000e+00 1.8000000e+00 
6.0000000e+00 0.0000000e+00 2.4000001e+00 
6.0000000e+00 0.0000000e+00 3.0000000e+00 
6.0000000e+00 0.0000000e+00 3.5999999e+00 
6.0000000e+00 0.0000000e+00 4.1999998e+00 
6.0000000e+00 0.0000000e+00 4.8000002e+00 
6.0000000e+00 0.0000000e+00 5.4000001e+00 
6.0000000e+00 0.0000000e+00 6.0000000e+00 
6.0000000e+00 0.0000000e+00 6.5999999e+00 
6.0000000e+00 0.0000000e+00 7.1999998e+00 
6.0000000e+00 0.0000000e+00 7.8000002e+00 
6.0000000e+00 0.0000000e+00 8.3999996e+00 
6.0000000e+00 0.0000000e+00 9.0000000e+00 
6.0000000e+00 0.0000000e+00 9.6000004e+00 
6.0000000e+00 0.0000000e+00 1.0200000e+01 
6.0000000e+00 0.0000000e+00 1.0800000e+01 
6.0000000e+00 0.0000000e+00 1.1400000e+01 
6.0000000e+00 0.0000000e+00 1.2000000e+01 
6.0000000e+00 0.0000000e+00 1.2600000e+01 
6.0000000e+00 0.0000000e+00 1.3200000e+01 
6.0000000e+00 0.0000000e+00 1.3800000e+01 
6.0000000e+00 0.0000000e+00 1.4400000e+01 
6.0000000e+00 0.0000000e+00 1.5000000e+01 
6.0000000e+00 0.0000000e+00 1.5600000e+01 
6.0000000e+00 0.0000000e+00 1.6200001e+01 
6.0000000e+00 0.0000000e+00 1.6799999e+01 
6.0000000e+00 0.0000000e+00 1.7400000e+01 
6.0000000e+00 0.0000000e+00 1.8000000e+01 
1.2000000e+00 0.0000000e+00 3.0000000e+00 
2.4000001e+00 0.0000000e+00 3.0000000e+00 
3.5999999e+00 0.0000000e+00 3.0000000e+00 
4.8000002e+00 0.0000000e+00 3.0000000e+00 
1.2000000e+00 0.0000000e+00 6.0000000e+00 
2.4000001e+00 0.0000000e+00 6.0000000e+00 
3.5999999e+00 0.0000000e+00 6.0000000e+00 
4.8000002e+00 0.0000000e+00 6.0000000e+00 
1.2000000e+00 0.0000000e+00 9.0000000e+00 
2.4000001e+00 0.0000000e+00 9.0000000e+00 
3.5999999e+00 0.0000000e+00 9.0000000e+00 
4.8000002e+00 0.0000000e+00 9.0000000e+00 
1.2000000e+00 0.0000000e+00 1.2000000e+01 
2.4000001e+00 0.0000000e+00 1.2000000e+01 
3.5999999e+00 0.0000000e+00 1.2000000e+01 
4.8000002e+00 0.0000000e+00 1.2000000e+01 
1.2000000e+00 0.0000000e+00 1.5000000e+01 
2.4000001e+00 0.0000000e+00 1.5000000e+01 
3.5999999e+00 0.0000000e+00 1.5000000e+01 
4.8000002e+00 0.0000000e+00 1.5000000e+01 
1.2000000e+00 0.0000000e+00 1.8000000e+01 
2.4000001e+00 0.0000000e+00 1.8000000e+01 
3.5999999e+00 0.0000000e+00 1.8000000e+01 
4.8000002e+00 0.0000000e+00 1.8000000e+01 

CELLS 90 270
2 0 1
2 1 2
2 2 3
2 3 4
2 4 5
2 5 6
2 6 7
2 7 8
2 8 9
2 9 10
2 10 11
2 11 12
2 12 13
2 13 14
2 14 15
2 15 16
2 16 17
2 17 18
2 18 19
2 19 20
2 20 21
2 21 22
2 22 23
2 23 24
2 24 25
2 25 26
2 26 27
2 27 28
2 28 29
2 29 30
2 31 32
2 32 33
2 33 34
2 34 35
2 35 36
2 36 37
2 37 38
2 38 39
2 39 40
2 40 41
2 41 42
2 42 43
2 43 44
2 44 45
2 45 46
2 46 47
2 47 48
2 48 49
2 49 50
2 50 51
2 51 52
2 52 53
2 53 54
2 54 55
2 55 56
2 56 57
2 57 58
2 58 59
2 59 60
2 60 61
2 5 62
2 62 63
2 63 64
2 64 65
2 65 36
2 10 66
2 66 67
2 67 68
2 68 69
2 69 41
2 15 70
2 70 71
2 71 72
2 72 73
2 73 46
2 20 74
2 74 75
2 75 76
2 76 77
2 77 51
2 25 78
2 78 79
2 79 80
2 80 81
2 81 56
2 30 82
2 82 83
2 83 84
2 84 85
2 85 61

CELL_TYPES 90
3
3
3
3
3
3
3
3
3
3
3
3
3
3
3
3
3
3
3
3
3
3
3
3
3
3
3
3
3
3
3
3
3
3
3
3
3
3
3
3
3
3
3
3
3
3
3
3
3
3
3
3
3
3
3
3
3
3
3
3
3
3
3
3
3
3
3
3
3
3
3
3
3
3
3
3
3
3
3
3
3
3
3
3
3
3
3
3
3
3
POINT_DATA 86
FIELD FieldData 3
ADJOINT_DISPLACEMENT 3 86  float
0.0000000e+00 0.0000000e+00 0.0000000e+00 
-2.1265557e-03 0.0000000e+00 5.4186917e-15 
-4.3009841e-03 0.0000000e+00 1.0837383e-14 
-6.5711574e-03 0.0000000e+00 1.6256075e-14 
-8.9849485e-03 0.0000000e+00 2.1674767e-14 
-1.1590230e-02 0.0000000e+00 2.7093458e-14 
-1.4949594e-02 0.0000000e+00 6.8076959e-05 
-1.8963857e-02 0.0000000e+00 1.3615392e-04 
-2.2688240e-02 0.0000000e+00 2.0423086e-04 
-2.5177959e-02 0.0000000e+00 2.7230784e-04 
-2.5488235e-02 0.0000000e+00 3.4038478e-04 
-2.5449373e-02 0.0000000e+00 6.8303879e-04 
-3.1812727e-02 0.0000000e+00 1.0256928e-03 
-5.1015075e-02 0.0000000e+00 1.3683469e-03 
-8.9493200e-02 0.0000000e+00 1.7110008e-03 
-1.5368387e-01 0.0000000e+00 2.0536548e-03 
-2.1786794e-01 0.0000000e+00 1.7102697e-03 
-2.5632620e-01 0.0000000e+00 1.3668846e-03 
-2.7549532e-01 0.0000000e+00 1.0234995e-03 
-2.8181201e-01 0.0000000e+00 6.8011438e-04 
-2.8171289e-01 0.0000000e+00 3.3672928e-04 
-2.8192940e-01 0.0000000e+00 2.6570354e-04 
-2.8427270e-01 0.0000000e+00 1.9467781e-04 
-2.8779927e-01 0.0000000e+00 1.2365208e-04 
-2.9156551e-01 0.0000000e+00 5.2626343e-05 
-2.9462785e-01 0.0000000e+00 -1.8399389e-05 
-2.9678792e-01 0.0000000e+00 -3.2510463e-05 
-2.9850557e-01 0.0000000e+00 -4.6621535e-05 
-2.9982442e-01 0.0000000e+00 -6.0732607e-05 
-3.0078807e-01 0.0000000e+00 -7.4843680e-05 
-3.0144015e-01 0.0000000e+00 -8.8954752e-05 
0.0000000e+00 0.0000000e+00 0.0000000e+00 
-1.9580617e-03 0.0000000e+00 -5.6107954e-15 
-3.8682506e-03 0.0000000e+00 -1.1221568e-14 
-5.6826947e-03 0.0000000e+00 -1.6832501e-14 
-7.3535205e-03 0.0000000e+00 -2.2443346e-14 
-8.8328561e-03 0.0000000e+00 -2.8054097e-14 
-1.0783496e-02 0.0000000e+00 -6.8076959e-05 
-1.4530005e-02 0.0000000e+00 -1.3615392e-04 
-2.1017166e-02 0.0000000e+00 -2.0423086e-04 
-3.1189758e-02 0.0000000e+00 -2.7230784e-04 
-4.5992568e-02 0.0000000e+00 -3.4038478e-04 
-6.8537667e-02 0.0000000e+00 -6.8303879e-04 
-9.7016104e-02 0.0000000e+00 -1.0256928e-03 
-1.2499108e-01 0.0000000e+00 -1.3683469e-03 
-1.4602584e-01 0.0000000e+00 -1.7110008e-03 
-1.5368359e-01 0.0000000e+00 -2.0536548e-03 
-1.6133477e-01 0.0000000e+00 -1.7102697e-03 
-1.8234991e-01 0.0000000e+00 -1.3668846e-03 
-2.1029231e-01 0.0000000e+00 -1.0234995e-03 
-2.3872530e-01 0.0000000e+00 -6.8011438e-04 
-2.6121220e-01 0.0000000e+00 -3.3672928e-04 
-2.7592412e-01 0.0000000e+00 -2.6570354e-04 
-2.8595227e-01 0.0000000e+00 -1.9467781e-04 
-2.9224029e-01 0.0000000e+00 -1.2365208e-04 
-2.9573166e-01 0.0000000e+00 -5.2626343e-05 
-2.9737005e-01 0.0000000e+00 1.8399389e-05 
-2.9837820e-01 0.0000000e+00 3.2510463e-05 
-2.9932079e-01 0.0000000e+00 4.6621535e-05 
-3.0015418e-01 0.0000000e+00 6.0732607e-05 
-3.0083480e-01 0.0000000e+00 7.4843680e-05 
-3.0131897e-01 0.0000000e+00 8.8954752e-05 
-1.1038756e-02 0.0000000e+00 3.0400979e-03 
-1.0487281e-02 0.0000000e+00 2.5995304e-03 
-9.9358056e-03 0.0000000e+00 6.3891412e-04 
-9.3843313e-03 0.0000000e+00 -8.8113477e-04 
-2.9589102e-02 0.0000000e+00 -6.7097265e-03 
-3.3689968e-02 0.0000000e+00 -1.8210677e-02 
-3.7790835e-02 0.0000000e+00 -2.6254652e-02 
-4.1891702e-02 0.0000000e+00 -2.2933826e-02 
-1.5368381e-01 0.0000000e+00 2.8576937e-01 
-1.5368375e-01 0.0000000e+00 8.0697441e-01 
-1.5368369e-01 0.0000000e+00 3.4591091e-01 
-1.5368365e-01 0.0000000e+00 8.2820840e-02 
-2.7761278e-01 0.0000000e+00 -6.7778081e-03 
-2.7351263e-01 0.0000000e+00 -1.8246373e-02 
-2.6941249e-01 0.0000000e+00 -2.6225016e-02 
-2.6531234e-01 0.0000000e+00 -2.2869784e-02 
-2.9517627e-01 0.0000000e+00 2.7236773e-03 
-2.9572472e-01 0.0000000e+00 2.4592532e-03 
-2.9627317e-01 0.0000000e+00 8.2747079e-04 
-2.9682159e-01 0.0000000e+00 -5.3252786e-04 
-3.0141589e-01 0.0000000e+00 4.6456815e-04 
-3.0139166e-01 0.0000000e+00 3.5272166e-04 
-3.0136743e-01 0.0000000e+00 -1.8095330e-05 
-3.0134320e-01 0.0000000e+00 -2.4148393e-04 
ADJOINT_ROTATION 3 86  float
0.0000000e+00 -3.5309615e-03 0.0000000e+00 
0.0000000e+00 -3.5708554e-03 0.0000000e+00 
0.0000000e+00 -3.6905368e-03 0.0000000e+00 
0.0000000e+00 -3.8900061e-03 0.0000000e+00 
0.0000000e+00 -4.1692629e-03 0.0000000e+00 
0.0000000e+00 -4.5283078e-03 0.0000000e+00 
0.0000000e+00 -6.4071282e-03 0.0000000e+00 
0.0000000e+00 -6.7113121e-03 0.0000000e+00 
0.0000000e+00 -5.4408587e-03 0.0000000e+00 
0.0000000e+00 -2.5957681e-03 0.0000000e+00 
0.0000000e+00 1.8239595e-03 0.0000000e+00 
0.0000000e+00 -3.4824177e-03 0.0000000e+00 
0.0000000e+00 -1.9516759e-02 0.0000000e+00 
0.0000000e+00 -4.6279062e-02 0.0000000e+00 
0.0000000e+00 -8.3769329e-02 0.0000000e+00 
0.0000000e+00 -1.3198756e-01 0.0000000e+00 
0.0000000e+00 -8.3747312e-02 0.0000000e+00 
0.0000000e+00 -4.6234861e-02 0.0000000e+00 
0.0000000e+00 -1.9450204e-02 0.0000000e+00 
0.0000000e+00 -3.3933402e-03 0.0000000e+00 
0.0000000e+00 1.9357282e-03 0.0000000e+00 
0.0000000e+00 -2.3952799e-03 0.0000000e+00 
0.0000000e+00 -5.1536658e-03 0.0000000e+00 
0.0000000e+00 -6.3394294e-03 0.0000000e+00 
0.0000000e+00 -5.9525711e-03 0.0000000e+00 
0.0000000e+00 -3.9930898e-03 0.0000000e+00 
0.0000000e+00 -3.2193356e-03 0.0000000e+00 
0.0000000e+00 -2.5182893e-03 0.0000000e+00 
0.0000000e+00 -1.8899502e-03 0.0000000e+00 
0.0000000e+00 -1.3343188e-03 0.0000000e+00 
0.0000000e+00 -8.5139490e-04 0.0000000e+00 
0.0000000e+00 -3.2767341e-03 0.0000000e+00 
0.0000000e+00 -3.2368402e-03 0.0000000e+00 
0.0000000e+00 -3.1171588e-03 0.0000000e+00 
0.0000000e+00 -2.9176895e-03 0.0000000e+00 
0.0000000e+00 -2.6384324e-03 0.0000000e+00 
0.0000000e+00 -2.2793878e-03 0.0000000e+00 
0.0000000e+00 -4.4851843e-03 0.0000000e+00 
0.0000000e+00 -8.2656182e-03 0.0000000e+00 
0.0000000e+00 -1.3620689e-02 0.0000000e+00 
0.0000000e+00 -2.0550396e-02 0.0000000e+00 
0.0000000e+00 -2.9054742e-02 0.0000000e+00 
0.0000000e+00 -4.4307604e-02 0.0000000e+00 
0.0000000e+00 -4.8832506e-02 0.0000000e+00 
0.0000000e+00 -4.2629439e-02 0.0000000e+00 
0.0000000e+00 -2.5698412e-02 0.0000000e+00 
0.0000000e+00 1.9605786e-03 0.0000000e+00 
0.0000000e+00 -2.5676563e-02 0.0000000e+00 
0.0000000e+00 -4.2585909e-02 0.0000000e+00 
0.0000000e+00 -4.8767462e-02 0.0000000e+00 
0.0000000e+00 -4.4221219e-02 0.0000000e+00 
0.0000000e+00 -2.8947180e-02 0.0000000e+00 
0.0000000e+00 -2.0354629e-02 0.0000000e+00 
0.0000000e+00 -1.3334698e-02 0.0000000e+00 
0.0000000e+00 -7.8873904e-03 0.0000000e+00 
0.0000000e+00 -4.0127053e-03 0.0000000e+00 
0.0000000e+00 -1.7106425e-03 0.0000000e+00 
0.0000000e+00 -1.6377321e-03 0.0000000e+00 
0.0000000e+00 -1.4921143e-03 0.0000000e+00 
0.0000000e+00 -1.2737889e-03 0.0000000e+00 
0.0000000e+00 -9.8275603e-04 0.0000000e+00 
0.0000000e+00 -6.1901554e-04 0.0000000e+00 
0.0000000e+00 -8.1082986e-04 0.0000000e+00 
0.0000000e+00 1.2728011e-03 0.0000000e+00 
0.0000000e+00 1.7225851e-03 0.0000000e+00 
0.0000000e+00 5.3852203e-04 0.0000000e+00 
0.0000000e+00 8.8279182e-03 0.0000000e+00 
0.0000000e+00 9.2420271e-03 0.0000000e+00 
0.0000000e+00 3.0662867e-03 0.0000000e+00 
0.0000000e+00 -9.6993027e-03 0.0000000e+00 
0.0000000e+00 -3.3812782e-01 0.0000000e+00 
0.0000000e+00 -5.2780312e-01 0.0000000e+00 
0.0000000e+00 2.9898649e-01 0.0000000e+00 
0.0000000e+00 1.4224108e-01 0.0000000e+00 
0.0000000e+00 8.8323969e-03 0.0000000e+00 
0.0000000e+00 9.1924407e-03 0.0000000e+00 
0.0000000e+00 3.0158586e-03 0.0000000e+00 
0.0000000e+00 -9.6973479e-03 0.0000000e+00 
0.0000000e+00 -8.0469664e-04 0.0000000e+00 
0.0000000e+00 1.0177447e-03 0.0000000e+00 
0.0000000e+00 1.4742340e-03 0.0000000e+00 
0.0000000e+00 5.6477170e-04 0.0000000e+00 
0.0000000e+00 -1.2758754e-04 0.0000000e+00 
0.0000000e+00 2.5755409e-04 0.0000000e+00 
0.0000000e+00 3.0402996e-04 0.0000000e+00 
0.0000000e+00 1.1840089e-05 0.0000000e+00 
SHAPE_SENSITIVITY 3 86  float
0.0000000e+00 0.0000000e+00 0.0000000e+00 
0.0000000e+00 0.0000000e+00 0.0000000e+00 
0.0000000e+00 0.0000000e+00 0.0000000e+00 
0.0000000e+00 0.0000000e+00 0.0000000e+00 
0.0000000e+00 0.0000000e+00 0.0000000e+00 
0.0000000e+00 0.0000000e+00 0.0000000e+00 
0.0000000e+00 0.0000000e+00 0.0000000e+00 
0.0000000e+00 0.0000000e+00 0.0000000e+00 
0.0000000e+00 0.0000000e+00 0.0000000e+00 
0.0000000e+00 0.0000000e+00 0.0000000e+00 
0.0000000e+00 0.0000000e+00 0.0000000e+00 
0.0000000e+00 0.0000000e+00 0.0000000e+00 
0.0000000e+00 0.0000000e+00 0.0000000e+00 
0.0000000e+00 0.0000000e+00 0.0000000e+00 
0.0000000e+00 0.0000000e+00 0.0000000e+00 
0.0000000e+00 0.0000000e+00 0.0000000e+00 
0.0000000e+00 0.0000000e+00 0.0000000e+00 
0.0000000e+00 0.0000000e+00 0.0000000e+00 
0.0000000e+00 0.0000000e+00 0.0000000e+00 
0.0000000e+00 0.0000000e+00 0.0000000e+00 
0.0000000e+00 0.0000000e+00 0.0000000e+00 
0.0000000e+00 0.0000000e+00 0.0000000e+00 
0.0000000e+00 0.0000000e+00 0.0000000e+00 
0.0000000e+00 0.0000000e+00 0.0000000e+00 
0.0000000e+00 0.0000000e+00 0.0000000e+00 
0.0000000e+00 0.0000000e+00 0.0000000e+00 
0.0000000e+00 0.0000000e+00 0.0000000e+00 
0.0000000e+00 0.0000000e+00 0.0000000e+00 
0.0000000e+00 0.0000000e+00 0.0000000e+00 
0.0000000e+00 0.0000000e+00 0.0000000e+00 
0.0000000e+00 0.0000000e+00 0.0000000e+00 
0.0000000e+00 0.0000000e+00 0.0000000e+00 
0.0000000e+00 0.0000000e+00 0.0000000e+00 
0.0000000e+00 0.0000000e+00 0.0000000e+00 
0.0000000e+00 0.0000000e+00 0.0000000e+00 
0.0000000e+00 0.0000000e+00 0.0000000e+00 
0.0000000e+00 0.0000000e+00 0.0000000e+00 
0.0000000e+00 0.0000000e+00 0.0000000e+00 
0.0000000e+00 0.0000000e+00 0.0000000e+00 
0.0000000e+00 0.0000000e+00 0.0000000e+00 
0.0000000e+00 0.0000000e+00 0.0000000e+00 
0.0000000e+00 0.0000000e+00 0.0000000e+00 
0.0000000e+00 0.0000000e+00 0.0000000e+00 
0.0000000e+00 0.0000000e+00 0.0000000e+00 
0.0000000e+00 0.0000000e+00 0.0000000e+00 
0.0000000e+00 0.0000000e+00 0.0000000e+00 
0.0000000e+00 0.0000000e+00 0.0000000e+00 
0.0000000e+00 0.0000000e+00 0.0000000e+00 
0.0000000e+00 0.0000000e+00 0.0000000e+00 
0.0000000e+00 0.0000000e+00 0.0000000e+00 
0.0000000e+00 0.0000000e+00 0.0000000e+00 
0.0000000e+00 0.0000000e+00 0.0000000e+00 
0.0000000e+00 0.0000000e+00 0.0000000e+00 
0.0000000e+00 0.0000000e+00 0.0000000e+00 
0.0000000e+00 0.0000000e+00 0.0000000e+00 
0.0000000e+00 0.0000000e+00 0.0000000e+00 
0.0000000e+00 0.0000000e+00 0.0000000e+00 
0.0000000e+00 0.0000000e+00 0.0000000e+00 
0.0000000e+00 0.0000000e+00 0.0000000e+00 
0.0000000e+00 0.0000000e+00 0.0000000e+00 
0.0000000e+00 0.0000000e+00 0.0000000e+00 
0.0000000e+00 0.0000000e+00 0.0000000e+00 
0.0000000e+00 0.0000000e+00 0.0000000e+00 
0.0000000e+00 0.0000000e+00 0.0000000e+00 
0.0000000e+00 0.0000000e+00 0.0000000e+00 
0.0000000e+00 0.0000000e+00 0.0000000e+00 
0.0000000e+00 0.0000000e+00 0.0000000e+00 
0.0000000e+00 0.0000000e+00 0.0000000e+00 
0.0000000e+00 0.0000000e+00 0.0000000e+00 
0.0000000e+00 0.0000000e+00 0.0000000e+00 
0.0000000e+00 0.0000000e+00 0.0000000e+00 
0.0000000e+00 0.0000000e+00 0.0000000e+00 
0.0000000e+00 0.0000000e+00 0.0000000e+00 
0.0000000e+00 0.0000000e+00 0.0000000e+00 
0.0000000e+00 0.0000000e+00 0.0000000e+00 
0.0000000e+00 0.0000000e+00 0.0000000e+00 
0.0000000e+00 0.0000000e+00 0.0000000e+00 
0.0000000e+00 0.0000000e+00 0.0000000e+00 
0.0000000e+00 0.0000000e+00 0.0000000e+00 
0.0000000e+00 0.0000000e+00 0.0000000e+00 
0.0000000e+00 0.0000000e+00 0.0000000e+00 
0.0000000e+00 0.0000000e+00 0.0000000e+00 
0.0000000e+00 0.0000000e+00 0.0000000e+00 
0.0000000e+00 0.0000000e+00 0.0000000e+00 
0.0000000e+00 0.0000000e+00 0.0000000e+00 
0.0000000e+00 0.0000000e+00 0.0000000e+00 
CELL_DATA 90
FIELD FieldData 1
I22_SENSITIVITY 1 90  float
-6.7021395e-03
-4.6516094e-02
-1.2486771e-01
-2.4032068e-01
-3.9143851e-01
4.7632784e-01
3.6459494e-02
2.4086957e-01
1.0612100e+00
2.4691429e+00
1.1273335e+00
1.0698199e+00
-2.3673487e+00
-8.9910746e+00
-1.8608236e+01
-8.3004980e+00
-1.8602651e+00
1.7802197e+00
2.8140635e+00
1.4343622e+00
3.9065999e-01
2.8589733e-02
-7.1599863e-02
6.1781820e-02
4.0042666e-01
-1.2545549e-02
1.5986091e-02
3.5076972e-02
4.6035506e-02
5.0169978e-02
6.7022145e-03
4.6516109e-02
1.2486757e-01
2.4032046e-01
3.9143851e-01
4.9931630e-01
9.3668908e-02
-9.3174762e-01
-2.5485902e+00
-4.7285132e+00
3.8223581e+00
4.8759723e-01
6.5584946e-01
4.1340103e+00
1.0728968e+01
4.8035154e+00
8.9746881e-01
-3.3245844e-01
9.2065257e-01
4.4636707e+00
-7.6422453e-01
-5.6964576e-02
3.6283860e-01
5.2350324e-01
4.5333523e-01
-9.0423098e-04
3.5839034e-03
1.2433101e-02
2.4334038e-02
3.7979487e-02
4.6754875e+00
1.3708131e+00
8.4080927e-02
8.1529105e-01
3.5644436e+00
5.6533527e+00
3.7409079e-01
2.1326829e-01
5.1708851e+00
1.5246942e+01
-1.1383356e+02
-5.2574562e+01
-3.7758392e-01
4.2757381e+01
7.6830338e+01
2.6779368e+00
1.6898356e-01
1.0173780e-01
2.4761994e+00
7.2923684e+00
6.9378692e-01
2.0696947e-01
1.2167305e-02
1.0938044e-01
4.9860889e-01
6.6775195e-02
1.8702911e-02
1.2769296e-03
1.4497248e-02
5.8363870e-02
