# vtk DataFile Version 4.0
vtk output
ASCII
DATASET UNSTRUCTURED_GRID
POINTS 212 float
0.0000000e+00 0.0000000e+00 0.0000000e+00 
0.0000000e+00 0.0000000e+00 2.5000000e-01 
0.0000000e+00 0.0000000e+00 5.0000000e-01 
0.0000000e+00 0.0000000e+00 7.5000000e-01 
0.0000000e+00 0.0000000e+00 1.0000000e+00 
0.0000000e+00 0.0000000e+00 1.2500000e+00 
0.0000000e+00 0.0000000e+00 1.5000000e+00 
0.0000000e+00 0.0000000e+00 1.7500000e+00 
0.0000000e+00 0.0000000e+00 2.0000000e+00 
0.0000000e+00 0.0000000e+00 2.2500000e+00 
0.0000000e+00 0.0000000e+00 2.5000000e+00 
0.0000000e+00 0.0000000e+00 2.7500000e+00 
0.0000000e+00 0.0000000e+00 3.0000000e+00 
0.0000000e+00 0.0000000e+00 3.2500000e+00 
0.0000000e+00 0.0000000e+00 3.5000000e+00 
0.0000000e+00 0.0000000e+00 3.7500000e+00 
0.0000000e+00 0.0000000e+00 4.0000000e+00 
0.0000000e+00 0.0000000e+00 4.2500000e+00 
0.0000000e+00 0.0000000e+00 4.5000000e+00 
0.0000000e+00 0.0000000e+00 4.7500000e+00 
0.0000000e+00 0.0000000e+00 5.0000000e+00 
0.0000000e+00 0.0000000e+00 5.2500000e+00 
0.0000000e+00 0.0000000e+00 5.5000000e+00 
0.0000000e+00 0.0000000e+00 5.7500000e+00 
0.0000000e+00 0.0000000e+00 6.0000000e+00 
0.0000000e+00 0.0000000e+00 6.2500000e+00 
0.0000000e+00 0.0000000e+00 6.5000000e+00 
0.0000000e+00 0.0000000e+00 6.7500000e+00 
0.0000000e+00 0.0000000e+00 7.0000000e+00 
0.0000000e+00 0.0000000e+00 7.2500000e+00 
0.0000000e+00 0.0000000e+00 7.5000000e+00 
0.0000000e+00 0.0000000e+00 7.7500000e+00 
0.0000000e+00 0.0000000e+00 8.0000000e+00 
0.0000000e+00 0.0000000e+00 8.2500000e+00 
0.0000000e+00 0.0000000e+00 8.5000000e+00 
0.0000000e+00 0.0000000e+00 8.7500000e+00 
0.0000000e+00 0.0000000e+00 9.0000000e+00 
0.0000000e+00 0.0000000e+00 9.2500000e+00 
0.0000000e+00 0.0000000e+00 9.5000000e+00 
0.0000000e+00 0.0000000e+00 9.7500000e+00 
0.0000000e+00 0.0000000e+00 1.0000000e+01 
0.0000000e+00 0.0000000e+00 1.0250000e+01 
0.0000000e+00 0.0000000e+00 1.0500000e+01 
0.0000000e+00 0.0000000e+00 1.0750000e+01 
0.0000000e+00 0.0000000e+00 1.1000000e+01 
0.0000000e+00 0.0000000e+00 1.1250000e+01 
0.0000000e+00 0.0000000e+00 1.1500000e+01 
0.0000000e+00 0.0000000e+00 1.1750000e+01 
0.0000000e+00 0.0000000e+00 1.2000000e+01 
0.0000000e+00 0.0000000e+00 1.2250000e+01 
0.0000000e+00 0.0000000e+00 1.2500000e+01 
0.0000000e+00 0.0000000e+00 1.2750000e+01 
0.0000000e+00 0.0000000e+00 1.3000000e+01 
0.0000000e+00 0.0000000e+00 1.3250000e+01 
0.0000000e+00 0.0000000e+00 1.3500000e+01 
0.0000000e+00 0.0000000e+00 1.3750000e+01 
0.0000000e+00 0.0000000e+00 1.4000000e+01 
0.0000000e+00 0.0000000e+00 1.4250000e+01 
0.0000000e+00 0.0000000e+00 1.4500000e+01 
0.0000000e+00 0.0000000e+00 1.4750000e+01 
0.0000000e+00 0.0000000e+00 1.5000000e+01 
0.0000000e+00 0.0000000e+00 1.5250000e+01 
0.0000000e+00 0.0000000e+00 1.5500000e+01 
0.0000000e+00 0.0000000e+00 1.5750000e+01 
0.0000000e+00 0.0000000e+00 1.6000000e+01 
0.0000000e+00 0.0000000e+00 1.6250000e+01 
0.0000000e+00 0.0000000e+00 1.6500000e+01 
0.0000000e+00 0.0000000e+00 1.6750000e+01 
0.0000000e+00 0.0000000e+00 1.7000000e+01 
0.0000000e+00 0.0000000e+00 1.7250000e+01 
0.0000000e+00 0.0000000e+00 1.7500000e+01 
0.0000000e+00 0.0000000e+00 1.7750000e+01 
0.0000000e+00 0.0000000e+00 1.8000000e+01 
5.0000000e-01 0.0000000e+00 3.0000000e+00 
5.0000000e-01 0.0000000e+00 6.0000000e+00 
5.0000000e-01 0.0000000e+00 9.0000000e+00 
5.0000000e-01 0.0000000e+00 1.2000000e+01 
5.0000000e-01 0.0000000e+00 1.5000000e+01 
5.0000000e-01 0.0000000e+00 1.8000000e+01 
1.0000000e+00 0.0000000e+00 3.0000000e+00 
1.0000000e+00 0.0000000e+00 6.0000000e+00 
1.0000000e+00 0.0000000e+00 9.0000000e+00 
1.0000000e+00 0.0000000e+00 1.2000000e+01 
1.0000000e+00 0.0000000e+00 1.5000000e+01 
1.0000000e+00 0.0000000e+00 1.8000000e+01 
1.5000000e+00 0.0000000e+00 3.0000000e+00 
1.5000000e+00 0.0000000e+00 6.0000000e+00 
1.5000000e+00 0.0000000e+00 9.0000000e+00 
1.5000000e+00 0.0000000e+00 1.2000000e+01 
1.5000000e+00 0.0000000e+00 1.5000000e+01 
1.5000000e+00 0.0000000e+00 1.8000000e+01 
2.0000000e+00 0.0000000e+00 3.0000000e+00 
2.0000000e+00 0.0000000e+00 6.0000000e+00 
2.0000000e+00 0.0000000e+00 9.0000000e+00 
2.0000000e+00 0.0000000e+00 1.2000000e+01 
2.0000000e+00 0.0000000e+00 1.5000000e+01 
2.0000000e+00 0.0000000e+00 1.8000000e+01 
2.5000000e+00 0.0000000e+00 3.0000000e+00 
2.5000000e+00 0.0000000e+00 6.0000000e+00 
2.5000000e+00 0.0000000e+00 9.0000000e+00 
2.5000000e+00 0.0000000e+00 1.2000000e+01 
2.5000000e+00 0.0000000e+00 1.5000000e+01 
2.5000000e+00 0.0000000e+00 1.8000000e+01 
3.0000000e+00 0.0000000e+00 3.0000000e+00 
3.0000000e+00 0.0000000e+00 6.0000000e+00 
3.0000000e+00 0.0000000e+00 9.0000000e+00 
3.0000000e+00 0.0000000e+00 1.2000000e+01 
3.0000000e+00 0.0000000e+00 1.5000000e+01 
3.0000000e+00 0.0000000e+00 1.8000000e+01 
3.5000000e+00 0.0000000e+00 3.0000000e+00 
3.5000000e+00 0.0000000e+00 6.0000000e+00 
3.5000000e+00 0.0000000e+00 9.0000000e+00 
3.5000000e+00 0.0000000e+00 1.2000000e+01 
3.5000000e+00 0.0000000e+00 1.5000000e+01 
3.5000000e+00 0.0000000e+00 1.8000000e+01 
4.0000000e+00 0.0000000e+00 3.0000000e+00 
4.0000000e+00 0.0000000e+00 6.0000000e+00 
4.0000000e+00 0.0000000e+00 9.0000000e+00 
4.0000000e+00 0.0000000e+00 1.2000000e+01 
4.0000000e+00 0.0000000e+00 1.5000000e+01 
4.0000000e+00 0.0000000e+00 1.8000000e+01 
4.5000000e+00 0.0000000e+00 3.0000000e+00 
4.5000000e+00 0.0000000e+00 6.0000000e+00 
4.5000000e+00 0.0000000e+00 9.0000000e+00 
4.5000000e+00 0.0000000e+00 1.2000000e+01 
4.5000000e+00 0.0000000e+00 1.5000000e+01 
4.5000000e+00 0.0000000e+00 1.8000000e+01 
5.0000000e+00 0.0000000e+00 3.0000000e+00 
5.0000000e+00 0.0000000e+00 6.0000000e+00 
5.0000000e+00 0.0000000e+00 9.0000000e+00 
5.0000000e+00 0.0000000e+00 1.2000000e+01 
5.0000000e+00 0.0000000e+00 1.5000000e+01 
5.0000000e+00 0.0000000e+00 1.8000000e+01 
5.5000000e+00 0.0000000e+00 3.0000000e+00 
5.5000000e+00 0.0000000e+00 6.0000000e+00 
5.5000000e+00 0.0000000e+00 9.0000000e+00 
5.5000000e+00 0.0000000e+00 1.2000000e+01 
5.5000000e+00 0.0000000e+00 1.5000000e+01 
5.5000000e+00 0.0000000e+00 1.8000000e+01 
6.0000000e+00 0.0000000e+00 0.0000000e+00 
6.0000000e+00 0.0000000e+00 2.5000000e-01 
6.0000000e+00 0.0000000e+00 5.0000000e-01 
6.0000000e+00 0.0000000e+00 7.5000000e-01 
6.0000000e+00 0.0000000e+00 1.0000000e+00 
6.0000000e+00 0.0000000e+00 1.2500000e+00 
6.0000000e+00 0.0000000e+00 1.5000000e+00 
6.0000000e+00 0.0000000e+00 1.7500000e+00 
6.0000000e+00 0.0000000e+00 2.0000000e+00 
6.0000000e+00 0.0000000e+00 2.2500000e+00 
6.0000000e+00 0.0000000e+00 2.5000000e+00 
6.0000000e+00 0.0000000e+00 2.7500000e+00 
6.0000000e+00 0.0000000e+00 3.0000000e+00 
6.0000000e+00 0.0000000e+00 3.2500000e+00 
6.0000000e+00 0.0000000e+00 3.5000000e+00 
6.0000000e+00 0.0000000e+00 3.7500000e+00 
6.0000000e+00 0.0000000e+00 4.0000000e+00 
6.0000000e+00 0.0000000e+00 4.2500000e+00 
6.0000000e+00 0.0000000e+00 4.5000000e+00 
6.0000000e+00 0.0000000e+00 4.7500000e+00 
6.0000000e+00 0.0000000e+00 5.0000000e+00 
6.0000000e+00 0.0000000e+00 5.2500000e+00 
6.0000000e+00 0.0000000e+00 5.5000000e+00 
6.0000000e+00 0.0000000e+00 5.7500000e+00 
6.0000000e+00 0.0000000e+00 6.0000000e+00 
6.0000000e+00 0.0000000e+00 6.2500000e+00 
6.0000000e+00 0.0000000e+00 6.5000000e+00 
6.0000000e+00 0.0000000e+00 6.7500000e+00 
6.0000000e+00 0.0000000e+00 7.0000000e+00 
6.0000000e+00 0.0000000e+00 7.2500000e+00 
6.0000000e+00 0.0000000e+00 7.5000000e+00 
6.0000000e+00 0.0000000e+00 7.7500000e+00 
6.0000000e+00 0.0000000e+00 8.0000000e+00 
6.0000000e+00 0.0000000e+00 8.2500000e+00 
6.0000000e+00 0.0000000e+00 8.5000000e+00 
6.0000000e+00 0.0000000e+00 8.7500000e+00 
6.0000000e+00 0.0000000e+00 9.0000000e+00 
6.0000000e+00 0.0000000e+00 9.2500000e+00 
6.0000000e+00 0.0000000e+00 9.5000000e+00 
6.0000000e+00 0.0000000e+00 9.7500000e+00 
6.0000000e+00 0.0000000e+00 1.0000000e+01 
6.0000000e+00 0.0000000e+00 1.0250000e+01 
6.0000000e+00 0.0000000e+00 1.0500000e+01 
6.0000000e+00 0.0000000e+00 1.0750000e+01 
6.0000000e+00 0.0000000e+00 1.1000000e+01 
6.0000000e+00 0.0000000e+00 1.1250000e+01 
6.0000000e+00 0.0000000e+00 1.1500000e+01 
6.0000000e+00 0.0000000e+00 1.1750000e+01 
6.0000000e+00 0.0000000e+00 1.2000000e+01 
6.0000000e+00 0.0000000e+00 1.2250000e+01 
6.0000000e+00 0.0000000e+00 1.2500000e+01 
6.0000000e+00 0.0000000e+00 1.2750000e+01 
6.0000000e+00 0.0000000e+00 1.3000000e+01 
6.0000000e+00 0.0000000e+00 1.3250000e+01 
6.0000000e+00 0.0000000e+00 1.3500000e+01 
6.0000000e+00 0.0000000e+00 1.3750000e+01 
6.0000000e+00 0.0000000e+00 1.4000000e+01 
6.0000000e+00 0.0000000e+00 1.4250000e+01 
6.0000000e+00 0.0000000e+00 1.4500000e+01 
6.0000000e+00 0.0000000e+00 1.4750000e+01 
6.0000000e+00 0.0000000e+00 1.5000000e+01 
6.0000000e+00 0.0000000e+00 1.5250000e+01 
6.0000000e+00 0.0000000e+00 1.5500000e+01 
6.0000000e+00 0.0000000e+00 1.5750000e+01 
6.0000000e+00 0.0000000e+00 1.6000000e+01 
6.0000000e+00 0.0000000e+00 1.6250000e+01 
6.0000000e+00 0.0000000e+00 1.6500000e+01 
6.0000000e+00 0.0000000e+00 1.6750000e+01 
6.0000000e+00 0.0000000e+00 1.7000000e+01 
6.0000000e+00 0.0000000e+00 1.7250000e+01 
6.0000000e+00 0.0000000e+00 1.7500000e+01 
6.0000000e+00 0.0000000e+00 1.7750000e+01 
6.0000000e+00 0.0000000e+00 1.8000000e+01 

CELLS 216 648
2 0 1
2 1 2
2 2 3
2 3 4
2 4 5
2 5 6
2 6 7
2 7 8
2 8 9
2 9 10
2 10 11
2 11 12
2 12 13
2 13 14
2 14 15
2 15 16
2 16 17
2 17 18
2 18 19
2 19 20
2 20 21
2 21 22
2 22 23
2 23 24
2 24 25
2 25 26
2 26 27
2 27 28
2 28 29
2 29 30
2 30 31
2 31 32
2 32 33
2 33 34
2 34 35
2 35 36
2 36 37
2 37 38
2 38 39
2 39 40
2 40 41
2 41 42
2 42 43
2 43 44
2 44 45
2 45 46
2 46 47
2 47 48
2 48 49
2 49 50
2 50 51
2 51 52
2 52 53
2 53 54
2 54 55
2 55 56
2 56 57
2 57 58
2 58 59
2 59 60
2 60 61
2 61 62
2 62 63
2 63 64
2 64 65
2 65 66
2 66 67
2 67 68
2 68 69
2 69 70
2 70 71
2 71 72
2 139 140
2 140 141
2 141 142
2 142 143
2 143 144
2 144 145
2 145 146
2 146 147
2 147 148
2 148 149
2 149 150
2 150 151
2 151 152
2 152 153
2 153 154
2 154 155
2 155 156
2 156 157
2 157 158
2 158 159
2 159 160
2 160 161
2 161 162
2 162 163
2 163 164
2 164 165
2 165 166
2 166 167
2 167 168
2 168 169
2 169 170
2 170 171
2 171 172
2 172 173
2 173 174
2 174 175
2 175 176
2 176 177
2 177 178
2 178 179
2 179 180
2 180 181
2 181 182
2 182 183
2 183 184
2 184 185
2 185 186
2 186 187
2 187 188
2 188 189
2 189 190
2 190 191
2 191 192
2 192 193
2 193 194
2 194 195
2 195 196
2 196 197
2 197 198
2 198 199
2 199 200
2 200 201
2 201 202
2 202 203
2 203 204
2 204 205
2 205 206
2 206 207
2 207 208
2 208 209
2 209 210
2 210 211
2 12 73
2 73 79
2 79 85
2 85 91
2 91 97
2 97 103
2 103 109
2 109 115
2 115 121
2 121 127
2 127 133
2 133 151
2 24 74
2 74 80
2 80 86
2 86 92
2 92 98
2 98 104
2 104 110
2 110 116
2 116 122
2 122 128
2 128 134
2 134 163
2 36 75
2 75 81
2 81 87
2 87 93
2 93 99
2 99 105
2 105 111
2 111 117
2 117 123
2 123 129
2 129 135
2 135 175
2 48 76
2 76 82
2 82 88
2 88 94
2 94 100
2 100 106
2 106 112
2 112 118
2 118 124
2 124 130
2 130 136
2 136 187
2 60 77
2 77 83
2 83 89
2 89 95
2 95 101
2 101 107
2 107 113
2 113 119
2 119 125
2 125 131
2 131 137
2 137 199
2 72 78
2 78 84
2 84 90
2 90 96
2 96 102
2 102 108
2 108 114
2 114 120
2 120 126
2 126 132
2 132 138
2 138 211

CELL_TYPES 216
3
3
3
3
3
3
3
3
3
3
3
3
3
3
3
3
3
3
3
3
3
3
3
3
3
3
3
3
3
3
3
3
3
3
3
3
3
3
3
3
3
3
3
3
3
3
3
3
3
3
3
3
3
3
3
3
3
3
3
3
3
3
3
3
3
3
3
3
3
3
3
3
3
3
3
3
3
3
3
3
3
3
3
3
3
3
3
3
3
3
3
3
3
3
3
3
3
3
3
3
3
3
3
3
3
3
3
3
3
3
3
3
3
3
3
3
3
3
3
3
3
3
3
3
3
3
3
3
3
3
3
3
3
3
3
3
3
3
3
3
3
3
3
3
3
3
3
3
3
3
3
3
3
3
3
3
3
3
3
3
3
3
3
3
3
3
3
3
3
3
3
3
3
3
3
3
3
3
3
3
3
3
3
3
3
3
3
3
3
3
3
3
3
3
3
3
3
3
3
3
3
3
3
3
3
3
3
3
3
3
3
3
3
3
3
3
POINT_DATA 212
FIELD FieldData 3
ADJOINT_DISPLACEMENT 3 212  float
0.0000000e+00 0.0000000e+00 0.0000000e+00 
-2.8364992e-05 0.0000000e+00 -3.6674986e-16 
-6.5504384e-05 0.0000000e+00 -7.3349972e-16 
-1.2019259e-04 0.0000000e+00 -1.1002495e-15 
-2.0120401e-04 0.0000000e+00 -1.4669994e-15 
-3.1731304e-04 0.0000000e+00 -1.8337493e-15 
-4.7729409e-04 0.0000000e+00 -2.2004991e-15 
-6.8992155e-04 0.0000000e+00 -2.5672489e-15 
-9.6396991e-04 0.0000000e+00 -2.9339989e-15 
-1.3082135e-03 0.0000000e+00 -3.3007487e-15 
-1.7314266e-03 0.0000000e+00 -3.6674985e-15 
-2.2423838e-03 0.0000000e+00 -4.0342485e-15 
-2.8498594e-03 0.0000000e+00 -4.4009981e-15 
-3.5995198e-03 0.0000000e+00 6.4116833e-08 
-4.4959253e-03 0.0000000e+00 1.2823367e-07 
-5.4861926e-03 0.0000000e+00 1.9235050e-07 
-6.5174387e-03 0.0000000e+00 2.5646733e-07 
-7.5367792e-03 0.0000000e+00 3.2058418e-07 
-8.4913308e-03 0.0000000e+00 3.8470100e-07 
-9.3282107e-03 0.0000000e+00 4.4881784e-07 
-9.9945348e-03 0.0000000e+00 5.1293466e-07 
-1.0437419e-02 0.0000000e+00 5.7705154e-07 
-1.0603980e-02 0.0000000e+00 6.4116836e-07 
-1.0441336e-02 0.0000000e+00 7.0528517e-07 
-9.8966006e-03 0.0000000e+00 7.6940199e-07 
-9.0116533e-03 0.0000000e+00 1.0900036e-06 
-8.0173649e-03 0.0000000e+00 1.4106051e-06 
-7.1443478e-03 0.0000000e+00 1.7312067e-06 
-6.6232109e-03 0.0000000e+00 2.0518082e-06 
-6.6845645e-03 0.0000000e+00 2.3724097e-06 
-7.5590196e-03 0.0000000e+00 2.6930113e-06 
-9.4771860e-03 0.0000000e+00 3.0136127e-06 
-1.2669674e-02 0.0000000e+00 3.3342144e-06 
-1.7367095e-02 0.0000000e+00 3.6548158e-06 
-2.3800058e-02 0.0000000e+00 3.9754177e-06 
-3.2199174e-02 0.0000000e+00 4.2960191e-06 
-4.2795051e-02 0.0000000e+00 4.6166206e-06 
-5.6480300e-02 0.0000000e+00 6.1555984e-06 
-7.3334388e-02 0.0000000e+00 7.6945762e-06 
-9.2368215e-02 0.0000000e+00 9.2335540e-06 
-1.1259267e-01 0.0000000e+00 1.0772532e-05 
-1.3301869e-01 0.0000000e+00 1.2311510e-05 
-1.5265714e-01 0.0000000e+00 1.3850487e-05 
-1.7051892e-01 0.0000000e+00 1.5389465e-05 
-1.8561496e-01 0.0000000e+00 1.6928443e-05 
-1.9695614e-01 0.0000000e+00 1.8467421e-05 
-2.0355338e-01 0.0000000e+00 2.0006399e-05 
-2.0441754e-01 0.0000000e+00 2.1545377e-05 
-1.9855958e-01 0.0000000e+00 2.3084354e-05 
-1.8667845e-01 0.0000000e+00 3.0459058e-05 
-1.7063594e-01 0.0000000e+00 3.7833761e-05 
-1.5118702e-01 0.0000000e+00 4.5208464e-05 
-1.2908667e-01 0.0000000e+00 5.2583171e-05 
-1.0508990e-01 0.0000000e+00 5.9957874e-05 
-7.9951718e-02 0.0000000e+00 6.7332578e-05 
-5.4427098e-02 0.0000000e+00 7.4707285e-05 
-2.9271048e-02 0.0000000e+00 8.2081984e-05 
-5.2385544e-03 0.0000000e+00 8.9456691e-05 
1.6915383e-02 0.0000000e+00 9.6831398e-05 
3.6435772e-02 0.0000000e+00 1.0420610e-04 
5.2567616e-02 0.0000000e+00 1.1158080e-04 
6.7055672e-02 0.0000000e+00 1.1305566e-04 
8.2021214e-02 0.0000000e+00 1.1453052e-04 
9.7274013e-02 0.0000000e+00 1.1600539e-04 
1.1262384e-01 0.0000000e+00 1.1748025e-04 
1.2788047e-01 0.0000000e+00 1.1895510e-04 
1.4285368e-01 0.0000000e+00 1.2042997e-04 
1.5735324e-01 0.0000000e+00 1.2190483e-04 
1.7118892e-01 0.0000000e+00 1.2337969e-04 
1.8417048e-01 0.0000000e+00 1.2485454e-04 
1.9610773e-01 0.0000000e+00 1.2632941e-04 
2.0681040e-01 0.0000000e+00 1.2780428e-04 
2.1608829e-01 0.0000000e+00 1.2927913e-04 
-2.8482561e-03 0.0000000e+00 1.1352219e-03 
-9.9039730e-03 0.0000000e+00 -1.6697918e-03 
-4.2763334e-02 0.0000000e+00 2.0210685e-02 
-1.9860493e-01 0.0000000e+00 -2.4065711e-02 
5.2582301e-02 0.0000000e+00 -1.9242708e-02 
2.1609324e-01 0.0000000e+00 -1.3796100e-02 
-2.8466526e-03 0.0000000e+00 1.9325472e-03 
-9.9113453e-03 0.0000000e+00 -3.5626434e-03 
-4.2731613e-02 0.0000000e+00 3.4244101e-02 
-1.9865029e-01 0.0000000e+00 -5.5743489e-02 
5.2596990e-02 0.0000000e+00 -2.2981858e-02 
2.1609819e-01 0.0000000e+00 -2.2168826e-02 
-2.8450491e-03 0.0000000e+00 2.4314239e-03 
-9.9187177e-03 0.0000000e+00 -5.5199843e-03 
-4.2699892e-02 0.0000000e+00 4.2854477e-02 
-1.9869564e-01 0.0000000e+00 -9.1419831e-02 
5.2611675e-02 0.0000000e+00 -1.4735738e-02 
2.1610314e-01 0.0000000e+00 -2.5896303e-02 
-2.8434456e-03 0.0000000e+00 2.6712995e-03 
-9.9260909e-03 0.0000000e+00 -7.3840125e-03 
-4.2668175e-02 0.0000000e+00 4.6791408e-02 
-1.9874100e-01 0.0000000e+00 -1.2750432e-01 
5.2626364e-02 0.0000000e+00 1.8657855e-03 
2.1610808e-01 0.0000000e+00 -2.5885936e-02 
-2.8418421e-03 0.0000000e+00 2.6916219e-03 
-9.9334633e-03 0.0000000e+00 -8.9969262e-03 
-4.2636454e-02 0.0000000e+00 4.6804503e-02 
-1.9878636e-01 0.0000000e+00 -1.6040653e-01 
5.2641049e-02 0.0000000e+00 2.3192845e-02 
2.1611303e-01 0.0000000e+00 -2.3045132e-02 
-2.8402386e-03 0.0000000e+00 2.5318388e-03 
-9.9408356e-03 0.0000000e+00 -1.0200923e-02 
-4.2604733e-02 0.0000000e+00 4.3643359e-02 
-1.9883171e-01 0.0000000e+00 -1.8653604e-01 
5.2655738e-02 0.0000000e+00 4.5615572e-02 
2.1611798e-01 0.0000000e+00 -1.8281294e-02 
-2.8386354e-03 0.0000000e+00 2.2313979e-03 
-9.9482080e-03 0.0000000e+00 -1.0838202e-02 
-4.2573016e-02 0.0000000e+00 3.8057588e-02 
-1.9887707e-01 0.0000000e+00 -2.0230246e-01 
5.2670427e-02 0.0000000e+00 6.5504104e-02 
2.1612293e-01 0.0000000e+00 -1.2501828e-02 
-2.8370318e-03 0.0000000e+00 1.8297472e-03 
-9.9555803e-03 0.0000000e+00 -1.0750962e-02 
-4.2541295e-02 0.0000000e+00 3.0796787e-02 
-1.9892243e-01 0.0000000e+00 -2.0411532e-01 
5.2685112e-02 0.0000000e+00 7.9228565e-02 
2.1612787e-01 0.0000000e+00 -6.6141416e-03 
-2.8354283e-03 0.0000000e+00 1.3663344e-03 
-9.9629527e-03 0.0000000e+00 -9.7814007e-03 
-4.2509578e-02 0.0000000e+00 2.2610562e-02 
-1.9896778e-01 0.0000000e+00 -1.8838423e-01 
5.2699801e-02 0.0000000e+00 8.3159097e-02 
2.1613282e-01 0.0000000e+00 -1.5256376e-03 
-2.8338248e-03 0.0000000e+00 8.8060700e-04 
-9.9703250e-03 0.0000000e+00 -7.7717155e-03 
-4.2477857e-02 0.0000000e+00 1.4248518e-02 
-1.9901314e-01 0.0000000e+00 -1.5151879e-01 
5.2714486e-02 0.0000000e+00 7.3665828e-02 
2.1613777e-01 0.0000000e+00 1.8562776e-03 
-2.8322213e-03 0.0000000e+00 4.1201295e-04 
-9.9776983e-03 0.0000000e+00 -4.5641055e-03 
-4.2446136e-02 0.0000000e+00 6.4602573e-03 
-1.9905850e-01 0.0000000e+00 -8.9928538e-02 
5.2729174e-02 0.0000000e+00 4.7118891e-02 
2.1614271e-01 0.0000000e+00 2.6241988e-03 
0.0000000e+00 0.0000000e+00 0.0000000e+00 
-4.4500813e-04 0.0000000e+00 3.6559805e-16 
-8.8124187e-04 0.0000000e+00 7.3119616e-16 
-1.2999268e-03 0.0000000e+00 1.0967940e-15 
-1.6922884e-03 0.0000000e+00 1.4623924e-15 
-2.0495525e-03 0.0000000e+00 1.8279905e-15 
-2.3629447e-03 0.0000000e+00 2.1935890e-15 
-2.6236903e-03 0.0000000e+00 2.5591866e-15 
-2.8230150e-03 0.0000000e+00 2.9247842e-15 
-2.9521447e-03 0.0000000e+00 3.2903823e-15 
-3.0023046e-03 0.0000000e+00 3.6559801e-15 
-2.9647206e-03 0.0000000e+00 4.0215782e-15 
-2.8306181e-03 0.0000000e+00 4.3871750e-15 
-2.6135026e-03 0.0000000e+00 -6.4116833e-08 
-2.3679850e-03 0.0000000e+00 -1.2823367e-07 
-2.1469488e-03 0.0000000e+00 -1.9235050e-07 
-2.0032777e-03 0.0000000e+00 -2.5646733e-07 
-1.9898550e-03 0.0000000e+00 -3.2058418e-07 
-2.1595643e-03 0.0000000e+00 -3.8470100e-07 
-2.5652891e-03 0.0000000e+00 -4.4881784e-07 
-3.2599131e-03 0.0000000e+00 -5.1293466e-07 
-4.2963196e-03 0.0000000e+00 -5.7705154e-07 
-5.7273922e-03 0.0000000e+00 -6.4116836e-07 
-7.6060146e-03 0.0000000e+00 -7.0528517e-07 
-9.9850707e-03 0.0000000e+00 -7.6940199e-07 
-1.3059385e-02 0.0000000e+00 -1.0900036e-06 
-1.6834788e-02 0.0000000e+00 -1.4106051e-06 
-2.1080669e-02 0.0000000e+00 -1.7312067e-06 
-2.5566418e-02 0.0000000e+00 -2.0518082e-06 
-3.0061424e-02 0.0000000e+00 -2.3724097e-06 
-3.4335077e-02 0.0000000e+00 -2.6930113e-06 
-3.8156770e-02 0.0000000e+00 -3.0136127e-06 
-4.1295886e-02 0.0000000e+00 -3.3342144e-06 
-4.3521821e-02 0.0000000e+00 -3.6548158e-06 
-4.4603962e-02 0.0000000e+00 -3.9754177e-06 
-4.4311699e-02 0.0000000e+00 -4.2960191e-06 
-4.2414419e-02 0.0000000e+00 -4.6166206e-06 
-3.9143924e-02 0.0000000e+00 -6.1555984e-06 
-3.5545148e-02 0.0000000e+00 -7.6945762e-06 
-3.2607198e-02 0.0000000e+00 -9.2335540e-06 
-3.1319164e-02 0.0000000e+00 -1.0772532e-05 
-3.2670148e-02 0.0000000e+00 -1.2311510e-05 
-3.7649252e-02 0.0000000e+00 -1.3850487e-05 
-4.7245566e-02 0.0000000e+00 -1.5389465e-05 
-6.2448200e-02 0.0000000e+00 -1.6928443e-05 
-8.4246248e-02 0.0000000e+00 -1.8467421e-05 
-1.1362880e-01 0.0000000e+00 -2.0006399e-05 
-1.5158497e-01 0.0000000e+00 -2.1545377e-05 
-1.9910385e-01 0.0000000e+00 -2.3084354e-05 
-2.6087207e-01 0.0000000e+00 -3.0459058e-05 
-3.4041348e-01 0.0000000e+00 -3.7833761e-05 
-4.3697315e-01 0.0000000e+00 -4.5208464e-05 
-5.4979604e-01 0.0000000e+00 -5.2583171e-05 
-4.2812717e-01 0.0000000e+00 -5.9957874e-05 
-3.2121155e-01 0.0000000e+00 -6.7332578e-05 
-2.2829416e-01 0.0000000e+00 -7.4707285e-05 
-1.4862002e-01 0.0000000e+00 -8.2081984e-05 
-8.1434160e-02 0.0000000e+00 -8.9456691e-05 
-2.5981549e-02 0.0000000e+00 -9.6831398e-05 
1.8492792e-02 0.0000000e+00 -1.0420610e-04 
5.2743860e-02 0.0000000e+00 -1.1158080e-04 
8.0471702e-02 0.0000000e+00 -1.1305566e-04 
1.0499983e-01 0.0000000e+00 -1.1453052e-04 
1.2651850e-01 0.0000000e+00 -1.1600539e-04 
1.4521791e-01 0.0000000e+00 -1.1748025e-04 
1.6128832e-01 0.0000000e+00 -1.1895510e-04 
1.7491992e-01 0.0000000e+00 -1.2042997e-04 
1.8630296e-01 0.0000000e+00 -1.2190483e-04 
1.9562767e-01 0.0000000e+00 -1.2337969e-04 
2.0308426e-01 0.0000000e+00 -1.2485454e-04 
2.0886298e-01 0.0000000e+00 -1.2632941e-04 
2.1315403e-01 0.0000000e+00 -1.2780428e-04 
2.1614766e-01 0.0000000e+00 -1.2927913e-04 
ADJOINT_ROTATION 3 212  float
0.0000000e+00 -1.0761037e-04 0.0000000e+00 
0.0000000e+00 -1.2515917e-04 0.0000000e+00 
0.0000000e+00 -1.7780560e-04 0.0000000e+00 
0.0000000e+00 -2.6554964e-04 0.0000000e+00 
0.0000000e+00 -3.8839129e-04 0.0000000e+00 
0.0000000e+00 -5.4633059e-04 0.0000000e+00 
0.0000000e+00 -7.3936745e-04 0.0000000e+00 
0.0000000e+00 -9.6750195e-04 0.0000000e+00 
0.0000000e+00 -1.2307341e-03 0.0000000e+00 
0.0000000e+00 -1.5290638e-03 0.0000000e+00 
0.0000000e+00 -1.8624912e-03 0.0000000e+00 
0.0000000e+00 -2.2310163e-03 0.0000000e+00 
0.0000000e+00 -2.6346387e-03 0.0000000e+00 
0.0000000e+00 -3.3273874e-03 0.0000000e+00 
0.0000000e+00 -3.8086018e-03 0.0000000e+00 
0.0000000e+00 -4.0782820e-03 0.0000000e+00 
0.0000000e+00 -4.1364282e-03 0.0000000e+00 
0.0000000e+00 -3.9830403e-03 0.0000000e+00 
0.0000000e+00 -3.6181186e-03 0.0000000e+00 
0.0000000e+00 -3.0416623e-03 0.0000000e+00 
0.0000000e+00 -2.2536721e-03 0.0000000e+00 
0.0000000e+00 -1.2541476e-03 0.0000000e+00 
0.0000000e+00 -4.3089072e-05 0.0000000e+00 
0.0000000e+00 1.3795036e-03 0.0000000e+00 
0.0000000e+00 3.0136304e-03 0.0000000e+00 
0.0000000e+00 3.9122114e-03 0.0000000e+00 
0.0000000e+00 3.8883509e-03 0.0000000e+00 
0.0000000e+00 2.9420492e-03 0.0000000e+00 
0.0000000e+00 1.0733064e-03 0.0000000e+00 
0.0000000e+00 -1.7178777e-03 0.0000000e+00 
0.0000000e+00 -5.4315031e-03 0.0000000e+00 
0.0000000e+00 -1.0067569e-02 0.0000000e+00 
0.0000000e+00 -1.5626077e-02 0.0000000e+00 
0.0000000e+00 -2.2107026e-02 0.0000000e+00 
0.0000000e+00 -2.9510416e-02 0.0000000e+00 
0.0000000e+00 -3.7836246e-02 0.0000000e+00 
0.0000000e+00 -4.7084522e-02 0.0000000e+00 
0.0000000e+00 -6.1738070e-02 0.0000000e+00 
0.0000000e+00 -7.2435223e-02 0.0000000e+00 
0.0000000e+00 -7.9175979e-02 0.0000000e+00 
0.0000000e+00 -8.1960343e-02 0.0000000e+00 
0.0000000e+00 -8.0788307e-02 0.0000000e+00 
0.0000000e+00 -7.5659879e-02 0.0000000e+00 
0.0000000e+00 -6.6575058e-02 0.0000000e+00 
0.0000000e+00 -5.3533837e-02 0.0000000e+00 
0.0000000e+00 -3.6536220e-02 0.0000000e+00 
0.0000000e+00 -1.5582212e-02 0.0000000e+00 
0.0000000e+00 9.3281940e-03 0.0000000e+00 
0.0000000e+00 3.8194995e-02 0.0000000e+00 
0.0000000e+00 5.6350600e-02 0.0000000e+00 
0.0000000e+00 7.1486227e-02 0.0000000e+00 
0.0000000e+00 8.3601877e-02 0.0000000e+00 
0.0000000e+00 9.2697546e-02 0.0000000e+00 
0.0000000e+00 9.8773234e-02 0.0000000e+00 
0.0000000e+00 1.0182894e-01 0.0000000e+00 
0.0000000e+00 1.0186467e-01 0.0000000e+00 
0.0000000e+00 9.8880418e-02 0.0000000e+00 
0.0000000e+00 9.2876188e-02 0.0000000e+00 
0.0000000e+00 8.3851978e-02 0.0000000e+00 
0.0000000e+00 7.1807794e-02 0.0000000e+00 
0.0000000e+00 5.6743626e-02 0.0000000e+00 
0.0000000e+00 5.9034016e-02 0.0000000e+00 
0.0000000e+00 6.0563501e-02 0.0000000e+00 
0.0000000e+00 6.1332077e-02 0.0000000e+00 
0.0000000e+00 6.1339743e-02 0.0000000e+00 
0.0000000e+00 6.0586501e-02 0.0000000e+00 
0.0000000e+00 5.9072349e-02 0.0000000e+00 
0.0000000e+00 5.6797288e-02 0.0000000e+00 
0.0000000e+00 5.3761318e-02 0.0000000e+00 
0.0000000e+00 4.9964439e-02 0.0000000e+00 
0.0000000e+00 4.5406651e-02 0.0000000e+00 
0.0000000e+00 4.0087957e-02 0.0000000e+00 
0.0000000e+00 3.4008350e-02 0.0000000e+00 
0.0000000e+00 -1.9193980e-03 0.0000000e+00 
0.0000000e+00 3.6160136e-03 0.0000000e+00 
0.0000000e+00 -3.3989619e-02 0.0000000e+00 
0.0000000e+00 5.6963380e-02 0.0000000e+00 
0.0000000e+00 2.1883482e-02 0.0000000e+00 
0.0000000e+00 2.1995638e-02 0.0000000e+00 
0.0000000e+00 -1.2830527e-03 0.0000000e+00 
0.0000000e+00 3.9027932e-03 0.0000000e+00 
0.0000000e+00 -2.2393923e-02 0.0000000e+00 
0.0000000e+00 6.8550929e-02 0.0000000e+00 
0.0000000e+00 -5.7169250e-03 0.0000000e+00 
0.0000000e+00 1.1797734e-02 0.0000000e+00 
0.0000000e+00 -7.2560296e-04 0.0000000e+00 
0.0000000e+00 3.8739694e-03 0.0000000e+00 
0.0000000e+00 -1.2297437e-02 0.0000000e+00 
0.0000000e+00 7.2957635e-02 0.0000000e+00 
0.0000000e+00 -2.6057599e-02 0.0000000e+00 
0.0000000e+00 3.4146416e-03 0.0000000e+00 
0.0000000e+00 -2.4704877e-04 0.0000000e+00 
0.0000000e+00 3.5295421e-03 0.0000000e+00 
0.0000000e+00 -3.7001565e-03 0.0000000e+00 
0.0000000e+00 7.0183508e-02 0.0000000e+00 
0.0000000e+00 -3.9138537e-02 0.0000000e+00 
0.0000000e+00 -3.1536401e-03 0.0000000e+00 
0.0000000e+00 1.5260994e-04 0.0000000e+00 
0.0000000e+00 2.8695113e-03 0.0000000e+00 
0.0000000e+00 3.3979164e-03 0.0000000e+00 
0.0000000e+00 6.0228538e-02 0.0000000e+00 
0.0000000e+00 -4.4959743e-02 0.0000000e+00 
0.0000000e+00 -7.9071112e-03 0.0000000e+00 
0.0000000e+00 4.7337313e-04 0.0000000e+00 
0.0000000e+00 1.8938772e-03 0.0000000e+00 
0.0000000e+00 8.9967819e-03 0.0000000e+00 
0.0000000e+00 4.3092728e-02 0.0000000e+00 
0.0000000e+00 -4.3521214e-02 0.0000000e+00 
0.0000000e+00 -1.0845771e-02 0.0000000e+00 
0.0000000e+00 7.1524078e-04 0.0000000e+00 
0.0000000e+00 6.0263957e-04 0.0000000e+00 
0.0000000e+00 1.3096441e-02 0.0000000e+00 
0.0000000e+00 1.8776082e-02 0.0000000e+00 
0.0000000e+00 -3.4822948e-02 0.0000000e+00 
0.0000000e+00 -1.1969620e-02 0.0000000e+00 
0.0000000e+00 8.7821292e-04 0.0000000e+00 
0.0000000e+00 -1.0042015e-03 0.0000000e+00 
0.0000000e+00 1.5696893e-02 0.0000000e+00 
0.0000000e+00 -1.2721405e-02 0.0000000e+00 
0.0000000e+00 -1.8864950e-02 0.0000000e+00 
0.0000000e+00 -1.1278659e-02 0.0000000e+00 
0.0000000e+00 9.6228957e-04 0.0000000e+00 
0.0000000e+00 -2.9266460e-03 0.0000000e+00 
0.0000000e+00 1.6798137e-02 0.0000000e+00 
0.0000000e+00 -5.1399730e-02 0.0000000e+00 
0.0000000e+00 4.3527829e-03 0.0000000e+00 
0.0000000e+00 -8.7728873e-03 0.0000000e+00 
0.0000000e+00 9.6747064e-04 0.0000000e+00 
0.0000000e+00 -5.1646940e-03 0.0000000e+00 
0.0000000e+00 1.6400173e-02 0.0000000e+00 
0.0000000e+00 -9.7258896e-02 0.0000000e+00 
0.0000000e+00 3.4830250e-02 0.0000000e+00 
0.0000000e+00 -4.4523049e-03 0.0000000e+00 
0.0000000e+00 8.9375622e-04 0.0000000e+00 
0.0000000e+00 -7.7183456e-03 0.0000000e+00 
0.0000000e+00 1.4503002e-02 0.0000000e+00 
0.0000000e+00 -1.5029889e-01 0.0000000e+00 
0.0000000e+00 7.2567448e-02 0.0000000e+00 
0.0000000e+00 1.6830883e-03 0.0000000e+00 
0.0000000e+00 -1.7858822e-03 0.0000000e+00 
0.0000000e+00 -1.7683334e-03 0.0000000e+00 
0.0000000e+00 -1.7156869e-03 0.0000000e+00 
0.0000000e+00 -1.6279429e-03 0.0000000e+00 
0.0000000e+00 -1.5051012e-03 0.0000000e+00 
0.0000000e+00 -1.3471619e-03 0.0000000e+00 
0.0000000e+00 -1.1541250e-03 0.0000000e+00 
0.0000000e+00 -9.2599052e-04 0.0000000e+00 
0.0000000e+00 -6.6275836e-04 0.0000000e+00 
0.0000000e+00 -3.6442865e-04 0.0000000e+00 
0.0000000e+00 -3.1001280e-05 0.0000000e+00 
0.0000000e+00 3.3752370e-04 0.0000000e+00 
0.0000000e+00 7.4114627e-04 0.0000000e+00 
0.0000000e+00 9.6052181e-04 0.0000000e+00 
0.0000000e+00 9.6836314e-04 0.0000000e+00 
0.0000000e+00 7.6467037e-04 0.0000000e+00 
0.0000000e+00 3.4944346e-04 0.0000000e+00 
0.0000000e+00 -2.7731754e-04 0.0000000e+00 
0.0000000e+00 -1.1156127e-03 0.0000000e+00 
0.0000000e+00 -2.1654421e-03 0.0000000e+00 
0.0000000e+00 -3.4268054e-03 0.0000000e+00 
0.0000000e+00 -4.8997030e-03 0.0000000e+00 
0.0000000e+00 -6.5841344e-03 0.0000000e+00 
0.0000000e+00 -8.4801000e-03 0.0000000e+00 
0.0000000e+00 -1.0587600e-02 0.0000000e+00 
0.0000000e+00 -1.3853175e-02 0.0000000e+00 
0.0000000e+00 -1.6196309e-02 0.0000000e+00 
0.0000000e+00 -1.7617000e-02 0.0000000e+00 
0.0000000e+00 -1.8115252e-02 0.0000000e+00 
0.0000000e+00 -1.7691061e-02 0.0000000e+00 
0.0000000e+00 -1.6344430e-02 0.0000000e+00 
0.0000000e+00 -1.4075357e-02 0.0000000e+00 
0.0000000e+00 -1.0883844e-02 0.0000000e+00 
0.0000000e+00 -6.7698881e-03 0.0000000e+00 
0.0000000e+00 -1.7334918e-03 0.0000000e+00 
0.0000000e+00 4.2253458e-03 0.0000000e+00 
0.0000000e+00 1.1106625e-02 0.0000000e+00 
0.0000000e+00 1.4397936e-02 0.0000000e+00 
0.0000000e+00 1.3732851e-02 0.0000000e+00 
0.0000000e+00 9.1113718e-03 0.0000000e+00 
0.0000000e+00 5.3349696e-04 0.0000000e+00 
0.0000000e+00 -1.2000773e-02 0.0000000e+00 
0.0000000e+00 -2.8491439e-02 0.0000000e+00 
0.0000000e+00 -4.8938502e-02 0.0000000e+00 
0.0000000e+00 -7.3341958e-02 0.0000000e+00 
0.0000000e+00 -1.0170181e-01 0.0000000e+00 
0.0000000e+00 -1.3401806e-01 0.0000000e+00 
0.0000000e+00 -1.7029069e-01 0.0000000e+00 
0.0000000e+00 -2.1051973e-01 0.0000000e+00 
0.0000000e+00 -2.8312263e-01 0.0000000e+00 
0.0000000e+00 -3.5270551e-01 0.0000000e+00 
0.0000000e+00 -4.1926843e-01 0.0000000e+00 
0.0000000e+00 -4.8281136e-01 0.0000000e+00 
0.0000000e+00 4.5666566e-01 0.0000000e+00 
0.0000000e+00 3.9916268e-01 0.0000000e+00 
0.0000000e+00 3.4467968e-01 0.0000000e+00 
0.0000000e+00 2.9321668e-01 0.0000000e+00 
0.0000000e+00 2.4477363e-01 0.0000000e+00 
0.0000000e+00 1.9935057e-01 0.0000000e+00 
0.0000000e+00 1.5694749e-01 0.0000000e+00 
0.0000000e+00 1.1756439e-01 0.0000000e+00 
0.0000000e+00 1.0438513e-01 0.0000000e+00 
0.0000000e+00 9.1966785e-02 0.0000000e+00 
0.0000000e+00 8.0309346e-02 0.0000000e+00 
0.0000000e+00 6.9412813e-02 0.0000000e+00 