# vtk DataFile Version 4.0
vtk output
ASCII
DATASET UNSTRUCTURED_GRID
POINTS 212 float
0.0000000e+00 0.0000000e+00 0.0000000e+00 
0.0000000e+00 0.0000000e+00 2.5000000e-01 
0.0000000e+00 0.0000000e+00 5.0000000e-01 
0.0000000e+00 0.0000000e+00 7.5000000e-01 
0.0000000e+00 0.0000000e+00 1.0000000e+00 
0.0000000e+00 0.0000000e+00 1.2500000e+00 
0.0000000e+00 0.0000000e+00 1.5000000e+00 
0.0000000e+00 0.0000000e+00 1.7500000e+00 
0.0000000e+00 0.0000000e+00 2.0000000e+00 
0.0000000e+00 0.0000000e+00 2.2500000e+00 
0.0000000e+00 0.0000000e+00 2.5000000e+00 
0.0000000e+00 0.0000000e+00 2.7500000e+00 
0.0000000e+00 0.0000000e+00 3.0000000e+00 
0.0000000e+00 0.0000000e+00 3.2500000e+00 
0.0000000e+00 0.0000000e+00 3.5000000e+00 
0.0000000e+00 0.0000000e+00 3.7500000e+00 
0.0000000e+00 0.0000000e+00 4.0000000e+00 
0.0000000e+00 0.0000000e+00 4.2500000e+00 
0.0000000e+00 0.0000000e+00 4.5000000e+00 
0.0000000e+00 0.0000000e+00 4.7500000e+00 
0.0000000e+00 0.0000000e+00 5.0000000e+00 
0.0000000e+00 0.0000000e+00 5.2500000e+00 
0.0000000e+00 0.0000000e+00 5.5000000e+00 
0.0000000e+00 0.0000000e+00 5.7500000e+00 
0.0000000e+00 0.0000000e+00 6.0000000e+00 
0.0000000e+00 0.0000000e+00 6.2500000e+00 
0.0000000e+00 0.0000000e+00 6.5000000e+00 
0.0000000e+00 0.0000000e+00 6.7500000e+00 
0.0000000e+00 0.0000000e+00 7.0000000e+00 
0.0000000e+00 0.0000000e+00 7.2500000e+00 
0.0000000e+00 0.0000000e+00 7.5000000e+00 
0.0000000e+00 0.0000000e+00 7.7500000e+00 
0.0000000e+00 0.0000000e+00 8.0000000e+00 
0.0000000e+00 0.0000000e+00 8.2500000e+00 
0.0000000e+00 0.0000000e+00 8.5000000e+00 
0.0000000e+00 0.0000000e+00 8.7500000e+00 
0.0000000e+00 0.0000000e+00 9.0000000e+00 
0.0000000e+00 0.0000000e+00 9.2500000e+00 
0.0000000e+00 0.0000000e+00 9.5000000e+00 
0.0000000e+00 0.0000000e+00 9.7500000e+00 
0.0000000e+00 0.0000000e+00 1.0000000e+01 
0.0000000e+00 0.0000000e+00 1.0250000e+01 
0.0000000e+00 0.0000000e+00 1.0500000e+01 
0.0000000e+00 0.0000000e+00 1.0750000e+01 
0.0000000e+00 0.0000000e+00 1.1000000e+01 
0.0000000e+00 0.0000000e+00 1.1250000e+01 
0.0000000e+00 0.0000000e+00 1.1500000e+01 
0.0000000e+00 0.0000000e+00 1.1750000e+01 
0.0000000e+00 0.0000000e+00 1.2000000e+01 
0.0000000e+00 0.0000000e+00 1.2250000e+01 
0.0000000e+00 0.0000000e+00 1.2500000e+01 
0.0000000e+00 0.0000000e+00 1.2750000e+01 
0.0000000e+00 0.0000000e+00 1.3000000e+01 
0.0000000e+00 0.0000000e+00 1.3250000e+01 
0.0000000e+00 0.0000000e+00 1.3500000e+01 
0.0000000e+00 0.0000000e+00 1.3750000e+01 
0.0000000e+00 0.0000000e+00 1.4000000e+01 
0.0000000e+00 0.0000000e+00 1.4250000e+01 
0.0000000e+00 0.0000000e+00 1.4500000e+01 
0.0000000e+00 0.0000000e+00 1.4750000e+01 
0.0000000e+00 0.0000000e+00 1.5000000e+01 
0.0000000e+00 0.0000000e+00 1.5250000e+01 
0.0000000e+00 0.0000000e+00 1.5500000e+01 
0.0000000e+00 0.0000000e+00 1.5750000e+01 
0.0000000e+00 0.0000000e+00 1.6000000e+01 
0.0000000e+00 0.0000000e+00 1.6250000e+01 
0.0000000e+00 0.0000000e+00 1.6500000e+01 
0.0000000e+00 0.0000000e+00 1.6750000e+01 
0.0000000e+00 0.0000000e+00 1.7000000e+01 
0.0000000e+00 0.0000000e+00 1.7250000e+01 
0.0000000e+00 0.0000000e+00 1.7500000e+01 
0.0000000e+00 0.0000000e+00 1.7750000e+01 
0.0000000e+00 0.0000000e+00 1.8000000e+01 
5.0000000e-01 0.0000000e+00 3.0000000e+00 
5.0000000e-01 0.0000000e+00 6.0000000e+00 
5.0000000e-01 0.0000000e+00 9.0000000e+00 
5.0000000e-01 0.0000000e+00 1.2000000e+01 
5.0000000e-01 0.0000000e+00 1.5000000e+01 
5.0000000e-01 0.0000000e+00 1.8000000e+01 
1.0000000e+00 0.0000000e+00 3.0000000e+00 
1.0000000e+00 0.0000000e+00 6.0000000e+00 
1.0000000e+00 0.0000000e+00 9.0000000e+00 
1.0000000e+00 0.0000000e+00 1.2000000e+01 
1.0000000e+00 0.0000000e+00 1.5000000e+01 
1.0000000e+00 0.0000000e+00 1.8000000e+01 
1.5000000e+00 0.0000000e+00 3.0000000e+00 
1.5000000e+00 0.0000000e+00 6.0000000e+00 
1.5000000e+00 0.0000000e+00 9.0000000e+00 
1.5000000e+00 0.0000000e+00 1.2000000e+01 
1.5000000e+00 0.0000000e+00 1.5000000e+01 
1.5000000e+00 0.0000000e+00 1.8000000e+01 
2.0000000e+00 0.0000000e+00 3.0000000e+00 
2.0000000e+00 0.0000000e+00 6.0000000e+00 
2.0000000e+00 0.0000000e+00 9.0000000e+00 
2.0000000e+00 0.0000000e+00 1.2000000e+01 
2.0000000e+00 0.0000000e+00 1.5000000e+01 
2.0000000e+00 0.0000000e+00 1.8000000e+01 
2.5000000e+00 0.0000000e+00 3.0000000e+00 
2.5000000e+00 0.0000000e+00 6.0000000e+00 
2.5000000e+00 0.0000000e+00 9.0000000e+00 
2.5000000e+00 0.0000000e+00 1.2000000e+01 
2.5000000e+00 0.0000000e+00 1.5000000e+01 
2.5000000e+00 0.0000000e+00 1.8000000e+01 
3.0000000e+00 0.0000000e+00 3.0000000e+00 
3.0000000e+00 0.0000000e+00 6.0000000e+00 
3.0000000e+00 0.0000000e+00 9.0000000e+00 
3.0000000e+00 0.0000000e+00 1.2000000e+01 
3.0000000e+00 0.0000000e+00 1.5000000e+01 
3.0000000e+00 0.0000000e+00 1.8000000e+01 
3.5000000e+00 0.0000000e+00 3.0000000e+00 
3.5000000e+00 0.0000000e+00 6.0000000e+00 
3.5000000e+00 0.0000000e+00 9.0000000e+00 
3.5000000e+00 0.0000000e+00 1.2000000e+01 
3.5000000e+00 0.0000000e+00 1.5000000e+01 
3.5000000e+00 0.0000000e+00 1.8000000e+01 
4.0000000e+00 0.0000000e+00 3.0000000e+00 
4.0000000e+00 0.0000000e+00 6.0000000e+00 
4.0000000e+00 0.0000000e+00 9.0000000e+00 
4.0000000e+00 0.0000000e+00 1.2000000e+01 
4.0000000e+00 0.0000000e+00 1.5000000e+01 
4.0000000e+00 0.0000000e+00 1.8000000e+01 
4.5000000e+00 0.0000000e+00 3.0000000e+00 
4.5000000e+00 0.0000000e+00 6.0000000e+00 
4.5000000e+00 0.0000000e+00 9.0000000e+00 
4.5000000e+00 0.0000000e+00 1.2000000e+01 
4.5000000e+00 0.0000000e+00 1.5000000e+01 
4.5000000e+00 0.0000000e+00 1.8000000e+01 
5.0000000e+00 0.0000000e+00 3.0000000e+00 
5.0000000e+00 0.0000000e+00 6.0000000e+00 
5.0000000e+00 0.0000000e+00 9.0000000e+00 
5.0000000e+00 0.0000000e+00 1.2000000e+01 
5.0000000e+00 0.0000000e+00 1.5000000e+01 
5.0000000e+00 0.0000000e+00 1.8000000e+01 
5.5000000e+00 0.0000000e+00 3.0000000e+00 
5.5000000e+00 0.0000000e+00 6.0000000e+00 
5.5000000e+00 0.0000000e+00 9.0000000e+00 
5.5000000e+00 0.0000000e+00 1.2000000e+01 
5.5000000e+00 0.0000000e+00 1.5000000e+01 
5.5000000e+00 0.0000000e+00 1.8000000e+01 
6.0000000e+00 0.0000000e+00 0.0000000e+00 
6.0000000e+00 0.0000000e+00 2.5000000e-01 
6.0000000e+00 0.0000000e+00 5.0000000e-01 
6.0000000e+00 0.0000000e+00 7.5000000e-01 
6.0000000e+00 0.0000000e+00 1.0000000e+00 
6.0000000e+00 0.0000000e+00 1.2500000e+00 
6.0000000e+00 0.0000000e+00 1.5000000e+00 
6.0000000e+00 0.0000000e+00 1.7500000e+00 
6.0000000e+00 0.0000000e+00 2.0000000e+00 
6.0000000e+00 0.0000000e+00 2.2500000e+00 
6.0000000e+00 0.0000000e+00 2.5000000e+00 
6.0000000e+00 0.0000000e+00 2.7500000e+00 
6.0000000e+00 0.0000000e+00 3.0000000e+00 
6.0000000e+00 0.0000000e+00 3.2500000e+00 
6.0000000e+00 0.0000000e+00 3.5000000e+00 
6.0000000e+00 0.0000000e+00 3.7500000e+00 
6.0000000e+00 0.0000000e+00 4.0000000e+00 
6.0000000e+00 0.0000000e+00 4.2500000e+00 
6.0000000e+00 0.0000000e+00 4.5000000e+00 
6.0000000e+00 0.0000000e+00 4.7500000e+00 
6.0000000e+00 0.0000000e+00 5.0000000e+00 
6.0000000e+00 0.0000000e+00 5.2500000e+00 
6.0000000e+00 0.0000000e+00 5.5000000e+00 
6.0000000e+00 0.0000000e+00 5.7500000e+00 
6.0000000e+00 0.0000000e+00 6.0000000e+00 
6.0000000e+00 0.0000000e+00 6.2500000e+00 
6.0000000e+00 0.0000000e+00 6.5000000e+00 
6.0000000e+00 0.0000000e+00 6.7500000e+00 
6.0000000e+00 0.0000000e+00 7.0000000e+00 
6.0000000e+00 0.0000000e+00 7.2500000e+00 
6.0000000e+00 0.0000000e+00 7.5000000e+00 
6.0000000e+00 0.0000000e+00 7.7500000e+00 
6.0000000e+00 0.0000000e+00 8.0000000e+00 
6.0000000e+00 0.0000000e+00 8.2500000e+00 
6.0000000e+00 0.0000000e+00 8.5000000e+00 
6.0000000e+00 0.0000000e+00 8.7500000e+00 
6.0000000e+00 0.0000000e+00 9.0000000e+00 
6.0000000e+00 0.0000000e+00 9.2500000e+00 
6.0000000e+00 0.0000000e+00 9.5000000e+00 
6.0000000e+00 0.0000000e+00 9.7500000e+00 
6.0000000e+00 0.0000000e+00 1.0000000e+01 
6.0000000e+00 0.0000000e+00 1.0250000e+01 
6.0000000e+00 0.0000000e+00 1.0500000e+01 
6.0000000e+00 0.0000000e+00 1.0750000e+01 
6.0000000e+00 0.0000000e+00 1.1000000e+01 
6.0000000e+00 0.0000000e+00 1.1250000e+01 
6.0000000e+00 0.0000000e+00 1.1500000e+01 
6.0000000e+00 0.0000000e+00 1.1750000e+01 
6.0000000e+00 0.0000000e+00 1.2000000e+01 
6.0000000e+00 0.0000000e+00 1.2250000e+01 
6.0000000e+00 0.0000000e+00 1.2500000e+01 
6.0000000e+00 0.0000000e+00 1.2750000e+01 
6.0000000e+00 0.0000000e+00 1.3000000e+01 
6.0000000e+00 0.0000000e+00 1.3250000e+01 
6.0000000e+00 0.0000000e+00 1.3500000e+01 
6.0000000e+00 0.0000000e+00 1.3750000e+01 
6.0000000e+00 0.0000000e+00 1.4000000e+01 
6.0000000e+00 0.0000000e+00 1.4250000e+01 
6.0000000e+00 0.0000000e+00 1.4500000e+01 
6.0000000e+00 0.0000000e+00 1.4750000e+01 
6.0000000e+00 0.0000000e+00 1.5000000e+01 
6.0000000e+00 0.0000000e+00 1.5250000e+01 
6.0000000e+00 0.0000000e+00 1.5500000e+01 
6.0000000e+00 0.0000000e+00 1.5750000e+01 
6.0000000e+00 0.0000000e+00 1.6000000e+01 
6.0000000e+00 0.0000000e+00 1.6250000e+01 
6.0000000e+00 0.0000000e+00 1.6500000e+01 
6.0000000e+00 0.0000000e+00 1.6750000e+01 
6.0000000e+00 0.0000000e+00 1.7000000e+01 
6.0000000e+00 0.0000000e+00 1.7250000e+01 
6.0000000e+00 0.0000000e+00 1.7500000e+01 
6.0000000e+00 0.0000000e+00 1.7750000e+01 
6.0000000e+00 0.0000000e+00 1.8000000e+01 

CELLS 216 648
2 0 1
2 1 2
2 2 3
2 3 4
2 4 5
2 5 6
2 6 7
2 7 8
2 8 9
2 9 10
2 10 11
2 11 12
2 12 13
2 13 14
2 14 15
2 15 16
2 16 17
2 17 18
2 18 19
2 19 20
2 20 21
2 21 22
2 22 23
2 23 24
2 24 25
2 25 26
2 26 27
2 27 28
2 28 29
2 29 30
2 30 31
2 31 32
2 32 33
2 33 34
2 34 35
2 35 36
2 36 37
2 37 38
2 38 39
2 39 40
2 40 41
2 41 42
2 42 43
2 43 44
2 44 45
2 45 46
2 46 47
2 47 48
2 48 49
2 49 50
2 50 51
2 51 52
2 52 53
2 53 54
2 54 55
2 55 56
2 56 57
2 57 58
2 58 59
2 59 60
2 60 61
2 61 62
2 62 63
2 63 64
2 64 65
2 65 66
2 66 67
2 67 68
2 68 69
2 69 70
2 70 71
2 71 72
2 139 140
2 140 141
2 141 142
2 142 143
2 143 144
2 144 145
2 145 146
2 146 147
2 147 148
2 148 149
2 149 150
2 150 151
2 151 152
2 152 153
2 153 154
2 154 155
2 155 156
2 156 157
2 157 158
2 158 159
2 159 160
2 160 161
2 161 162
2 162 163
2 163 164
2 164 165
2 165 166
2 166 167
2 167 168
2 168 169
2 169 170
2 170 171
2 171 172
2 172 173
2 173 174
2 174 175
2 175 176
2 176 177
2 177 178
2 178 179
2 179 180
2 180 181
2 181 182
2 182 183
2 183 184
2 184 185
2 185 186
2 186 187
2 187 188
2 188 189
2 189 190
2 190 191
2 191 192
2 192 193
2 193 194
2 194 195
2 195 196
2 196 197
2 197 198
2 198 199
2 199 200
2 200 201
2 201 202
2 202 203
2 203 204
2 204 205
2 205 206
2 206 207
2 207 208
2 208 209
2 209 210
2 210 211
2 12 73
2 73 79
2 79 85
2 85 91
2 91 97
2 97 103
2 103 109
2 109 115
2 115 121
2 121 127
2 127 133
2 133 151
2 24 74
2 74 80
2 80 86
2 86 92
2 92 98
2 98 104
2 104 110
2 110 116
2 116 122
2 122 128
2 128 134
2 134 163
2 36 75
2 75 81
2 81 87
2 87 93
2 93 99
2 99 105
2 105 111
2 111 117
2 117 123
2 123 129
2 129 135
2 135 175
2 48 76
2 76 82
2 82 88
2 88 94
2 94 100
2 100 106
2 106 112
2 112 118
2 118 124
2 124 130
2 130 136
2 136 187
2 60 77
2 77 83
2 83 89
2 89 95
2 95 101
2 101 107
2 107 113
2 113 119
2 119 125
2 125 131
2 131 137
2 137 199
2 72 78
2 78 84
2 84 90
2 90 96
2 96 102
2 102 108
2 108 114
2 114 120
2 120 126
2 126 132
2 132 138
2 138 211

CELL_TYPES 216
3
3
3
3
3
3
3
3
3
3
3
3
3
3
3
3
3
3
3
3
3
3
3
3
3
3
3
3
3
3
3
3
3
3
3
3
3
3
3
3
3
3
3
3
3
3
3
3
3
3
3
3
3
3
3
3
3
3
3
3
3
3
3
3
3
3
3
3
3
3
3
3
3
3
3
3
3
3
3
3
3
3
3
3
3
3
3
3
3
3
3
3
3
3
3
3
3
3
3
3
3
3
3
3
3
3
3
3
3
3
3
3
3
3
3
3
3
3
3
3
3
3
3
3
3
3
3
3
3
3
3
3
3
3
3
3
3
3
3
3
3
3
3
3
3
3
3
3
3
3
3
3
3
3
3
3
3
3
3
3
3
3
3
3
3
3
3
3
3
3
3
3
3
3
3
3
3
3
3
3
3
3
3
3
3
3
3
3
3
3
3
3
3
3
3
3
3
3
3
3
3
3
3
3
3
3
3
3
3
3
3
3
3
3
3
3
POINT_DATA 212
FIELD FieldData 3
ADJOINT_DISPLACEMENT 3 212  float
0.0000000e+00 0.0000000e+00 0.0000000e+00 
-4.0554855e-04 0.0000000e+00 6.2710010e-16 
-8.0665614e-04 0.0000000e+00 1.2542002e-15 
-1.1988819e-03 0.0000000e+00 1.8813002e-15 
-1.5777847e-03 0.0000000e+00 2.5084004e-15 
-1.9389237e-03 0.0000000e+00 3.1355004e-15 
-2.2778579e-03 0.0000000e+00 3.7626004e-15 
-2.5901464e-03 0.0000000e+00 4.3897008e-15 
-2.8713483e-03 0.0000000e+00 5.0168008e-15 
-3.1170226e-03 0.0000000e+00 5.6439008e-15 
-3.3227280e-03 0.0000000e+00 6.2710008e-15 
-3.4840242e-03 0.0000000e+00 6.8981012e-15 
-3.5964698e-03 0.0000000e+00 7.5252008e-15 
-3.6894060e-03 0.0000000e+00 3.0089559e-08 
-3.8129287e-03 0.0000000e+00 6.0179111e-08 
-3.9937273e-03 0.0000000e+00 9.0268657e-08 
-4.2584920e-03 0.0000000e+00 1.2035821e-07 
-4.6339128e-03 0.0000000e+00 1.5044776e-07 
-5.1466795e-03 0.0000000e+00 1.8053731e-07 
-5.8234823e-03 0.0000000e+00 2.1062687e-07 
-6.6910111e-03 0.0000000e+00 2.4071642e-07 
-7.7759558e-03 0.0000000e+00 2.7080597e-07 
-9.1050062e-03 0.0000000e+00 3.0089552e-07 
-1.0704853e-02 0.0000000e+00 3.3098507e-07 
-1.2602185e-02 0.0000000e+00 3.6107460e-07 
-1.4985503e-02 0.0000000e+00 5.1152540e-07 
-1.7948231e-02 0.0000000e+00 6.6197617e-07 
-2.1374440e-02 0.0000000e+00 8.1242689e-07 
-2.5148205e-02 0.0000000e+00 9.6287772e-07 
-2.9153602e-02 0.0000000e+00 1.1133285e-06 
-3.3274703e-02 0.0000000e+00 1.2637793e-06 
-3.7395582e-02 0.0000000e+00 1.4142300e-06 
-4.1400313e-02 0.0000000e+00 1.5646808e-06 
-4.5172967e-02 0.0000000e+00 1.7151315e-06 
-4.8597626e-02 0.0000000e+00 1.8655822e-06 
-5.1558353e-02 0.0000000e+00 2.0160330e-06 
-5.3939231e-02 0.0000000e+00 2.1664839e-06 
-5.6286566e-02 0.0000000e+00 2.8886632e-06 
-5.9554338e-02 0.0000000e+00 3.6108427e-06 
-6.4238146e-02 0.0000000e+00 4.3330219e-06 
-7.0833571e-02 0.0000000e+00 5.0552012e-06 
-7.9836212e-02 0.0000000e+00 5.7773809e-06 
-9.1741651e-02 0.0000000e+00 6.4995602e-06 
-1.0704549e-01 0.0000000e+00 7.2217395e-06 
-1.2624331e-01 0.0000000e+00 7.9439187e-06 
-1.4983070e-01 0.0000000e+00 8.6660984e-06 
-1.7830326e-01 0.0000000e+00 9.3882782e-06 
-2.1215656e-01 0.0000000e+00 1.0110457e-05 
-2.5188622e-01 0.0000000e+00 1.0832637e-05 
-2.9162896e-01 0.0000000e+00 1.0112040e-05 
-3.2551745e-01 0.0000000e+00 9.3914450e-06 
-3.5404119e-01 0.0000000e+00 8.6708487e-06 
-3.7768978e-01 0.0000000e+00 7.9502533e-06 
-3.9695269e-01 0.0000000e+00 7.2296575e-06 
-4.1231945e-01 0.0000000e+00 6.5090617e-06 
-4.2427966e-01 0.0000000e+00 5.7884658e-06 
-4.3332276e-01 0.0000000e+00 5.0678700e-06 
-4.3993831e-01 0.0000000e+00 4.3472742e-06 
-4.4461584e-01 0.0000000e+00 3.6266786e-06 
-4.4784489e-01 0.0000000e+00 2.9060827e-06 
-4.5011500e-01 0.0000000e+00 2.1854869e-06 
-4.5237845e-01 0.0000000e+00 2.0413706e-06 
-4.5519814e-01 0.0000000e+00 1.8972544e-06 
-4.5847934e-01 0.0000000e+00 1.7531380e-06 
-4.6212748e-01 0.0000000e+00 1.6090218e-06 
-4.6604782e-01 0.0000000e+00 1.4649055e-06 
-4.7014570e-01 0.0000000e+00 1.3207892e-06 
-4.7432652e-01 0.0000000e+00 1.1766730e-06 
-4.7849557e-01 0.0000000e+00 1.0325567e-06 
-4.8255816e-01 0.0000000e+00 8.8844047e-07 
-4.8641968e-01 0.0000000e+00 7.4432415e-07 
-4.8998544e-01 0.0000000e+00 6.0020790e-07 
-4.9316078e-01 0.0000000e+00 4.5609164e-07 
-3.5967696e-03 0.0000000e+00 6.7034045e-05 
-1.2600811e-02 0.0000000e+00 3.4013048e-03 
-5.3945124e-02 0.0000000e+00 2.0237914e-03 
-2.5188616e-01 0.0000000e+00 1.1070892e-01 
-4.5010936e-01 0.0000000e+00 1.8287299e-03 
-4.9316171e-01 0.0000000e+00 4.9673482e-03 
-3.5970695e-03 0.0000000e+00 -4.4706452e-05 
-1.2599437e-02 0.0000000e+00 5.5175214e-03 
-5.3951014e-02 0.0000000e+00 5.1248795e-04 
-2.5188610e-01 0.0000000e+00 2.6987353e-01 
-4.5010376e-01 0.0000000e+00 1.3151181e-04 
-4.9316260e-01 0.0000000e+00 8.2332762e-03 
-3.5973694e-03 0.0000000e+00 -2.8524554e-04 
-1.2598064e-02 0.0000000e+00 6.5489197e-03 
-5.3956904e-02 0.0000000e+00 -3.5821556e-03 
-2.5188604e-01 0.0000000e+00 4.7510836e-01 
-4.5009813e-01 0.0000000e+00 -4.1319896e-03 
-4.9316353e-01 0.0000000e+00 1.0037603e-02 
-3.5976693e-03 0.0000000e+00 -6.0460722e-04 
-1.2596689e-02 0.0000000e+00 6.6954084e-03 
-5.3962797e-02 0.0000000e+00 -9.3105510e-03 
-2.5188598e-01 0.0000000e+00 7.2401708e-01 
-4.5009249e-01 0.0000000e+00 -1.0004295e-02 
-4.9316445e-01 0.0000000e+00 1.0619693e-02 
-3.5979692e-03 0.0000000e+00 -9.5281558e-04 
-1.2595315e-02 0.0000000e+00 6.1568967e-03 
-5.3968687e-02 0.0000000e+00 -1.5723109e-02 
-2.5188595e-01 0.0000000e+00 5.1420337e-01 
-4.5008686e-01 0.0000000e+00 -1.6527927e-02 
-4.9316534e-01 0.0000000e+00 1.0218910e-02 
-3.5982691e-03 0.0000000e+00 -1.2798946e-03 
-1.2593942e-02 0.0000000e+00 5.1332926e-03 
-5.3974576e-02 0.0000000e+00 -2.1870242e-02 
-2.5188589e-01 0.0000000e+00 3.4327096e-01 
-4.5008123e-01 0.0000000e+00 -2.2745403e-02 
-4.9316627e-01 0.0000000e+00 9.0746181e-03 
-3.5985690e-03 0.0000000e+00 -1.5358684e-03 
-1.2592568e-02 0.0000000e+00 3.8245062e-03 
-5.3980470e-02 0.0000000e+00 -2.6802363e-02 
-2.5188583e-01 0.0000000e+00 2.0882347e-01 
-4.5007560e-01 0.0000000e+00 -2.7699245e-02 
-4.9316716e-01 0.0000000e+00 7.4261809e-03 
-3.5988688e-03 0.0000000e+00 -1.6707610e-03 
-1.2591194e-02 0.0000000e+00 2.4304455e-03 
-5.3986359e-02 0.0000000e+00 -2.9569879e-02 
-2.5188577e-01 0.0000000e+00 1.0846461e-01 
-4.5006999e-01 0.0000000e+00 -3.0431975e-02 
-4.9316809e-01 0.0000000e+00 5.5129617e-03 
-3.5991687e-03 0.0000000e+00 -1.6345964e-03 
-1.2589820e-02 0.0000000e+00 1.1510196e-03 
-5.3992249e-02 0.0000000e+00 -2.9223207e-02 
-2.5188571e-01 0.0000000e+00 3.9798070e-02 
-4.5006436e-01 0.0000000e+00 -2.9986113e-02 
-4.9316901e-01 0.0000000e+00 3.5743243e-03 
-3.5994686e-03 0.0000000e+00 -1.3773987e-03 
-1.2588446e-02 0.0000000e+00 1.8613726e-04 
-5.3998142e-02 0.0000000e+00 -2.4812758e-02 
-2.5188565e-01 0.0000000e+00 4.2752619e-04 
-4.5005873e-01 0.0000000e+00 -2.5404181e-02 
-4.9316990e-01 0.0000000e+00 1.8496333e-03 
-3.5997685e-03 0.0000000e+00 -8.4919186e-04 
-1.2587072e-02 0.0000000e+00 -2.6429258e-04 
-5.4004032e-02 0.0000000e+00 -1.5388940e-02 
-2.5188559e-01 0.0000000e+00 -1.2043336e-02 
-4.5005310e-01 0.0000000e+00 -1.5728697e-02 
-4.9317083e-01 0.0000000e+00 5.7825184e-04 
0.0000000e+00 0.0000000e+00 0.0000000e+00 
-1.9416295e-04 0.0000000e+00 -6.2173801e-16 
-3.9276684e-04 0.0000000e+00 -1.2434753e-15 
-6.0025265e-04 0.0000000e+00 -1.8652123e-15 
-8.2106132e-04 0.0000000e+00 -2.4869499e-15 
-1.0596338e-03 0.0000000e+00 -3.1086874e-15 
-1.3204111e-03 0.0000000e+00 -3.7304246e-15 
-1.6078341e-03 0.0000000e+00 -4.3521620e-15 
-1.9263438e-03 0.0000000e+00 -4.9738986e-15 
-2.2803810e-03 0.0000000e+00 -5.5956364e-15 
-2.6743871e-03 0.0000000e+00 -6.2173739e-15 
-3.1128025e-03 0.0000000e+00 -6.8391122e-15 
-3.6000684e-03 0.0000000e+00 -7.4608492e-15 
-4.1818074e-03 0.0000000e+00 -3.0089559e-08 
-4.8828884e-03 0.0000000e+00 -6.0179111e-08 
-5.6766206e-03 0.0000000e+00 -9.0268657e-08 
-6.5363152e-03 0.0000000e+00 -1.2035821e-07 
-7.4352813e-03 0.0000000e+00 -1.5044776e-07 
-8.3468296e-03 0.0000000e+00 -1.8053731e-07 
-9.2442697e-03 0.0000000e+00 -2.1062687e-07 
-1.0100911e-02 0.0000000e+00 -2.4071642e-07 
-1.0890065e-02 0.0000000e+00 -2.7080597e-07 
-1.1585041e-02 0.0000000e+00 -3.0089552e-07 
-1.2159149e-02 0.0000000e+00 -3.3098507e-07 
-1.2585699e-02 0.0000000e+00 -3.6107460e-07 
-1.2976054e-02 0.0000000e+00 -5.1152540e-07 
-1.3536654e-02 0.0000000e+00 -6.6197617e-07 
-1.4383427e-02 0.0000000e+00 -8.1242689e-07 
-1.5632298e-02 0.0000000e+00 -9.6287772e-07 
-1.7399192e-02 0.0000000e+00 -1.1133285e-06 
-1.9800037e-02 0.0000000e+00 -1.2637793e-06 
-2.2950759e-02 0.0000000e+00 -1.4142300e-06 
-2.6967281e-02 0.0000000e+00 -1.5646808e-06 
-3.1965535e-02 0.0000000e+00 -1.7151315e-06 
-3.8061440e-02 0.0000000e+00 -1.8655822e-06 
-4.5370929e-02 0.0000000e+00 -2.0160330e-06 
-5.4009922e-02 0.0000000e+00 -2.1664839e-06 
-6.4856499e-02 0.0000000e+00 -2.8886632e-06 
-7.8381054e-02 0.0000000e+00 -3.6108427e-06 
-9.4087996e-02 0.0000000e+00 -4.3330219e-06 
-1.1148173e-01 0.0000000e+00 -5.0552012e-06 
-1.3006668e-01 0.0000000e+00 -5.7773809e-06 
-1.4934725e-01 0.0000000e+00 -6.4995602e-06 
-1.6882785e-01 0.0000000e+00 -7.2217395e-06 
-1.8801287e-01 0.0000000e+00 -7.9439187e-06 
-2.0640674e-01 0.0000000e+00 -8.6660984e-06 
-2.2351387e-01 0.0000000e+00 -9.3882782e-06 
-2.3883866e-01 0.0000000e+00 -1.0110457e-05 
-2.5188553e-01 0.0000000e+00 -1.0832637e-05 
-2.6492327e-01 0.0000000e+00 -1.0112040e-05 
-2.8022474e-01 0.0000000e+00 -9.3914450e-06 
-2.9730037e-01 0.0000000e+00 -8.6708487e-06 
-3.1566069e-01 0.0000000e+00 -7.9502533e-06 
-3.3481613e-01 0.0000000e+00 -7.2296575e-06 
-3.5427716e-01 0.0000000e+00 -6.5090617e-06 
-3.7355429e-01 0.0000000e+00 -5.7884658e-06 
-3.9215794e-01 0.0000000e+00 -5.0678700e-06 
-4.0959862e-01 0.0000000e+00 -4.3472742e-06 
-4.2538679e-01 0.0000000e+00 -3.6266786e-06 
-4.3903291e-01 0.0000000e+00 -2.9060827e-06 
-4.5004746e-01 0.0000000e+00 -2.1854869e-06 
-4.5891437e-01 0.0000000e+00 -2.0413706e-06 
-4.6650693e-01 0.0000000e+00 -1.8972544e-06 
-4.7291985e-01 0.0000000e+00 -1.7531380e-06 
-4.7824782e-01 0.0000000e+00 -1.6090218e-06 
-4.8258546e-01 0.0000000e+00 -1.4649055e-06 
-4.8602742e-01 0.0000000e+00 -1.3207892e-06 
-4.8866841e-01 0.0000000e+00 -1.1766730e-06 
-4.9060309e-01 0.0000000e+00 -1.0325567e-06 
-4.9192607e-01 0.0000000e+00 -8.8844047e-07 
-4.9273208e-01 0.0000000e+00 -7.4432415e-07 
-4.9311575e-01 0.0000000e+00 -6.0020790e-07 
-4.9317172e-01 0.0000000e+00 -4.5609164e-07 
ADJOINT_ROTATION 3 212  float
0.0000000e+00 -1.6251549e-03 0.0000000e+00 
0.0000000e+00 -1.6162730e-03 0.0000000e+00 
0.0000000e+00 -1.5896272e-03 0.0000000e+00 
0.0000000e+00 -1.5452177e-03 0.0000000e+00 
0.0000000e+00 -1.4830444e-03 0.0000000e+00 
0.0000000e+00 -1.4031072e-03 0.0000000e+00 
0.0000000e+00 -1.3054061e-03 0.0000000e+00 
0.0000000e+00 -1.1899413e-03 0.0000000e+00 
0.0000000e+00 -1.0567127e-03 0.0000000e+00 
0.0000000e+00 -9.0572023e-04 0.0000000e+00 
0.0000000e+00 -7.3696394e-04 0.0000000e+00 
0.0000000e+00 -5.5044383e-04 0.0000000e+00 
0.0000000e+00 -3.4615994e-04 0.0000000e+00 
0.0000000e+00 -4.1512455e-04 0.0000000e+00 
0.0000000e+00 -5.9084903e-04 0.0000000e+00 
0.0000000e+00 -8.7333343e-04 0.0000000e+00 
0.0000000e+00 -1.2625777e-03 0.0000000e+00 
0.0000000e+00 -1.7585818e-03 0.0000000e+00 
0.0000000e+00 -2.3613458e-03 0.0000000e+00 
0.0000000e+00 -3.0708697e-03 0.0000000e+00 
0.0000000e+00 -3.8871535e-03 0.0000000e+00 
0.0000000e+00 -4.8101973e-03 0.0000000e+00 
0.0000000e+00 -5.8400007e-03 0.0000000e+00 
0.0000000e+00 -6.9765639e-03 0.0000000e+00 
0.0000000e+00 -8.2198875e-03 0.0000000e+00 
0.0000000e+00 -1.0769375e-02 0.0000000e+00 
0.0000000e+00 -1.2855157e-02 0.0000000e+00 
0.0000000e+00 -1.4477235e-02 0.0000000e+00 
0.0000000e+00 -1.5635610e-02 0.0000000e+00 
0.0000000e+00 -1.6330278e-02 0.0000000e+00 
0.0000000e+00 -1.6561242e-02 0.0000000e+00 
0.0000000e+00 -1.6328502e-02 0.0000000e+00 
0.0000000e+00 -1.5632059e-02 0.0000000e+00 
0.0000000e+00 -1.4471910e-02 0.0000000e+00 
0.0000000e+00 -1.2848057e-02 0.0000000e+00 
0.0000000e+00 -1.0760499e-02 0.0000000e+00 
0.0000000e+00 -8.2092369e-03 0.0000000e+00 
0.0000000e+00 -1.0899820e-02 0.0000000e+00 
0.0000000e+00 -1.5572765e-02 0.0000000e+00 
0.0000000e+00 -2.2228071e-02 0.0000000e+00 
0.0000000e+00 -3.0865740e-02 0.0000000e+00 
0.0000000e+00 -4.1485772e-02 0.0000000e+00 
0.0000000e+00 -5.4088160e-02 0.0000000e+00 
0.0000000e+00 -6.8672918e-02 0.0000000e+00 
0.0000000e+00 -8.5240029e-02 0.0000000e+00 
0.0000000e+00 -1.0378951e-01 0.0000000e+00 
0.0000000e+00 -1.2432134e-01 0.0000000e+00 
0.0000000e+00 -1.4683555e-01 0.0000000e+00 
0.0000000e+00 -1.7133211e-01 0.0000000e+00 
0.0000000e+00 -1.4693606e-01 0.0000000e+00 
0.0000000e+00 -1.2449814e-01 0.0000000e+00 
0.0000000e+00 -1.0401832e-01 0.0000000e+00 
0.0000000e+00 -8.5496619e-02 0.0000000e+00 
0.0000000e+00 -6.8933040e-02 0.0000000e+00 
0.0000000e+00 -5.4327570e-02 0.0000000e+00 
0.0000000e+00 -4.1680213e-02 0.0000000e+00 
0.0000000e+00 -3.0990975e-02 0.0000000e+00 
0.0000000e+00 -2.2259852e-02 0.0000000e+00 
0.0000000e+00 -1.5486843e-02 0.0000000e+00 
0.0000000e+00 -1.0671950e-02 0.0000000e+00 
0.0000000e+00 -7.8151710e-03 0.0000000e+00 
0.0000000e+00 -1.0229364e-02 0.0000000e+00 
0.0000000e+00 -1.2264904e-02 0.0000000e+00 
0.0000000e+00 -1.3921789e-02 0.0000000e+00 
0.0000000e+00 -1.5200021e-02 0.0000000e+00 
0.0000000e+00 -1.6099598e-02 0.0000000e+00 
0.0000000e+00 -1.6620521e-02 0.0000000e+00 
0.0000000e+00 -1.6762789e-02 0.0000000e+00 
0.0000000e+00 -1.6526405e-02 0.0000000e+00 
0.0000000e+00 -1.5911367e-02 0.0000000e+00 
0.0000000e+00 -1.4917673e-02 0.0000000e+00 
0.0000000e+00 -1.3545326e-02 0.0000000e+00 
0.0000000e+00 -1.1794325e-02 0.0000000e+00 
0.0000000e+00 6.1365106e-05 0.0000000e+00 
0.0000000e+00 -5.4505239e-03 0.0000000e+00 
0.0000000e+00 -1.9379202e-04 0.0000000e+00 
0.0000000e+00 -2.7066147e-01 0.0000000e+00 
0.0000000e+00 1.8983340e-04 0.0000000e+00 
0.0000000e+00 -8.1530316e-03 0.0000000e+00 
0.0000000e+00 3.6893823e-04 0.0000000e+00 
0.0000000e+00 -3.0809785e-03 0.0000000e+00 
0.0000000e+00 5.9224763e-03 0.0000000e+00 
0.0000000e+00 -3.6519822e-01 0.0000000e+00 
0.0000000e+00 6.2798792e-03 0.0000000e+00 
0.0000000e+00 -4.9904669e-03 0.0000000e+00 
0.0000000e+00 5.7655940e-04 0.0000000e+00 
0.0000000e+00 -1.1112507e-03 0.0000000e+00 
0.0000000e+00 1.0139568e-02 0.0000000e+00 
0.0000000e+00 -4.5494232e-01 0.0000000e+00 
0.0000000e+00 1.0454967e-02 0.0000000e+00 
0.0000000e+00 -2.3066294e-03 0.0000000e+00 
0.0000000e+00 6.8422873e-04 0.0000000e+00 
0.0000000e+00 4.5865946e-04 0.0000000e+00 
0.0000000e+00 1.2457483e-02 0.0000000e+00 
0.0000000e+00 -5.3989381e-01 0.0000000e+00 
0.0000000e+00 1.2715096e-02 0.0000000e+00 
0.0000000e+00 -1.0151944e-04 0.0000000e+00 
0.0000000e+00 6.9194607e-04 0.0000000e+00 
0.0000000e+00 1.6287519e-03 0.0000000e+00 
0.0000000e+00 1.2876221e-02 0.0000000e+00 
0.0000000e+00 3.7994736e-01 0.0000000e+00 
0.0000000e+00 1.3060266e-02 0.0000000e+00 
0.0000000e+00 1.6248629e-03 0.0000000e+00 
0.0000000e+00 5.9971149e-04 0.0000000e+00 
0.0000000e+00 2.3990266e-03 0.0000000e+00 
0.0000000e+00 1.1395782e-02 0.0000000e+00 
0.0000000e+00 3.0458114e-01 0.0000000e+00 
0.0000000e+00 1.1490479e-02 0.0000000e+00 
0.0000000e+00 2.8725176e-03 0.0000000e+00 
0.0000000e+00 4.0752505e-04 0.0000000e+00 
0.0000000e+00 2.7694837e-03 0.0000000e+00 
0.0000000e+00 8.0161672e-03 0.0000000e+00 
0.0000000e+00 2.3400757e-01 0.0000000e+00 
0.0000000e+00 8.0057327e-03 0.0000000e+00 
0.0000000e+00 3.6414447e-03 0.0000000e+00 
0.0000000e+00 1.1538665e-04 0.0000000e+00 
0.0000000e+00 2.7401228e-03 0.0000000e+00 
0.0000000e+00 2.7373752e-03 0.0000000e+00 
0.0000000e+00 1.6822663e-01 0.0000000e+00 
0.0000000e+00 2.6060282e-03 0.0000000e+00 
0.0000000e+00 3.9316444e-03 0.0000000e+00 
0.0000000e+00 -2.7670368e-04 0.0000000e+00 
0.0000000e+00 2.3109445e-03 0.0000000e+00 
0.0000000e+00 -4.4405935e-03 0.0000000e+00 
0.0000000e+00 1.0723832e-01 0.0000000e+00 
0.0000000e+00 -4.7086347e-03 0.0000000e+00 
0.0000000e+00 3.7431160e-03 0.0000000e+00 
0.0000000e+00 -7.6874590e-04 0.0000000e+00 
0.0000000e+00 1.4819484e-03 0.0000000e+00 
0.0000000e+00 -1.3517739e-02 0.0000000e+00 
0.0000000e+00 5.1042635e-02 0.0000000e+00 
0.0000000e+00 -1.3938256e-02 0.0000000e+00 
0.0000000e+00 3.0758604e-03 0.0000000e+00 
0.0000000e+00 -1.3607400e-03 0.0000000e+00 
0.0000000e+00 2.5313461e-04 0.0000000e+00 
0.0000000e+00 -2.4494061e-02 0.0000000e+00 
0.0000000e+00 -3.6041322e-04 0.0000000e+00 
0.0000000e+00 -2.5082836e-02 0.0000000e+00 
0.0000000e+00 1.9298772e-03 0.0000000e+00 
0.0000000e+00 -7.7369116e-04 0.0000000e+00 
0.0000000e+00 -7.8257307e-04 0.0000000e+00 
0.0000000e+00 -8.0921879e-04 0.0000000e+00 
0.0000000e+00 -8.5362833e-04 0.0000000e+00 
0.0000000e+00 -9.1580168e-04 0.0000000e+00 
0.0000000e+00 -9.9573890e-04 0.0000000e+00 
0.0000000e+00 -1.0934399e-03 0.0000000e+00 
0.0000000e+00 -1.2089047e-03 0.0000000e+00 
0.0000000e+00 -1.3421334e-03 0.0000000e+00 
0.0000000e+00 -1.4931258e-03 0.0000000e+00 
0.0000000e+00 -1.6618822e-03 0.0000000e+00 
0.0000000e+00 -1.8484022e-03 0.0000000e+00 
0.0000000e+00 -2.0526862e-03 0.0000000e+00 
0.0000000e+00 -2.5834329e-03 0.0000000e+00 
0.0000000e+00 -3.0074201e-03 0.0000000e+00 
0.0000000e+00 -3.3246472e-03 0.0000000e+00 
0.0000000e+00 -3.5351145e-03 0.0000000e+00 
0.0000000e+00 -3.6388219e-03 0.0000000e+00 
0.0000000e+00 -3.6357692e-03 0.0000000e+00 
0.0000000e+00 -3.5259570e-03 0.0000000e+00 
0.0000000e+00 -3.3093847e-03 0.0000000e+00 
0.0000000e+00 -2.9860525e-03 0.0000000e+00 
0.0000000e+00 -2.5559606e-03 0.0000000e+00 
0.0000000e+00 -2.0191087e-03 0.0000000e+00 
0.0000000e+00 -1.3754969e-03 0.0000000e+00 
0.0000000e+00 -1.8246276e-03 0.0000000e+00 
0.0000000e+00 -2.7374628e-03 0.0000000e+00 
0.0000000e+00 -4.1140025e-03 0.0000000e+00 
0.0000000e+00 -5.9542465e-03 0.0000000e+00 
0.0000000e+00 -8.2581947e-03 0.0000000e+00 
0.0000000e+00 -1.1025848e-02 0.0000000e+00 
0.0000000e+00 -1.4257206e-02 0.0000000e+00 
0.0000000e+00 -1.7952267e-02 0.0000000e+00 
0.0000000e+00 -2.2111034e-02 0.0000000e+00 
0.0000000e+00 -2.6733505e-02 0.0000000e+00 
0.0000000e+00 -3.1819679e-02 0.0000000e+00 
0.0000000e+00 -3.7369560e-02 0.0000000e+00 
0.0000000e+00 -4.9072657e-02 0.0000000e+00 
0.0000000e+00 -5.8793388e-02 0.0000000e+00 
0.0000000e+00 -6.6531762e-02 0.0000000e+00 
0.0000000e+00 -7.2287768e-02 0.0000000e+00 
0.0000000e+00 -7.6061420e-02 0.0000000e+00 
0.0000000e+00 -7.7852704e-02 0.0000000e+00 
0.0000000e+00 -7.7661626e-02 0.0000000e+00 
0.0000000e+00 -7.5488195e-02 0.0000000e+00 
0.0000000e+00 -7.1332395e-02 0.0000000e+00 
0.0000000e+00 -6.5194234e-02 0.0000000e+00 
0.0000000e+00 -5.7073712e-02 0.0000000e+00 
0.0000000e+00 -4.6970829e-02 0.0000000e+00 
0.0000000e+00 -5.7004757e-02 0.0000000e+00 
0.0000000e+00 -6.5080568e-02 0.0000000e+00 
0.0000000e+00 -7.1198270e-02 0.0000000e+00 
0.0000000e+00 -7.5357847e-02 0.0000000e+00 
0.0000000e+00 -7.7559322e-02 0.0000000e+00 
0.0000000e+00 -7.7802673e-02 0.0000000e+00 
0.0000000e+00 -7.6087907e-02 0.0000000e+00 
0.0000000e+00 -7.2415031e-02 0.0000000e+00 
0.0000000e+00 -6.6784039e-02 0.0000000e+00 
0.0000000e+00 -5.9194934e-02 0.0000000e+00 
0.0000000e+00 -4.9647711e-02 0.0000000e+00 
0.0000000e+00 -3.8142372e-02 0.0000000e+00 
0.0000000e+00 -3.2855816e-02 0.0000000e+00 
0.0000000e+00 -2.7947910e-02 0.0000000e+00 