# vtk DataFile Version 4.0
vtk output
ASCII
DATASET UNSTRUCTURED_GRID
POINTS 212 float
0.0000000e+00 0.0000000e+00 0.0000000e+00 
0.0000000e+00 0.0000000e+00 2.5000000e-01 
0.0000000e+00 0.0000000e+00 5.0000000e-01 
0.0000000e+00 0.0000000e+00 7.5000000e-01 
0.0000000e+00 0.0000000e+00 1.0000000e+00 
0.0000000e+00 0.0000000e+00 1.2500000e+00 
0.0000000e+00 0.0000000e+00 1.5000000e+00 
0.0000000e+00 0.0000000e+00 1.7500000e+00 
0.0000000e+00 0.0000000e+00 2.0000000e+00 
0.0000000e+00 0.0000000e+00 2.2500000e+00 
0.0000000e+00 0.0000000e+00 2.5000000e+00 
0.0000000e+00 0.0000000e+00 2.7500000e+00 
0.0000000e+00 0.0000000e+00 3.0000000e+00 
0.0000000e+00 0.0000000e+00 3.2500000e+00 
0.0000000e+00 0.0000000e+00 3.5000000e+00 
0.0000000e+00 0.0000000e+00 3.7500000e+00 
0.0000000e+00 0.0000000e+00 4.0000000e+00 
0.0000000e+00 0.0000000e+00 4.2500000e+00 
0.0000000e+00 0.0000000e+00 4.5000000e+00 
0.0000000e+00 0.0000000e+00 4.7500000e+00 
0.0000000e+00 0.0000000e+00 5.0000000e+00 
0.0000000e+00 0.0000000e+00 5.2500000e+00 
0.0000000e+00 0.0000000e+00 5.5000000e+00 
0.0000000e+00 0.0000000e+00 5.7500000e+00 
0.0000000e+00 0.0000000e+00 6.0000000e+00 
0.0000000e+00 0.0000000e+00 6.2500000e+00 
0.0000000e+00 0.0000000e+00 6.5000000e+00 
0.0000000e+00 0.0000000e+00 6.7500000e+00 
0.0000000e+00 0.0000000e+00 7.0000000e+00 
0.0000000e+00 0.0000000e+00 7.2500000e+00 
0.0000000e+00 0.0000000e+00 7.5000000e+00 
0.0000000e+00 0.0000000e+00 7.7500000e+00 
0.0000000e+00 0.0000000e+00 8.0000000e+00 
0.0000000e+00 0.0000000e+00 8.2500000e+00 
0.0000000e+00 0.0000000e+00 8.5000000e+00 
0.0000000e+00 0.0000000e+00 8.7500000e+00 
0.0000000e+00 0.0000000e+00 9.0000000e+00 
0.0000000e+00 0.0000000e+00 9.2500000e+00 
0.0000000e+00 0.0000000e+00 9.5000000e+00 
0.0000000e+00 0.0000000e+00 9.7500000e+00 
0.0000000e+00 0.0000000e+00 1.0000000e+01 
0.0000000e+00 0.0000000e+00 1.0250000e+01 
0.0000000e+00 0.0000000e+00 1.0500000e+01 
0.0000000e+00 0.0000000e+00 1.0750000e+01 
0.0000000e+00 0.0000000e+00 1.1000000e+01 
0.0000000e+00 0.0000000e+00 1.1250000e+01 
0.0000000e+00 0.0000000e+00 1.1500000e+01 
0.0000000e+00 0.0000000e+00 1.1750000e+01 
0.0000000e+00 0.0000000e+00 1.2000000e+01 
0.0000000e+00 0.0000000e+00 1.2250000e+01 
0.0000000e+00 0.0000000e+00 1.2500000e+01 
0.0000000e+00 0.0000000e+00 1.2750000e+01 
0.0000000e+00 0.0000000e+00 1.3000000e+01 
0.0000000e+00 0.0000000e+00 1.3250000e+01 
0.0000000e+00 0.0000000e+00 1.3500000e+01 
0.0000000e+00 0.0000000e+00 1.3750000e+01 
0.0000000e+00 0.0000000e+00 1.4000000e+01 
0.0000000e+00 0.0000000e+00 1.4250000e+01 
0.0000000e+00 0.0000000e+00 1.4500000e+01 
0.0000000e+00 0.0000000e+00 1.4750000e+01 
0.0000000e+00 0.0000000e+00 1.5000000e+01 
0.0000000e+00 0.0000000e+00 1.5250000e+01 
0.0000000e+00 0.0000000e+00 1.5500000e+01 
0.0000000e+00 0.0000000e+00 1.5750000e+01 
0.0000000e+00 0.0000000e+00 1.6000000e+01 
0.0000000e+00 0.0000000e+00 1.6250000e+01 
0.0000000e+00 0.0000000e+00 1.6500000e+01 
0.0000000e+00 0.0000000e+00 1.6750000e+01 
0.0000000e+00 0.0000000e+00 1.7000000e+01 
0.0000000e+00 0.0000000e+00 1.7250000e+01 
0.0000000e+00 0.0000000e+00 1.7500000e+01 
0.0000000e+00 0.0000000e+00 1.7750000e+01 
0.0000000e+00 0.0000000e+00 1.8000000e+01 
6.0000000e+00 0.0000000e+00 0.0000000e+00 
6.0000000e+00 0.0000000e+00 2.5000000e-01 
6.0000000e+00 0.0000000e+00 5.0000000e-01 
6.0000000e+00 0.0000000e+00 7.5000000e-01 
6.0000000e+00 0.0000000e+00 1.0000000e+00 
6.0000000e+00 0.0000000e+00 1.2500000e+00 
6.0000000e+00 0.0000000e+00 1.5000000e+00 
6.0000000e+00 0.0000000e+00 1.7500000e+00 
6.0000000e+00 0.0000000e+00 2.0000000e+00 
6.0000000e+00 0.0000000e+00 2.2500000e+00 
6.0000000e+00 0.0000000e+00 2.5000000e+00 
6.0000000e+00 0.0000000e+00 2.7500000e+00 
6.0000000e+00 0.0000000e+00 3.0000000e+00 
6.0000000e+00 0.0000000e+00 3.2500000e+00 
6.0000000e+00 0.0000000e+00 3.5000000e+00 
6.0000000e+00 0.0000000e+00 3.7500000e+00 
6.0000000e+00 0.0000000e+00 4.0000000e+00 
6.0000000e+00 0.0000000e+00 4.2500000e+00 
6.0000000e+00 0.0000000e+00 4.5000000e+00 
6.0000000e+00 0.0000000e+00 4.7500000e+00 
6.0000000e+00 0.0000000e+00 5.0000000e+00 
6.0000000e+00 0.0000000e+00 5.2500000e+00 
6.0000000e+00 0.0000000e+00 5.5000000e+00 
6.0000000e+00 0.0000000e+00 5.7500000e+00 
6.0000000e+00 0.0000000e+00 6.0000000e+00 
6.0000000e+00 0.0000000e+00 6.2500000e+00 
6.0000000e+00 0.0000000e+00 6.5000000e+00 
6.0000000e+00 0.0000000e+00 6.7500000e+00 
6.0000000e+00 0.0000000e+00 7.0000000e+00 
6.0000000e+00 0.0000000e+00 7.2500000e+00 
6.0000000e+00 0.0000000e+00 7.5000000e+00 
6.0000000e+00 0.0000000e+00 7.7500000e+00 
6.0000000e+00 0.0000000e+00 8.0000000e+00 
6.0000000e+00 0.0000000e+00 8.2500000e+00 
6.0000000e+00 0.0000000e+00 8.5000000e+00 
6.0000000e+00 0.0000000e+00 8.7500000e+00 
6.0000000e+00 0.0000000e+00 9.0000000e+00 
6.0000000e+00 0.0000000e+00 9.2500000e+00 
6.0000000e+00 0.0000000e+00 9.5000000e+00 
6.0000000e+00 0.0000000e+00 9.7500000e+00 
6.0000000e+00 0.0000000e+00 1.0000000e+01 
6.0000000e+00 0.0000000e+00 1.0250000e+01 
6.0000000e+00 0.0000000e+00 1.0500000e+01 
6.0000000e+00 0.0000000e+00 1.0750000e+01 
6.0000000e+00 0.0000000e+00 1.1000000e+01 
6.0000000e+00 0.0000000e+00 1.1250000e+01 
6.0000000e+00 0.0000000e+00 1.1500000e+01 
6.0000000e+00 0.0000000e+00 1.1750000e+01 
6.0000000e+00 0.0000000e+00 1.2000000e+01 
6.0000000e+00 0.0000000e+00 1.2250000e+01 
6.0000000e+00 0.0000000e+00 1.2500000e+01 
6.0000000e+00 0.0000000e+00 1.2750000e+01 
6.0000000e+00 0.0000000e+00 1.3000000e+01 
6.0000000e+00 0.0000000e+00 1.3250000e+01 
6.0000000e+00 0.0000000e+00 1.3500000e+01 
6.0000000e+00 0.0000000e+00 1.3750000e+01 
6.0000000e+00 0.0000000e+00 1.4000000e+01 
6.0000000e+00 0.0000000e+00 1.4250000e+01 
6.0000000e+00 0.0000000e+00 1.4500000e+01 
6.0000000e+00 0.0000000e+00 1.4750000e+01 
6.0000000e+00 0.0000000e+00 1.5000000e+01 
6.0000000e+00 0.0000000e+00 1.5250000e+01 
6.0000000e+00 0.0000000e+00 1.5500000e+01 
6.0000000e+00 0.0000000e+00 1.5750000e+01 
6.0000000e+00 0.0000000e+00 1.6000000e+01 
6.0000000e+00 0.0000000e+00 1.6250000e+01 
6.0000000e+00 0.0000000e+00 1.6500000e+01 
6.0000000e+00 0.0000000e+00 1.6750000e+01 
6.0000000e+00 0.0000000e+00 1.7000000e+01 
6.0000000e+00 0.0000000e+00 1.7250000e+01 
6.0000000e+00 0.0000000e+00 1.7500000e+01 
6.0000000e+00 0.0000000e+00 1.7750000e+01 
6.0000000e+00 0.0000000e+00 1.8000000e+01 
5.0000000e-01 0.0000000e+00 3.0000000e+00 
1.0000000e+00 0.0000000e+00 3.0000000e+00 
1.5000000e+00 0.0000000e+00 3.0000000e+00 
2.0000000e+00 0.0000000e+00 3.0000000e+00 
2.5000000e+00 0.0000000e+00 3.0000000e+00 
3.0000000e+00 0.0000000e+00 3.0000000e+00 
3.5000000e+00 0.0000000e+00 3.0000000e+00 
4.0000000e+00 0.0000000e+00 3.0000000e+00 
4.5000000e+00 0.0000000e+00 3.0000000e+00 
5.0000000e+00 0.0000000e+00 3.0000000e+00 
5.5000000e+00 0.0000000e+00 3.0000000e+00 
5.0000000e-01 0.0000000e+00 6.0000000e+00 
1.0000000e+00 0.0000000e+00 6.0000000e+00 
1.5000000e+00 0.0000000e+00 6.0000000e+00 
2.0000000e+00 0.0000000e+00 6.0000000e+00 
2.5000000e+00 0.0000000e+00 6.0000000e+00 
3.0000000e+00 0.0000000e+00 6.0000000e+00 
3.5000000e+00 0.0000000e+00 6.0000000e+00 
4.0000000e+00 0.0000000e+00 6.0000000e+00 
4.5000000e+00 0.0000000e+00 6.0000000e+00 
5.0000000e+00 0.0000000e+00 6.0000000e+00 
5.5000000e+00 0.0000000e+00 6.0000000e+00 
5.0000000e-01 0.0000000e+00 9.0000000e+00 
1.0000000e+00 0.0000000e+00 9.0000000e+00 
1.5000000e+00 0.0000000e+00 9.0000000e+00 
2.0000000e+00 0.0000000e+00 9.0000000e+00 
2.5000000e+00 0.0000000e+00 9.0000000e+00 
3.0000000e+00 0.0000000e+00 9.0000000e+00 
3.5000000e+00 0.0000000e+00 9.0000000e+00 
4.0000000e+00 0.0000000e+00 9.0000000e+00 
4.5000000e+00 0.0000000e+00 9.0000000e+00 
5.0000000e+00 0.0000000e+00 9.0000000e+00 
5.5000000e+00 0.0000000e+00 9.0000000e+00 
5.0000000e-01 0.0000000e+00 1.2000000e+01 
1.0000000e+00 0.0000000e+00 1.2000000e+01 
1.5000000e+00 0.0000000e+00 1.2000000e+01 
2.0000000e+00 0.0000000e+00 1.2000000e+01 
2.5000000e+00 0.0000000e+00 1.2000000e+01 
3.0000000e+00 0.0000000e+00 1.2000000e+01 
3.5000000e+00 0.0000000e+00 1.2000000e+01 
4.0000000e+00 0.0000000e+00 1.2000000e+01 
4.5000000e+00 0.0000000e+00 1.2000000e+01 
5.0000000e+00 0.0000000e+00 1.2000000e+01 
5.5000000e+00 0.0000000e+00 1.2000000e+01 
5.0000000e-01 0.0000000e+00 1.5000000e+01 
1.0000000e+00 0.0000000e+00 1.5000000e+01 
1.5000000e+00 0.0000000e+00 1.5000000e+01 
2.0000000e+00 0.0000000e+00 1.5000000e+01 
2.5000000e+00 0.0000000e+00 1.5000000e+01 
3.0000000e+00 0.0000000e+00 1.5000000e+01 
3.5000000e+00 0.0000000e+00 1.5000000e+01 
4.0000000e+00 0.0000000e+00 1.5000000e+01 
4.5000000e+00 0.0000000e+00 1.5000000e+01 
5.0000000e+00 0.0000000e+00 1.5000000e+01 
5.5000000e+00 0.0000000e+00 1.5000000e+01 
5.0000000e-01 0.0000000e+00 1.8000000e+01 
1.0000000e+00 0.0000000e+00 1.8000000e+01 
1.5000000e+00 0.0000000e+00 1.8000000e+01 
2.0000000e+00 0.0000000e+00 1.8000000e+01 
2.5000000e+00 0.0000000e+00 1.8000000e+01 
3.0000000e+00 0.0000000e+00 1.8000000e+01 
3.5000000e+00 0.0000000e+00 1.8000000e+01 
4.0000000e+00 0.0000000e+00 1.8000000e+01 
4.5000000e+00 0.0000000e+00 1.8000000e+01 
5.0000000e+00 0.0000000e+00 1.8000000e+01 
5.5000000e+00 0.0000000e+00 1.8000000e+01 

CELLS 216 648
2 0 1
2 1 2
2 2 3
2 3 4
2 4 5
2 5 6
2 6 7
2 7 8
2 8 9
2 9 10
2 10 11
2 11 12
2 12 13
2 13 14
2 14 15
2 15 16
2 16 17
2 17 18
2 18 19
2 19 20
2 20 21
2 21 22
2 22 23
2 23 24
2 24 25
2 25 26
2 26 27
2 27 28
2 28 29
2 29 30
2 30 31
2 31 32
2 32 33
2 33 34
2 34 35
2 35 36
2 36 37
2 37 38
2 38 39
2 39 40
2 40 41
2 41 42
2 42 43
2 43 44
2 44 45
2 45 46
2 46 47
2 47 48
2 48 49
2 49 50
2 50 51
2 51 52
2 52 53
2 53 54
2 54 55
2 55 56
2 56 57
2 57 58
2 58 59
2 59 60
2 60 61
2 61 62
2 62 63
2 63 64
2 64 65
2 65 66
2 66 67
2 67 68
2 68 69
2 69 70
2 70 71
2 71 72
2 73 74
2 74 75
2 75 76
2 76 77
2 77 78
2 78 79
2 79 80
2 80 81
2 81 82
2 82 83
2 83 84
2 84 85
2 85 86
2 86 87
2 87 88
2 88 89
2 89 90
2 90 91
2 91 92
2 92 93
2 93 94
2 94 95
2 95 96
2 96 97
2 97 98
2 98 99
2 99 100
2 100 101
2 101 102
2 102 103
2 103 104
2 104 105
2 105 106
2 106 107
2 107 108
2 108 109
2 109 110
2 110 111
2 111 112
2 112 113
2 113 114
2 114 115
2 115 116
2 116 117
2 117 118
2 118 119
2 119 120
2 120 121
2 121 122
2 122 123
2 123 124
2 124 125
2 125 126
2 126 127
2 127 128
2 128 129
2 129 130
2 130 131
2 131 132
2 132 133
2 133 134
2 134 135
2 135 136
2 136 137
2 137 138
2 138 139
2 139 140
2 140 141
2 141 142
2 142 143
2 143 144
2 144 145
2 12 146
2 146 147
2 147 148
2 148 149
2 149 150
2 150 151
2 151 152
2 152 153
2 153 154
2 154 155
2 155 156
2 156 85
2 24 157
2 157 158
2 158 159
2 159 160
2 160 161
2 161 162
2 162 163
2 163 164
2 164 165
2 165 166
2 166 167
2 167 97
2 36 168
2 168 169
2 169 170
2 170 171
2 171 172
2 172 173
2 173 174
2 174 175
2 175 176
2 176 177
2 177 178
2 178 109
2 48 179
2 179 180
2 180 181
2 181 182
2 182 183
2 183 184
2 184 185
2 185 186
2 186 187
2 187 188
2 188 189
2 189 121
2 60 190
2 190 191
2 191 192
2 192 193
2 193 194
2 194 195
2 195 196
2 196 197
2 197 198
2 198 199
2 199 200
2 200 133
2 72 201
2 201 202
2 202 203
2 203 204
2 204 205
2 205 206
2 206 207
2 207 208
2 208 209
2 209 210
2 210 211
2 211 145

CELL_TYPES 216
3
3
3
3
3
3
3
3
3
3
3
3
3
3
3
3
3
3
3
3
3
3
3
3
3
3
3
3
3
3
3
3
3
3
3
3
3
3
3
3
3
3
3
3
3
3
3
3
3
3
3
3
3
3
3
3
3
3
3
3
3
3
3
3
3
3
3
3
3
3
3
3
3
3
3
3
3
3
3
3
3
3
3
3
3
3
3
3
3
3
3
3
3
3
3
3
3
3
3
3
3
3
3
3
3
3
3
3
3
3
3
3
3
3
3
3
3
3
3
3
3
3
3
3
3
3
3
3
3
3
3
3
3
3
3
3
3
3
3
3
3
3
3
3
3
3
3
3
3
3
3
3
3
3
3
3
3
3
3
3
3
3
3
3
3
3
3
3
3
3
3
3
3
3
3
3
3
3
3
3
3
3
3
3
3
3
3
3
3
3
3
3
3
3
3
3
3
3
3
3
3
3
3
3
3
3
3
3
3
3
3
3
3
3
3
3
POINT_DATA 212
FIELD FieldData 7
DISPLACEMENT 3 212  float
0.0000000e+00 0.0000000e+00 0.0000000e+00 
-7.0087466e-05 0.0000000e+00 -2.8644476e-07 
-1.3723466e-04 0.0000000e+00 -5.7288952e-07 
-1.9850129e-04 0.0000000e+00 -8.5933431e-07 
-2.5094708e-04 0.0000000e+00 -1.1457790e-06 
-2.9163179e-04 0.0000000e+00 -1.4322238e-06 
-3.1761508e-04 0.0000000e+00 -1.7186686e-06 
-3.2595670e-04 0.0000000e+00 -2.0051134e-06 
-3.1371636e-04 0.0000000e+00 -2.2915581e-06 
-2.7795380e-04 0.0000000e+00 -2.5780030e-06 
-2.1572875e-04 0.0000000e+00 -2.8644477e-06 
-1.2410090e-04 0.0000000e+00 -3.1508926e-06 
-1.2999909e-07 0.0000000e+00 -3.4373372e-06 
1.1142983e-04 0.0000000e+00 -3.6760412e-06 
1.7033827e-04 0.0000000e+00 -3.9147453e-06 
1.8630642e-04 0.0000000e+00 -4.1534490e-06 
1.6904534e-04 0.0000000e+00 -4.3921532e-06 
1.2826607e-04 0.0000000e+00 -4.6308569e-06 
7.3679679e-05 0.0000000e+00 -4.8695611e-06 
1.4997251e-05 0.0000000e+00 -5.1082652e-06 
-3.8070157e-05 0.0000000e+00 -5.3469689e-06 
-7.5811484e-05 0.0000000e+00 -5.5856731e-06 
-8.8515662e-05 0.0000000e+00 -5.8243768e-06 
-6.6471628e-05 0.0000000e+00 -6.0630809e-06 
3.1688280e-08 0.0000000e+00 -6.3017851e-06 
6.9559363e-05 0.0000000e+00 -6.4927481e-06 
9.9576187e-05 0.0000000e+00 -6.6837115e-06 
9.8142802e-05 0.0000000e+00 -6.8746745e-06 
7.3319839e-05 0.0000000e+00 -7.0656374e-06 
3.3167929e-05 0.0000000e+00 -7.2566008e-06 
-1.4252291e-05 0.0000000e+00 -7.4475638e-06 
-6.0880189e-05 0.0000000e+00 -7.6385268e-06 
-9.8655131e-05 0.0000000e+00 -7.8294906e-06 
-1.1951649e-04 0.0000000e+00 -8.0204536e-06 
-1.1540361e-04 0.0000000e+00 -8.2114166e-06 
-7.8255885e-05 0.0000000e+00 -8.4023795e-06 
-1.2664292e-08 0.0000000e+00 -8.5933434e-06 
7.7021861e-05 0.0000000e+00 -8.7365652e-06 
1.1098324e-04 0.0000000e+00 -8.8797879e-06 
1.1059172e-04 0.0000000e+00 -9.0230105e-06 
8.4567517e-05 0.0000000e+00 -9.1662323e-06 
4.1630861e-05 0.0000000e+00 -9.3094550e-06 
-9.4980023e-06 0.0000000e+00 -9.4526777e-06 
-6.0098850e-05 0.0000000e+00 -9.5958994e-06 
-1.0145144e-04 0.0000000e+00 -9.7391221e-06 
-1.2483555e-04 0.0000000e+00 -9.8823448e-06 
-1.2153095e-04 0.0000000e+00 -1.0025567e-05 
-8.2817394e-05 0.0000000e+00 -1.0168789e-05 
2.5342251e-08 0.0000000e+00 -1.0312012e-05 
8.5286767e-05 0.0000000e+00 -1.0407493e-05 
1.3037644e-04 0.0000000e+00 -1.0502975e-05 
1.4269471e-04 0.0000000e+00 -1.0598456e-05 
1.2964186e-04 0.0000000e+00 -1.0693938e-05 
9.8618257e-05 0.0000000e+00 -1.0789419e-05 
5.7024201e-05 0.0000000e+00 -1.0884901e-05 
1.2260017e-05 0.0000000e+00 -1.0980383e-05 
-2.8273969e-05 0.0000000e+00 -1.1075865e-05 
-5.7177433e-05 0.0000000e+00 -1.1171346e-05 
-6.7050045e-05 0.0000000e+00 -1.1266828e-05 
-5.0491493e-05 0.0000000e+00 -1.1362309e-05 
-1.0144571e-07 0.0000000e+00 -1.1457791e-05 
4.0605220e-05 0.0000000e+00 -1.1505532e-05 
3.1636053e-05 0.0000000e+00 -1.1553272e-05 
-1.4324993e-05 0.0000000e+00 -1.1601013e-05 
-8.4593965e-05 0.0000000e+00 -1.1648754e-05 
-1.6648691e-04 0.0000000e+00 -1.1696495e-05 
-2.4731987e-04 0.0000000e+00 -1.1744236e-05 
-3.1440888e-04 0.0000000e+00 -1.1791976e-05 
-3.5507002e-04 0.0000000e+00 -1.1839717e-05 
-3.5661928e-04 0.0000000e+00 -1.1887458e-05 
-3.0637276e-04 0.0000000e+00 -1.1935199e-05 
-1.9164647e-04 0.0000000e+00 -1.1982939e-05 
2.4353193e-07 0.0000000e+00 -1.2030680e-05 
0.0000000e+00 0.0000000e+00 0.0000000e+00 
7.0087466e-05 0.0000000e+00 -2.8644476e-07 
1.3723466e-04 0.0000000e+00 -5.7288952e-07 
1.9850129e-04 0.0000000e+00 -8.5933431e-07 
2.5094708e-04 0.0000000e+00 -1.1457790e-06 
2.9163179e-04 0.0000000e+00 -1.4322238e-06 
3.1761508e-04 0.0000000e+00 -1.7186686e-06 
3.2595670e-04 0.0000000e+00 -2.0051134e-06 
3.1371636e-04 0.0000000e+00 -2.2915581e-06 
2.7795380e-04 0.0000000e+00 -2.5780030e-06 
2.1572875e-04 0.0000000e+00 -2.8644477e-06 
1.2410090e-04 0.0000000e+00 -3.1508926e-06 
1.2999911e-07 0.0000000e+00 -3.4373372e-06 
-1.1142983e-04 0.0000000e+00 -3.6760412e-06 
-1.7033827e-04 0.0000000e+00 -3.9147453e-06 
-1.8630642e-04 0.0000000e+00 -4.1534490e-06 
-1.6904534e-04 0.0000000e+00 -4.3921532e-06 
-1.2826607e-04 0.0000000e+00 -4.6308569e-06 
-7.3679679e-05 0.0000000e+00 -4.8695611e-06 
-1.4997251e-05 0.0000000e+00 -5.1082652e-06 
3.8070157e-05 0.0000000e+00 -5.3469689e-06 
7.5811484e-05 0.0000000e+00 -5.5856731e-06 
8.8515662e-05 0.0000000e+00 -5.8243768e-06 
6.6471628e-05 0.0000000e+00 -6.0630809e-06 
-3.1688277e-08 0.0000000e+00 -6.3017851e-06 
-6.9559363e-05 0.0000000e+00 -6.4927481e-06 
-9.9576187e-05 0.0000000e+00 -6.6837115e-06 
-9.8142802e-05 0.0000000e+00 -6.8746745e-06 
-7.3319839e-05 0.0000000e+00 -7.0656374e-06 
-3.3167929e-05 0.0000000e+00 -7.2566008e-06 
1.4252291e-05 0.0000000e+00 -7.4475638e-06 
6.0880189e-05 0.0000000e+00 -7.6385268e-06 
9.8655131e-05 0.0000000e+00 -7.8294906e-06 
1.1951649e-04 0.0000000e+00 -8.0204536e-06 
1.1540361e-04 0.0000000e+00 -8.2114166e-06 
7.8255885e-05 0.0000000e+00 -8.4023795e-06 
1.2664300e-08 0.0000000e+00 -8.5933434e-06 
-7.7021861e-05 0.0000000e+00 -8.7365652e-06 
-1.1098324e-04 0.0000000e+00 -8.8797879e-06 
-1.1059172e-04 0.0000000e+00 -9.0230105e-06 
-8.4567517e-05 0.0000000e+00 -9.1662323e-06 
-4.1630861e-05 0.0000000e+00 -9.3094550e-06 
9.4980023e-06 0.0000000e+00 -9.4526777e-06 
6.0098850e-05 0.0000000e+00 -9.5958994e-06 
1.0145144e-04 0.0000000e+00 -9.7391221e-06 
1.2483555e-04 0.0000000e+00 -9.8823448e-06 
1.2153095e-04 0.0000000e+00 -1.0025567e-05 
8.2817394e-05 0.0000000e+00 -1.0168789e-05 
-2.5342242e-08 0.0000000e+00 -1.0312012e-05 
-8.5286767e-05 0.0000000e+00 -1.0407493e-05 
-1.3037644e-04 0.0000000e+00 -1.0502975e-05 
-1.4269471e-04 0.0000000e+00 -1.0598456e-05 
-1.2964186e-04 0.0000000e+00 -1.0693938e-05 
-9.8618257e-05 0.0000000e+00 -1.0789419e-05 
-5.7024201e-05 0.0000000e+00 -1.0884901e-05 
-1.2260017e-05 0.0000000e+00 -1.0980383e-05 
2.8273969e-05 0.0000000e+00 -1.1075865e-05 
5.7177433e-05 0.0000000e+00 -1.1171346e-05 
6.7050045e-05 0.0000000e+00 -1.1266828e-05 
5.0491493e-05 0.0000000e+00 -1.1362309e-05 
1.0144572e-07 0.0000000e+00 -1.1457791e-05 
-4.0605220e-05 0.0000000e+00 -1.1505532e-05 
-3.1636053e-05 0.0000000e+00 -1.1553272e-05 
1.4324993e-05 0.0000000e+00 -1.1601013e-05 
8.4593965e-05 0.0000000e+00 -1.1648754e-05 
1.6648691e-04 0.0000000e+00 -1.1696495e-05 
2.4731987e-04 0.0000000e+00 -1.1744236e-05 
3.1440888e-04 0.0000000e+00 -1.1791976e-05 
3.5507002e-04 0.0000000e+00 -1.1839717e-05 
3.5661928e-04 0.0000000e+00 -1.1887458e-05 
3.0637276e-04 0.0000000e+00 -1.1935199e-05 
1.9164647e-04 0.0000000e+00 -1.1982939e-05 
-2.4353193e-07 0.0000000e+00 -1.2030680e-05 
-1.0833259e-07 0.0000000e+00 -4.4731057e-04 
-8.6666063e-08 0.0000000e+00 -1.0859072e-03 
-6.4999547e-08 0.0000000e+00 -1.7539707e-03 
-4.3333031e-08 0.0000000e+00 -2.3229681e-03 
-2.1666516e-08 0.0000000e+00 -2.7010904e-03 
1.8690832e-15 0.0000000e+00 -2.8332516e-03 
2.1666519e-08 0.0000000e+00 -2.7010904e-03 
4.3333035e-08 0.0000000e+00 -2.3229681e-03 
6.4999554e-08 0.0000000e+00 -1.7539707e-03 
8.6666070e-08 0.0000000e+00 -1.0859072e-03 
1.0833259e-07 0.0000000e+00 -4.4731057e-04 
2.6406902e-08 0.0000000e+00 -3.6006200e-04 
2.1125523e-08 0.0000000e+00 -9.2492986e-04 
1.5844142e-08 0.0000000e+00 -1.5356487e-03 
1.0562762e-08 0.0000000e+00 -2.0636858e-03 
5.2813824e-09 0.0000000e+00 -2.4172317e-03 
2.9512970e-15 0.0000000e+00 -2.5412007e-03 
-5.2813767e-09 0.0000000e+00 -2.4172317e-03 
-1.0562757e-08 0.0000000e+00 -2.0636858e-03 
-1.5844137e-08 0.0000000e+00 -1.5356487e-03 
-2.1125516e-08 0.0000000e+00 -9.2492986e-04 
-2.6406896e-08 0.0000000e+00 -3.6006200e-04 
-1.0553576e-08 0.0000000e+00 -3.7978464e-04 
-8.4428597e-09 0.0000000e+00 -9.5891429e-04 
-6.3321441e-09 0.0000000e+00 -1.5807257e-03 
-4.2214281e-09 0.0000000e+00 -2.1166860e-03 
-2.1107123e-09 0.0000000e+00 -2.4749858e-03 
3.7346530e-15 0.0000000e+00 -2.6005395e-03 
2.1107196e-09 0.0000000e+00 -2.4749858e-03 
4.2214356e-09 0.0000000e+00 -2.1166860e-03 
6.3321517e-09 0.0000000e+00 -1.5807257e-03 
8.4428677e-09 0.0000000e+00 -9.5891429e-04 
1.0553584e-08 0.0000000e+00 -3.7978464e-04 
2.1118543e-08 0.0000000e+00 -3.9311973e-04 
1.6894836e-08 0.0000000e+00 -9.8175369e-04 
1.2671128e-08 0.0000000e+00 -1.6109573e-03 
8.4474197e-09 0.0000000e+00 -2.1521978e-03 
4.2237120e-09 0.0000000e+00 -2.5136657e-03 
4.4743075e-15 0.0000000e+00 -2.6402755e-03 
-4.2237032e-09 0.0000000e+00 -2.5136657e-03 
-8.4474108e-09 0.0000000e+00 -2.1521978e-03 
-1.2671118e-08 0.0000000e+00 -1.6109573e-03 
-1.6894827e-08 0.0000000e+00 -9.8175369e-04 
-2.1118534e-08 0.0000000e+00 -3.9311973e-04 
-8.4538087e-08 0.0000000e+00 -3.2452276e-04 
-6.7630474e-08 0.0000000e+00 -8.5609447e-04 
-5.0722853e-08 0.0000000e+00 -1.4409164e-03 
-3.3815233e-08 0.0000000e+00 -1.9504555e-03 
-1.6907613e-08 0.0000000e+00 -2.2929027e-03 
5.2221902e-15 0.0000000e+00 -2.4131723e-03 
1.6907624e-08 0.0000000e+00 -2.2929027e-03 
3.3815244e-08 0.0000000e+00 -1.9504555e-03 
5.0722861e-08 0.0000000e+00 -1.4409164e-03 
6.7630481e-08 0.0000000e+00 -8.5609447e-04 
8.4538101e-08 0.0000000e+00 -3.2452276e-04 
2.0294328e-07 0.0000000e+00 -6.2746234e-04 
1.6235462e-07 0.0000000e+00 -1.4064249e-03 
1.2176596e-07 0.0000000e+00 -2.1836620e-03 
8.1177319e-08 0.0000000e+00 -2.8306406e-03 
4.0588660e-08 0.0000000e+00 -3.2555514e-03 
5.5536863e-15 0.0000000e+00 -3.4033088e-03 
-4.0588649e-08 0.0000000e+00 -3.2555514e-03 
-8.1177305e-08 0.0000000e+00 -2.8306406e-03 
-1.2176596e-07 0.0000000e+00 -2.1836620e-03 
-1.6235461e-07 0.0000000e+00 -1.4064249e-03 
-2.0294327e-07 0.0000000e+00 -6.2746234e-04 
ROTATION 3 212  float
0.0000000e+00 -2.8231007e-04 0.0000000e+00 
0.0000000e+00 -2.7642949e-04 0.0000000e+00 
0.0000000e+00 -2.5878783e-04 0.0000000e+00 
0.0000000e+00 -2.2938506e-04 0.0000000e+00 
0.0000000e+00 -1.8822115e-04 0.0000000e+00 
0.0000000e+00 -1.3529614e-04 0.0000000e+00 
0.0000000e+00 -7.0610018e-05 0.0000000e+00 
0.0000000e+00 5.8372239e-06 0.0000000e+00 
0.0000000e+00 9.4045579e-05 0.0000000e+00 
0.0000000e+00 1.9401504e-04 0.0000000e+00 
0.0000000e+00 3.0574563e-04 0.0000000e+00 
0.0000000e+00 4.2923732e-04 0.0000000e+00 
0.0000000e+00 5.6449015e-04 0.0000000e+00 
0.0000000e+00 3.3446250e-04 0.0000000e+00 
0.0000000e+00 1.4327916e-04 0.0000000e+00 
0.0000000e+00 -9.0599369e-06 0.0000000e+00 
0.0000000e+00 -1.2255477e-04 0.0000000e+00 
0.0000000e+00 -1.9720534e-04 0.0000000e+00 
0.0000000e+00 -2.3301167e-04 0.0000000e+00 
0.0000000e+00 -2.2997372e-04 0.0000000e+00 
0.0000000e+00 -1.8809151e-04 0.0000000e+00 
0.0000000e+00 -1.0736505e-04 0.0000000e+00 
0.0000000e+00 1.2205674e-05 0.0000000e+00 
0.0000000e+00 1.7062065e-04 0.0000000e+00 
0.0000000e+00 3.6787990e-04 0.0000000e+00 
0.0000000e+00 1.9371524e-04 0.0000000e+00 
0.0000000e+00 5.1793129e-05 0.0000000e+00 
0.0000000e+00 -5.7886456e-05 0.0000000e+00 
0.0000000e+00 -1.3532350e-04 0.0000000e+00 
0.0000000e+00 -1.8051802e-04 0.0000000e+00 
0.0000000e+00 -1.9347000e-04 0.0000000e+00 
0.0000000e+00 -1.7417944e-04 0.0000000e+00 
0.0000000e+00 -1.2264635e-04 0.0000000e+00 
0.0000000e+00 -3.8870719e-05 0.0000000e+00 
0.0000000e+00 7.7147444e-05 0.0000000e+00 
0.0000000e+00 2.2540815e-04 0.0000000e+00 
0.0000000e+00 4.0591139e-04 0.0000000e+00 
0.0000000e+00 2.1617833e-04 0.0000000e+00 
0.0000000e+00 6.1326224e-05 0.0000000e+00 
0.0000000e+00 -5.8644953e-05 0.0000000e+00 
0.0000000e+00 -1.4373520e-04 0.0000000e+00 
0.0000000e+00 -1.9394452e-04 0.0000000e+00 
0.0000000e+00 -2.0927291e-04 0.0000000e+00 
0.0000000e+00 -1.8972038e-04 0.0000000e+00 
0.0000000e+00 -1.3528690e-04 0.0000000e+00 
0.0000000e+00 -4.5972498e-05 0.0000000e+00 
0.0000000e+00 7.8222831e-05 0.0000000e+00 
0.0000000e+00 2.3729910e-04 0.0000000e+00 
0.0000000e+00 4.3125628e-04 0.0000000e+00 
0.0000000e+00 2.5576865e-04 0.0000000e+00 
0.0000000e+00 1.0988233e-04 0.0000000e+00 
0.0000000e+00 -6.4027045e-06 0.0000000e+00 
0.0000000e+00 -9.3086441e-05 0.0000000e+00 
0.0000000e+00 -1.5016888e-04 0.0000000e+00 
0.0000000e+00 -1.7765003e-04 0.0000000e+00 
0.0000000e+00 -1.7552989e-04 0.0000000e+00 
0.0000000e+00 -1.4380844e-04 0.0000000e+00 
0.0000000e+00 -8.2485705e-05 0.0000000e+00 
0.0000000e+00 8.4383264e-06 0.0000000e+00 
0.0000000e+00 1.2896366e-04 0.0000000e+00 
0.0000000e+00 2.7909028e-04 0.0000000e+00 
0.0000000e+00 5.5019031e-05 0.0000000e+00 
0.0000000e+00 -1.1831640e-04 0.0000000e+00 
0.0000000e+00 -2.4091601e-04 0.0000000e+00 
0.0000000e+00 -3.1277980e-04 0.0000000e+00 
0.0000000e+00 -3.3390778e-04 0.0000000e+00 
0.0000000e+00 -3.0429993e-04 0.0000000e+00 
0.0000000e+00 -2.2395626e-04 0.0000000e+00 
0.0000000e+00 -9.2876769e-05 0.0000000e+00 
0.0000000e+00 8.8938534e-05 0.0000000e+00 
0.0000000e+00 3.2148967e-04 0.0000000e+00 
0.0000000e+00 6.0477661e-04 0.0000000e+00 
0.0000000e+00 9.3879935e-04 0.0000000e+00 
0.0000000e+00 2.8231007e-04 0.0000000e+00 
0.0000000e+00 2.7642949e-04 0.0000000e+00 
0.0000000e+00 2.5878783e-04 0.0000000e+00 
0.0000000e+00 2.2938506e-04 0.0000000e+00 
0.0000000e+00 1.8822115e-04 0.0000000e+00 
0.0000000e+00 1.3529614e-04 0.0000000e+00 
0.0000000e+00 7.0610018e-05 0.0000000e+00 
0.0000000e+00 -5.8372239e-06 0.0000000e+00 
0.0000000e+00 -9.4045579e-05 0.0000000e+00 
0.0000000e+00 -1.9401504e-04 0.0000000e+00 
0.0000000e+00 -3.0574563e-04 0.0000000e+00 
0.0000000e+00 -4.2923732e-04 0.0000000e+00 
0.0000000e+00 -5.6449015e-04 0.0000000e+00 
0.0000000e+00 -3.3446250e-04 0.0000000e+00 
0.0000000e+00 -1.4327916e-04 0.0000000e+00 
0.0000000e+00 9.0599369e-06 0.0000000e+00 
0.0000000e+00 1.2255477e-04 0.0000000e+00 
0.0000000e+00 1.9720534e-04 0.0000000e+00 
0.0000000e+00 2.3301167e-04 0.0000000e+00 
0.0000000e+00 2.2997372e-04 0.0000000e+00 
0.0000000e+00 1.8809151e-04 0.0000000e+00 
0.0000000e+00 1.0736505e-04 0.0000000e+00 
0.0000000e+00 -1.2205674e-05 0.0000000e+00 
0.0000000e+00 -1.7062065e-04 0.0000000e+00 
0.0000000e+00 -3.6787990e-04 0.0000000e+00 
0.0000000e+00 -1.9371524e-04 0.0000000e+00 
0.0000000e+00 -5.1793129e-05 0.0000000e+00 
0.0000000e+00 5.7886456e-05 0.0000000e+00 
0.0000000e+00 1.3532350e-04 0.0000000e+00 
0.0000000e+00 1.8051802e-04 0.0000000e+00 
0.0000000e+00 1.9347000e-04 0.0000000e+00 
0.0000000e+00 1.7417944e-04 0.0000000e+00 
0.0000000e+00 1.2264635e-04 0.0000000e+00 
0.0000000e+00 3.8870719e-05 0.0000000e+00 
0.0000000e+00 -7.7147444e-05 0.0000000e+00 
0.0000000e+00 -2.2540815e-04 0.0000000e+00 
0.0000000e+00 -4.0591139e-04 0.0000000e+00 
0.0000000e+00 -2.1617833e-04 0.0000000e+00 
0.0000000e+00 -6.1326224e-05 0.0000000e+00 
0.0000000e+00 5.8644953e-05 0.0000000e+00 
0.0000000e+00 1.4373520e-04 0.0000000e+00 
0.0000000e+00 1.9394452e-04 0.0000000e+00 
0.0000000e+00 2.0927291e-04 0.0000000e+00 
0.0000000e+00 1.8972038e-04 0.0000000e+00 
0.0000000e+00 1.3528690e-04 0.0000000e+00 
0.0000000e+00 4.5972498e-05 0.0000000e+00 
0.0000000e+00 -7.8222831e-05 0.0000000e+00 
0.0000000e+00 -2.3729910e-04 0.0000000e+00 
0.0000000e+00 -4.3125628e-04 0.0000000e+00 
0.0000000e+00 -2.5576865e-04 0.0000000e+00 
0.0000000e+00 -1.0988233e-04 0.0000000e+00 
0.0000000e+00 6.4027045e-06 0.0000000e+00 
0.0000000e+00 9.3086441e-05 0.0000000e+00 
0.0000000e+00 1.5016888e-04 0.0000000e+00 
0.0000000e+00 1.7765003e-04 0.0000000e+00 
0.0000000e+00 1.7552989e-04 0.0000000e+00 
0.0000000e+00 1.4380844e-04 0.0000000e+00 
0.0000000e+00 8.2485705e-05 0.0000000e+00 
0.0000000e+00 -8.4383264e-06 0.0000000e+00 
0.0000000e+00 -1.2896366e-04 0.0000000e+00 
0.0000000e+00 -2.7909028e-04 0.0000000e+00 
0.0000000e+00 -5.5019031e-05 0.0000000e+00 
0.0000000e+00 1.1831640e-04 0.0000000e+00 
0.0000000e+00 2.4091601e-04 0.0000000e+00 
0.0000000e+00 3.1277980e-04 0.0000000e+00 
0.0000000e+00 3.3390778e-04 0.0000000e+00 
0.0000000e+00 3.0429993e-04 0.0000000e+00 
0.0000000e+00 2.2395626e-04 0.0000000e+00 
0.0000000e+00 9.2876769e-05 0.0000000e+00 
0.0000000e+00 -8.8938534e-05 0.0000000e+00 
0.0000000e+00 -3.2148967e-04 0.0000000e+00 
0.0000000e+00 -6.0477661e-04 0.0000000e+00 
0.0000000e+00 -9.3879935e-04 0.0000000e+00 
0.0000000e+00 1.1436761e-03 0.0000000e+00 
0.0000000e+00 1.3556251e-03 0.0000000e+00 
0.0000000e+00 1.2737847e-03 0.0000000e+00 
0.0000000e+00 9.7160204e-04 0.0000000e+00 
0.0000000e+00 5.2252470e-04 0.0000000e+00 
0.0000000e+00 -1.5916157e-16 0.0000000e+00 
0.0000000e+00 -5.2252470e-04 0.0000000e+00 
0.0000000e+00 -9.7160204e-04 0.0000000e+00 
0.0000000e+00 -1.2737847e-03 0.0000000e+00 
0.0000000e+00 -1.3556251e-03 0.0000000e+00 
0.0000000e+00 -1.1436761e-03 0.0000000e+00 
0.0000000e+00 9.7983424e-04 0.0000000e+00 
0.0000000e+00 1.2245516e-03 0.0000000e+00 
0.0000000e+00 1.1754795e-03 0.0000000e+00 
0.0000000e+00 9.0606534e-04 0.0000000e+00 
0.0000000e+00 4.8975635e-04 0.0000000e+00 
0.0000000e+00 -1.2429761e-16 0.0000000e+00 
0.0000000e+00 -4.8975635e-04 0.0000000e+00 
0.0000000e+00 -9.0606534e-04 0.0000000e+00 
0.0000000e+00 -1.1754795e-03 0.0000000e+00 
0.0000000e+00 -1.2245516e-03 0.0000000e+00 
0.0000000e+00 -9.7983424e-04 0.0000000e+00 
0.0000000e+00 1.0115271e-03 0.0000000e+00 
0.0000000e+00 1.2499059e-03 0.0000000e+00 
0.0000000e+00 1.1944952e-03 0.0000000e+00 
0.0000000e+00 9.1874250e-04 0.0000000e+00 
0.0000000e+00 4.9609493e-04 0.0000000e+00 
0.0000000e+00 -1.0913936e-16 0.0000000e+00 
0.0000000e+00 -4.9609493e-04 0.0000000e+00 
0.0000000e+00 -9.1874250e-04 0.0000000e+00 
0.0000000e+00 -1.1944952e-03 0.0000000e+00 
0.0000000e+00 -1.2499059e-03 0.0000000e+00 
0.0000000e+00 -1.0115271e-03 0.0000000e+00 
0.0000000e+00 1.0326479e-03 0.0000000e+00 
0.0000000e+00 1.2668025e-03 0.0000000e+00 
0.0000000e+00 1.2071677e-03 0.0000000e+00 
0.0000000e+00 9.2719076e-04 0.0000000e+00 
0.0000000e+00 5.0031906e-04 0.0000000e+00 
0.0000000e+00 -8.7917824e-17 0.0000000e+00 
0.0000000e+00 -5.0031906e-04 0.0000000e+00 
0.0000000e+00 -9.2719076e-04 0.0000000e+00 
0.0000000e+00 -1.2071677e-03 0.0000000e+00 
0.0000000e+00 -1.2668025e-03 0.0000000e+00 
0.0000000e+00 -1.0326479e-03 0.0000000e+00 
0.0000000e+00 9.0584287e-04 0.0000000e+00 
0.0000000e+00 1.1653586e-03 0.0000000e+00 
0.0000000e+00 1.1310847e-03 0.0000000e+00 
0.0000000e+00 8.7646878e-04 0.0000000e+00 
0.0000000e+00 4.7495807e-04 0.0000000e+00 
0.0000000e+00 -1.0004442e-16 0.0000000e+00 
0.0000000e+00 -4.7495807e-04 0.0000000e+00 
0.0000000e+00 -8.7646878e-04 0.0000000e+00 
0.0000000e+00 -1.1310847e-03 0.0000000e+00 
0.0000000e+00 -1.1653586e-03 0.0000000e+00 
0.0000000e+00 -9.0584287e-04 0.0000000e+00 
0.0000000e+00 1.4556004e-03 0.0000000e+00 
0.0000000e+00 1.6051646e-03 0.0000000e+00 
0.0000000e+00 1.4609393e-03 0.0000000e+00 