# vtk DataFile Version 4.0
vtk output
ASCII
DATASET UNSTRUCTURED_GRID
POINTS 30 float
0.0000000e+00 0.0000000e+00 0.0000000e+00 
0.0000000e+00 0.0000000e+00 8.0000001e-01 
0.0000000e+00 0.0000000e+00 1.6000000e+00 
0.0000000e+00 0.0000000e+00 2.4000001e+00 
0.0000000e+00 0.0000000e+00 3.2000000e+00 
0.0000000e+00 0.0000000e+00 4.0000000e+00 
0.0000000e+00 0.0000000e+00 4.8000002e+00 
0.0000000e+00 0.0000000e+00 5.5999999e+00 
0.0000000e+00 0.0000000e+00 6.4000001e+00 
0.0000000e+00 0.0000000e+00 7.1999998e+00 
0.0000000e+00 0.0000000e+00 8.0000000e+00 
1.0000000e+01 0.0000000e+00 0.0000000e+00 
1.0000000e+01 0.0000000e+00 8.0000001e-01 
1.0000000e+01 0.0000000e+00 1.6000000e+00 
1.0000000e+01 0.0000000e+00 2.4000001e+00 
1.0000000e+01 0.0000000e+00 3.2000000e+00 
1.0000000e+01 0.0000000e+00 4.0000000e+00 
1.0000000e+01 0.0000000e+00 4.8000002e+00 
1.0000000e+01 0.0000000e+00 5.5999999e+00 
1.0000000e+01 0.0000000e+00 6.4000001e+00 
1.0000000e+01 0.0000000e+00 7.1999998e+00 
1.0000000e+01 0.0000000e+00 8.0000000e+00 
2.0000000e+00 0.0000000e+00 4.0000000e+00 
4.0000000e+00 0.0000000e+00 4.0000000e+00 
6.0000000e+00 0.0000000e+00 4.0000000e+00 
8.0000000e+00 0.0000000e+00 4.0000000e+00 
2.0000000e+00 0.0000000e+00 8.0000000e+00 
4.0000000e+00 0.0000000e+00 8.0000000e+00 
6.0000000e+00 0.0000000e+00 8.0000000e+00 
8.0000000e+00 0.0000000e+00 8.0000000e+00 

CELLS 30 90
2 0 1
2 1 2
2 2 3
2 3 4
2 4 5
2 5 6
2 6 7
2 7 8
2 8 9
2 9 10
2 11 12
2 12 13
2 13 14
2 14 15
2 15 16
2 16 17
2 17 18
2 18 19
2 19 20
2 20 21
2 5 22
2 22 23
2 23 24
2 24 25
2 25 16
2 10 26
2 26 27
2 27 28
2 28 29
2 29 21

CELL_TYPES 30
3
3
3
3
3
3
3
3
3
3
3
3
3
3
3
3
3
3
3
3
3
3
3
3
3
3
3
3
3
3
POINT_DATA 30
FIELD FieldData 7
DISPLACEMENT 3 30  float
0.0000000e+00 0.0000000e+00 0.0000000e+00 
4.9461685e-03 0.0000000e+00 1.0253636e-05 
9.7629586e-03 0.0000000e+00 1.9742683e-05 
1.4236659e-02 0.0000000e+00 2.9231729e-05 
1.8115412e-02 0.0000000e+00 3.8094870e-05 
2.1095702e-02 0.0000000e+00 4.3383465e-05 
2.3505598e-02 0.0000000e+00 4.2648790e-05 
2.5764382e-02 0.0000000e+00 4.3211177e-05 
2.7730430e-02 0.0000000e+00 4.4152413e-05 
2.9227782e-02 0.0000000e+00 4.7522775e-05 
3.0151613e-02 0.0000000e+00 5.3125987e-05 
0.0000000e+00 0.0000000e+00 0.0000000e+00 
5.0759465e-03 0.0000000e+00 -7.0627907e-06 
9.9723274e-03 0.0000000e+00 -1.1204160e-05 
1.4483330e-02 0.0000000e+00 -1.3608299e-05 
1.8300626e-02 0.0000000e+00 -1.9246043e-05 
2.1110928e-02 0.0000000e+00 -2.7827900e-05 
2.3292329e-02 0.0000000e+00 -3.1358082e-05 
2.5342060e-02 0.0000000e+00 -3.4888260e-05 
2.7204618e-02 0.0000000e+00 -3.8418442e-05 
2.8824506e-02 0.0000000e+00 -4.1948624e-05 
3.0148698e-02 0.0000000e+00 -4.3414097e-05 
2.1110455e-02 0.0000000e+00 -3.0468868e-03 
2.1121580e-02 0.0000000e+00 -1.9303319e-03 
2.1123977e-02 0.0000000e+00 9.8625489e-04 
2.1119399e-02 0.0000000e+00 2.5001869e-03 
3.0161208e-02 0.0000000e+00 2.0416499e-04 
3.0163657e-02 0.0000000e+00 1.5191836e-03 
3.0164549e-02 0.0000000e+00 2.3434542e-03 
3.0157937e-02 0.0000000e+00 1.9167339e-03 
ROTATION 3 30  float
0.0000000e+00 6.2052715e-03 0.0000000e+00 
0.0000000e+00 6.1375881e-03 0.0000000e+00 
0.0000000e+00 5.8554728e-03 0.0000000e+00 
0.0000000e+00 5.2798614e-03 0.0000000e+00 
0.0000000e+00 4.3467828e-03 0.0000000e+00 
0.0000000e+00 3.0544179e-03 0.0000000e+00 
0.0000000e+00 2.9442057e-03 0.0000000e+00 
0.0000000e+00 2.6763114e-03 0.0000000e+00 
0.0000000e+00 2.1936665e-03 0.0000000e+00 
0.0000000e+00 1.5367686e-03 0.0000000e+00 
0.0000000e+00 7.3869852e-04 0.0000000e+00 
0.0000000e+00 6.3823001e-03 0.0000000e+00 
0.0000000e+00 6.2701986e-03 0.0000000e+00 
0.0000000e+00 5.9331320e-03 0.0000000e+00 
0.0000000e+00 5.2749594e-03 0.0000000e+00 
0.0000000e+00 4.1981535e-03 0.0000000e+00 
0.0000000e+00 2.7859220e-03 0.0000000e+00 
0.0000000e+00 2.6560198e-03 0.0000000e+00 
0.0000000e+00 2.4567428e-03 0.0000000e+00 
0.0000000e+00 2.1880912e-03 0.0000000e+00 
0.0000000e+00 1.8500647e-03 0.0000000e+00 
0.0000000e+00 1.4519501e-03 0.0000000e+00 
0.0000000e+00 2.8790455e-04 0.0000000e+00 
0.0000000e+00 -1.2454633e-03 0.0000000e+00 
0.0000000e+00 -1.3557641e-03 0.0000000e+00 
0.0000000e+00 2.2741573e-05 0.0000000e+00 
0.0000000e+00 -5.7844789e-04 0.0000000e+00 
0.0000000e+00 -6.2399346e-04 0.0000000e+00 
0.0000000e+00 -1.3451200e-04 0.0000000e+00 
0.0000000e+00 5.6571607e-04 0.0000000e+00 
REACTION 3 30  float
-6.6626011e+03 -0.0000000e+00 -2.6915795e+04 
3.1468517e-10 -0.0000000e+00 -0.0000000e+00 
4.6566129e-09 -0.0000000e+00 -3.6379788e-12 
-3.3942342e-09 -0.0000000e+00 -0.0000000e+00 
-4.9185473e-09 -0.0000000e+00 -1.6370905e-11 
6.8394002e-10 -0.0000000e+00 -8.8948582e-10 
8.6383807e-09 -0.0000000e+00 -1.0913936e-10 
3.6015990e-10 -0.0000000e+00 9.8225428e-11 
-3.8671715e-09 -0.0000000e+00 -1.0004442e-10 
1.4370016e-09 -0.0000000e+00 3.6379788e-11 
2.2409949e-09 -0.0000000e+00 2.5465852e-11 
-1.1034951e+04 -0.0000000e+00 1.8539826e+04 
1.3642421e-09 -0.0000000e+00 -1.0913936e-11 
2.3719622e-09 -0.0000000e+00 1.6370905e-10 
-1.1386874e-09 -0.0000000e+00 -1.0368240e-10 
-8.4692147e-09 -0.0000000e+00 -4.3655746e-11 
1.2805685e-09 -0.0000000e+00 -5.7480065e-09 
-4.3073669e-09 -0.0000000e+00 -1.4551915e-11 
5.8207661e-10 -0.0000000e+00 2.9103830e-11 
4.3073669e-09 -0.0000000e+00 4.5110937e-10 
2.5065674e-09 -0.0000000e+00 -6.3664629e-12 
1.5934347e-09 -0.0000000e+00 -3.0941010e-09 
-1.1204975e-09 -0.0000000e+00 9.0221874e-10 
1.3551471e-09 -0.0000000e+00 4.8748916e-10 
-7.2395778e-10 -0.0000000e+00 -3.9835868e-10 
-2.6939233e-09 -0.0000000e+00 -7.2759576e-12 
5.1650204e-09 -0.0000000e+00 6.1845640e-11 
-3.6163783e-09 -0.0000000e+00 -5.9571903e-11 
-1.4551915e-09 -0.0000000e+00 6.9821908e-09 
-2.3046596e-09 -0.0000000e+00 -2.2737368e-11 
REACTION_MOMENT 3 30  float
-0.0000000e+00 -1.1641532e-10 -0.0000000e+00 
-0.0000000e+00 5.8207661e-11 -0.0000000e+00 
-0.0000000e+00 6.4028427e-10 -0.0000000e+00 
-0.0000000e+00 5.8207661e-10 -0.0000000e+00 
-0.0000000e+00 2.2409949e-09 -0.0000000e+00 
-0.0000000e+00 -1.1059456e-09 -0.0000000e+00 
-0.0000000e+00 -1.7462298e-10 -0.0000000e+00 
-0.0000000e+00 2.3283064e-09 -0.0000000e+00 
-0.0000000e+00 2.1682354e-09 -0.0000000e+00 
-0.0000000e+00 -5.7407306e-09 -0.0000000e+00 
-0.0000000e+00 -2.2555469e-09 -0.0000000e+00 
-0.0000000e+00 -2.3283064e-10 -0.0000000e+00 
-0.0000000e+00 5.8207661e-11 -0.0000000e+00 
-0.0000000e+00 -9.8953024e-10 -0.0000000e+00 
-0.0000000e+00 -1.0477379e-09 -0.0000000e+00 
-0.0000000e+00 1.1641532e-10 -0.0000000e+00 
-0.0000000e+00 -2.6193447e-10 -0.0000000e+00 
-0.0000000e+00 3.2014214e-10 -0.0000000e+00 
-0.0000000e+00 1.9499566e-09 -0.0000000e+00 
-0.0000000e+00 -1.2514647e-09 -0.0000000e+00 
-0.0000000e+00 3.7834980e-10 -0.0000000e+00 
-0.0000000e+00 1.1641532e-10 -0.0000000e+00 
-0.0000000e+00 6.5483619e-10 -0.0000000e+00 
-0.0000000e+00 1.7462298e-10 -0.0000000e+00 
-0.0000000e+00 -4.9112714e-11 -0.0000000e+00 
-0.0000000e+00 -1.0913936e-11 -0.0000000e+00 
-0.0000000e+00 7.2759576e-12 -0.0000000e+00 
-0.0000000e+00 -3.0013325e-11 -0.0000000e+00 
-0.0000000e+00 3.4560799e-11 -0.0000000e+00 
-0.0000000e+00 -0.0000000e+00 -0.0000000e+00 
VOLUME_ACCELERATION 3 30  float
0.0000000e+00 0.0000000e+00 0.0000000e+00 
0.0000000e+00 0.0000000e+00 0.0000000e+00 
0.0000000e+00 0.0000000e+00 0.0000000e+00 
0.0000000e+00 0.0000000e+00 0.0000000e+00 
0.0000000e+00 0.0000000e+00 0.0000000e+00 
0.0000000e+00 0.0000000e+00 0.0000000e+00 
0.0000000e+00 0.0000000e+00 0.0000000e+00 
0.0000000e+00 0.0000000e+00 0.0000000e+00 
0.0000000e+00 0.0000000e+00 0.0000000e+00 
0.0000000e+00 0.0000000e+00 0.0000000e+00 
0.0000000e+00 0.0000000e+00 0.0000000e+00 
0.0000000e+00 0.0000000e+00 0.0000000e+00 
0.0000000e+00 0.0000000e+00 0.0000000e+00 
0.0000000e+00 0.0000000e+00 0.0000000e+00 
0.0000000e+00 0.0000000e+00 0.0000000e+00 
0.0000000e+00 0.0000000e+00 0.0000000e+00 
0.0000000e+00 0.0000000e+00 0.0000000e+00 
0.0000000e+00 0.0000000e+00 0.0000000e+00 
0.0000000e+00 0.0000000e+00 0.0000000e+00 
0.0000000e+00 0.0000000e+00 0.0000000e+00 
0.0000000e+00 0.0000000e+00 0.0000000e+00 
0.0000000e+00 0.0000000e+00 0.0000000e+00 
0.0000000e+00 0.0000000e+00 0.0000000e+00 
0.0000000e+00 0.0000000e+00 0.0000000e+00 
0.0000000e+00 0.0000000e+00 0.0000000e+00 
0.0000000e+00 0.0000000e+00 0.0000000e+00 
0.0000000e+00 0.0000000e+00 0.0000000e+00 
0.0000000e+00 0.0000000e+00 0.0000000e+00 
0.0000000e+00 0.0000000e+00 0.0000000e+00 
0.0000000e+00 0.0000000e+00 0.0000000e+00 
POINT_LOAD 3 30  float
0.0000000e+00 0.0000000e+00 0.0000000e+00 
-7.7829194e+03 0.0000000e+00 2.0070490e+03 
0.0000000e+00 0.0000000e+00 0.0000000e+00 
-6.2970952e+03 0.0000000e+00 1.6430012e+03 
6.1179678e+03 0.0000000e+00 9.3831846e+03 
-8.5773701e+03 0.0000000e+00 3.9016108e+03 
-9.7061920e+01 0.0000000e+00 -3.4047922e+03 
-5.5206475e+03 0.0000000e+00 -9.9447656e+02 
9.5071309e+03 0.0000000e+00 -6.3764443e+03 
-6.2507490e+03 0.0000000e+00 -5.8612437e+03 
0.0000000e+00 0.0000000e+00 0.0000000e+00 
0.0000000e+00 0.0000000e+00 0.0000000e+00 
-7.5149529e+01 0.0000000e+00 -7.6687314e+03 
-9.3886621e+03 0.0000000e+00 -4.5602295e+03 
-2.1168645e+02 0.0000000e+00 8.4882100e+03 
8.4024297e+03 0.0000000e+00 7.7283027e+03 
0.0000000e+00 0.0000000e+00 0.0000000e+00 
0.0000000e+00 0.0000000e+00 0.0000000e+00 
0.0000000e+00 0.0000000e+00 0.0000000e+00 
0.0000000e+00 0.0000000e+00 0.0000000e+00 
9.1415027e+02 0.0000000e+00 -5.4198604e+03 
-7.1998677e+03 0.0000000e+00 -1.1291322e+03 
3.8073010e+03 0.0000000e+00 4.3969004e+03 
9.1652080e+03 0.0000000e+00 -7.3881592e+03 
7.3249443e+03 0.0000000e+00 6.3527583e+03 
4.0856758e+03 0.0000000e+00 -4.7126802e+03 
7.5007417e+03 0.0000000e+00 9.3891553e+03 
1.6361462e+03 0.0000000e+00 2.2118831e+03 
7.8799551e+03 0.0000000e+00 2.8955334e+03 
2.7571111e+03 0.0000000e+00 -2.5058689e+03 
POINT_MOMENT 3 30  float
0.0000000e+00 0.0000000e+00 0.0000000e+00 
0.0000000e+00 0.0000000e+00 0.0000000e+00 
0.0000000e+00 0.0000000e+00 0.0000000e+00 
0.0000000e+00 0.0000000e+00 0.0000000e+00 
0.0000000e+00 0.0000000e+00 0.0000000e+00 
0.0000000e+00 0.0000000e+00 0.0000000e+00 
0.0000000e+00 0.0000000e+00 0.0000000e+00 
0.0000000e+00 0.0000000e+00 0.0000000e+00 
0.0000000e+00 0.0000000e+00 0.0000000e+00 
0.0000000e+00 0.0000000e+00 0.0000000e+00 
0.0000000e+00 0.0000000e+00 0.0000000e+00 
0.0000000e+00 0.0000000e+00 0.0000000e+00 
0.0000000e+00 0.0000000e+00 0.0000000e+00 
0.0000000e+00 0.0000000e+00 0.0000000e+00 
0.0000000e+00 0.0000000e+00 0.0000000e+00 
0.0000000e+00 0.0000000e+00 0.0000000e+00 
0.0000000e+00 0.0000000e+00 0.0000000e+00 
0.0000000e+00 0.0000000e+00 0.0000000e+00 
0.0000000e+00 0.0000000e+00 0.0000000e+00 
0.0000000e+00 0.0000000e+00 0.0000000e+00 
0.0000000e+00 0.0000000e+00 0.0000000e+00 
0.0000000e+00 0.0000000e+00 0.0000000e+00 
0.0000000e+00 0.0000000e+00 0.0000000e+00 
0.0000000e+00 0.0000000e+00 0.0000000e+00 
0.0000000e+00 0.0000000e+00 0.0000000e+00 
0.0000000e+00 0.0000000e+00 0.0000000e+00 
0.0000000e+00 0.0000000e+00 0.0000000e+00 
0.0000000e+00 0.0000000e+00 0.0000000e+00 
0.0000000e+00 0.0000000e+00 0.0000000e+00 
0.0000000e+00 0.0000000e+00 0.0000000e+00 
CELL_DATA 30
FIELD FieldData 9
YOUNG_MODULUS 1 30  float
2.1000000e+11
2.1000000e+11
2.1000000e+11
2.1000000e+11
2.1000000e+11
2.1000000e+11
2.1000000e+11
2.1000000e+11
2.1000000e+11
2.1000000e+11
2.1000000e+11
2.1000000e+11
2.1000000e+11
2.1000000e+11
2.1000000e+11
2.1000000e+11
2.1000000e+11
2.1000000e+11
2.1000000e+11
2.1000000e+11
2.1000000e+11
2.1000000e+11
2.1000000e+11
2.1000000e+11
2.1000000e+11
2.1000000e+11
2.1000000e+11
2.1000000e+11
2.1000000e+11
2.1000000e+11
DENSITY 1 30  float
7.8500000e+03
7.8500000e+03
7.8500000e+03
7.8500000e+03
7.8500000e+03
7.8500000e+03
7.8500000e+03
7.8500000e+03
7.8500000e+03
7.8500000e+03
7.8500000e+03
7.8500000e+03
7.8500000e+03
7.8500000e+03
7.8500000e+03
7.8500000e+03
7.8500000e+03
7.8500000e+03
7.8500000e+03
7.8500000e+03
7.8500000e+03
7.8500000e+03
7.8500000e+03
7.8500000e+03
7.8500000e+03
7.8500000e+03
7.8500000e+03
7.8500000e+03
7.8500000e+03
7.8500000e+03
CROSS_AREA 1 30  float
9.9999998e-03
9.9999998e-03
9.9999998e-03
9.9999998e-03
9.9999998e-03
9.9999998e-03
9.9999998e-03
9.9999998e-03
9.9999998e-03
9.9999998e-03
9.9999998e-03
9.9999998e-03
9.9999998e-03
9.9999998e-03
9.9999998e-03
9.9999998e-03
9.9999998e-03
9.9999998e-03
9.9999998e-03
9.9999998e-03
9.9999998e-03
9.9999998e-03
9.9999998e-03
9.9999998e-03
9.9999998e-03
9.9999998e-03
9.9999998e-03
9.9999998e-03
9.9999998e-03
9.9999998e-03
I22 1 30  float
1.5000001e-04
1.5000001e-04
1.5000001e-04
1.5000001e-04
1.5000001e-04
1.5000001e-04
1.5000001e-04
1.5000001e-04
1.5000001e-04
1.5000001e-04
1.5000001e-04
1.5000001e-04
1.5000001e-04
1.5000001e-04
1.5000001e-04
1.5000001e-04
1.5000001e-04
1.5000001e-04
1.5000001e-04
1.5000001e-04
1.5000001e-04
1.5000001e-04
1.5000001e-04
1.5000001e-04
1.5000001e-04
1.5000001e-04
1.5000001e-04
1.5000001e-04
1.5000001e-04
1.5000001e-04
I33 1 30  float
1.5000001e-04
1.5000001e-04
1.5000001e-04
1.5000001e-04
1.5000001e-04
1.5000001e-04
1.5000001e-04
1.5000001e-04
1.5000001e-04
1.5000001e-04
1.5000001e-04
1.5000001e-04
1.5000001e-04
1.5000001e-04
1.5000001e-04
1.5000001e-04
1.5000001e-04
1.5000001e-04
1.5000001e-04
1.5000001e-04
1.5000001e-04
1.5000001e-04
1.5000001e-04
1.5000001e-04
1.5000001e-04
1.5000001e-04
1.5000001e-04
1.5000001e-04
1.5000001e-04
1.5000001e-04
TORSIONAL_INERTIA 1 30  float
3.0000001e-04
3.0000001e-04
3.0000001e-04
3.0000001e-04
3.0000001e-04
3.0000001e-04
3.0000001e-04
3.0000001e-04
3.0000001e-04
3.0000001e-04
3.0000001e-04
3.0000001e-04
3.0000001e-04
3.0000001e-04
3.0000001e-04
3.0000001e-04
3.0000001e-04
3.0000001e-04
3.0000001e-04
3.0000001e-04
3.0000001e-04
3.0000001e-04
3.0000001e-04
3.0000001e-04
3.0000001e-04
3.0000001e-04
3.0000001e-04
3.0000001e-04
3.0000001e-04
3.0000001e-04
POISSON_RATIO 1 30  float
3.0000001e-01
3.0000001e-01
3.0000001e-01
3.0000001e-01
3.0000001e-01
3.0000001e-01
3.0000001e-01
3.0000001e-01
3.0000001e-01
3.0000001e-01
3.0000001e-01
3.0000001e-01
3.0000001e-01
3.0000001e-01
3.0000001e-01
3.0000001e-01
3.0000001e-01
3.0000001e-01
3.0000001e-01
3.0000001e-01
3.0000001e-01
3.0000001e-01
3.0000001e-01
3.0000001e-01
3.0000001e-01
3.0000001e-01
3.0000001e-01
3.0000001e-01
3.0000001e-01
3.0000001e-01
MOMENT 3 30  float
0.0000000e+00 -2.6650403e+03 0.0000000e+00 
0.0000000e+00 -1.1108289e+04 0.0000000e+00 
0.0000000e+00 -2.2664705e+04 0.0000000e+00 
0.0000000e+00 -3.6739961e+04 0.0000000e+00 
0.0000000e+00 -5.0886867e+04 0.0000000e+00 
0.0000000e+00 -4.3396143e+03 0.0000000e+00 
0.0000000e+00 -1.0548336e+04 0.0000000e+00 
0.0000000e+00 -1.9004141e+04 0.0000000e+00 
0.0000000e+00 -2.5865354e+04 0.0000000e+00 
0.0000000e+00 -3.1424012e+04 0.0000000e+00 
0.0000000e+00 -4.4139805e+03 0.0000000e+00 
0.0000000e+00 -1.3272001e+04 0.0000000e+00 
0.0000000e+00 -2.5915547e+04 0.0000000e+00 
0.0000000e+00 -4.2399230e+04 0.0000000e+00 
0.0000000e+00 -5.5606621e+04 0.0000000e+00 
0.0000000e+00 -5.1148989e+03 0.0000000e+00 
0.0000000e+00 -7.8465298e+03 0.0000000e+00 
0.0000000e+00 -1.0578161e+04 0.0000000e+00 
0.0000000e+00 -1.3309792e+04 0.0000000e+00 
0.0000000e+00 -1.5675763e+04 0.0000000e+00 
0.0000000e+00 -4.3572586e+04 0.0000000e+00 
0.0000000e+00 -2.4150543e+04 0.0000000e+00 
0.0000000e+00 -1.7372394e+03 0.0000000e+00 
0.0000000e+00 2.1711465e+04 0.0000000e+00 
0.0000000e+00 4.3520090e+04 0.0000000e+00 
0.0000000e+00 -2.0745057e+04 0.0000000e+00 
0.0000000e+00 -7.1734229e+02 0.0000000e+00 
0.0000000e+00 7.7093330e+03 0.0000000e+00 
0.0000000e+00 1.1028592e+04 0.0000000e+00 
0.0000000e+00 1.3958186e+04 0.0000000e+00 
FORCE 3 30  float
2.6915795e+04 0.0000000e+00 -6.6626011e+03 
2.4908746e+04 0.0000000e+00 -1.4445521e+04 
2.4908746e+04 0.0000000e+00 -1.4445521e+04 
2.3265746e+04 0.0000000e+00 -2.0742615e+04 
1.3882562e+04 0.0000000e+00 -1.4624648e+04 
-1.9285222e+03 0.0000000e+00 -7.7123706e+03 
1.4762701e+03 0.0000000e+00 -7.8094326e+03 
2.4707466e+03 0.0000000e+00 -1.3330080e+04 
8.8471904e+03 0.0000000e+00 -3.8229492e+03 
1.4708435e+04 0.0000000e+00 -1.0073698e+04 
-1.8539826e+04 0.0000000e+00 -1.1034951e+04 
-1.0871095e+04 0.0000000e+00 -1.1110101e+04 
-6.3108652e+03 0.0000000e+00 -2.0498764e+04 
-1.4799075e+04 0.0000000e+00 -2.0710449e+04 
-2.2527377e+04 0.0000000e+00 -1.2308021e+04 
-9.2667246e+03 0.0000000e+00 -3.4145386e+03 
-9.2667246e+03 0.0000000e+00 -3.4145386e+03 
-9.2667246e+03 0.0000000e+00 -3.4145386e+03 
-9.2667246e+03 0.0000000e+00 -3.4145386e+03 
-3.8468638e+03 0.0000000e+00 -2.5003884e+03 
1.5489647e+04 0.0000000e+00 1.1909473e+04 
1.1682347e+04 0.0000000e+00 7.5125718e+03 
2.5171389e+03 0.0000000e+00 1.4900731e+04 
-4.8078057e+03 0.0000000e+00 8.5479727e+03 
-8.8934814e+03 0.0000000e+00 1.3260653e+04 
1.0073698e+04 0.0000000e+00 1.4708435e+04 
2.5729565e+03 0.0000000e+00 5.3192793e+03 
9.3681024e+02 0.0000000e+00 3.1073960e+03 
-6.9431445e+03 0.0000000e+00 2.1186269e+02 
-9.7002559e+03 0.0000000e+00 2.7177317e+03 
