# vtk DataFile Version 4.0
vtk output
ASCII
DATASET UNSTRUCTURED_GRID
POINTS 22 float
0.0000000e+00 0.0000000e+00 0.0000000e+00 
1.0000000e-01 0.0000000e+00 0.0000000e+00 
2.0000000e-01 0.0000000e+00 0.0000000e+00 
3.0000001e-01 0.0000000e+00 0.0000000e+00 
4.0000001e-01 0.0000000e+00 0.0000000e+00 
5.0000000e-01 0.0000000e+00 0.0000000e+00 
6.0000002e-01 0.0000000e+00 0.0000000e+00 
6.9999999e-01 0.0000000e+00 0.0000000e+00 
8.0000001e-01 0.0000000e+00 0.0000000e+00 
8.9999998e-01 0.0000000e+00 0.0000000e+00 
1.0000000e+00 0.0000000e+00 0.0000000e+00 
1.0000000e+00 0.0000000e+00 0.0000000e+00 
1.1000000e+00 0.0000000e+00 0.0000000e+00 
1.2000000e+00 0.0000000e+00 0.0000000e+00 
1.3000000e+00 0.0000000e+00 0.0000000e+00 
1.4000000e+00 0.0000000e+00 0.0000000e+00 
1.5000000e+00 0.0000000e+00 0.0000000e+00 
1.6000000e+00 0.0000000e+00 0.0000000e+00 
1.7000000e+00 0.0000000e+00 0.0000000e+00 
1.8000000e+00 0.0000000e+00 0.0000000e+00 
1.9000000e+00 0.0000000e+00 0.0000000e+00 
2.0000000e+00 0.0000000e+00 0.0000000e+00 

CELLS 20 60
2 0 1
2 1 2
2 2 3
2 3 4
2 4 5
2 5 6
2 6 7
2 7 8
2 8 9
2 9 10
2 11 12
2 12 13
2 13 14
2 14 15
2 15 16
2 16 17
2 17 18
2 18 19
2 19 20
2 20 21

CELL_TYPES 20
3
3
3
3
3
3
3
3
3
3
3
3
3
3
3
3
3
3
3
3
POINT_DATA 22
FIELD FieldData 4
DISPLACEMENT 3 22  float
0.0000000e+00 0.0000000e+00 0.0000000e+00 
2.4934273e-04 -2.5168306e-03 0.0000000e+00 
4.9868546e-04 -1.0067322e-02 0.0000000e+00 
7.4802822e-04 -2.2651475e-02 0.0000000e+00 
9.9737092e-04 -4.0269289e-02 0.0000000e+00 
1.2467137e-03 -6.2920764e-02 0.0000000e+00 
1.4960564e-03 -9.0605900e-02 0.0000000e+00 
1.7453992e-03 -1.2332470e-01 0.0000000e+00 
1.9947418e-03 -1.6107716e-01 0.0000000e+00 
2.2440846e-03 -2.0386328e-01 0.0000000e+00 
2.4394622e-17 -2.5157085e-01 0.0000000e+00 
2.4394622e-17 -2.5157085e-01 0.0000000e+00 
-2.2440846e-03 -2.0386328e-01 0.0000000e+00 
-1.9947418e-03 -1.6107716e-01 0.0000000e+00 
-1.7453992e-03 -1.2332470e-01 0.0000000e+00 
-1.4960564e-03 -9.0605900e-02 0.0000000e+00 
-1.2467137e-03 -6.2920764e-02 0.0000000e+00 
-9.9737092e-04 -4.0269289e-02 0.0000000e+00 
-7.4802822e-04 -2.2651475e-02 0.0000000e+00 
-4.9868546e-04 -1.0067322e-02 0.0000000e+00 
-2.4934273e-04 -2.5168306e-03 0.0000000e+00 
0.0000000e+00 0.0000000e+00 0.0000000e+00 
ROTATION 3 22  float
0.0000000e+00 0.0000000e+00 0.0000000e+00 
0.0000000e+00 0.0000000e+00 -5.0336614e-02 
0.0000000e+00 0.0000000e+00 -1.0067323e-01 
0.0000000e+00 0.0000000e+00 -1.5100984e-01 
0.0000000e+00 0.0000000e+00 -2.0134646e-01 
0.0000000e+00 0.0000000e+00 -2.5168306e-01 
0.0000000e+00 0.0000000e+00 -3.0201969e-01 
0.0000000e+00 0.0000000e+00 -3.5235628e-01 
0.0000000e+00 0.0000000e+00 -4.0269291e-01 
0.0000000e+00 0.0000000e+00 -4.5302951e-01 
0.0000000e+00 0.0000000e+00 -5.0000000e-01 
0.0000000e+00 0.0000000e+00 5.0000000e-01 
0.0000000e+00 0.0000000e+00 4.5302951e-01 
0.0000000e+00 0.0000000e+00 4.0269291e-01 
0.0000000e+00 0.0000000e+00 3.5235628e-01 
0.0000000e+00 0.0000000e+00 3.0201969e-01 
0.0000000e+00 0.0000000e+00 2.5168306e-01 
0.0000000e+00 0.0000000e+00 2.0134646e-01 
0.0000000e+00 0.0000000e+00 1.5100984e-01 
0.0000000e+00 0.0000000e+00 1.0067323e-01 
0.0000000e+00 0.0000000e+00 5.0336614e-02 
0.0000000e+00 0.0000000e+00 0.0000000e+00 
REACTION 3 22  float
-1.7069322e+06 -4.3087051e+04 0.0000000e+00 
-1.5441531e+06 -1.2861623e+05 0.0000000e+00 
-3.0927620e+06 -2.4708725e+05 0.0000000e+00 
-4.6456660e+06 -4.1669438e+05 0.0000000e+00 
-6.1946825e+06 -6.0110550e+05 0.0000000e+00 
-7.7222540e+06 -7.5894956e+05 0.0000000e+00 
-9.2023600e+06 -8.5055994e+05 0.0000000e+00 
-1.0603327e+07 -8.4369712e+05 0.0000000e+00 
-1.1891718e+07 -7.1732812e+05 0.0000000e+00 
1.7610901e+06 4.2093295e+06 0.0000000e+00 
5.4842764e+07 3.9779581e+05 0.0000000e+00 
-5.4842764e+07 3.9779581e+05 0.0000000e+00 
-1.7610901e+06 4.2093295e+06 0.0000000e+00 
1.1891718e+07 -7.1732812e+05 0.0000000e+00 
1.0603327e+07 -8.4369712e+05 0.0000000e+00 
9.2023600e+06 -8.5055994e+05 0.0000000e+00 
7.7222540e+06 -7.5894956e+05 0.0000000e+00 
6.1946825e+06 -6.0110550e+05 0.0000000e+00 
4.6456660e+06 -4.1669438e+05 0.0000000e+00 
3.0927620e+06 -2.4708725e+05 0.0000000e+00 
1.5441531e+06 -1.2861623e+05 0.0000000e+00 
1.7069322e+06 -4.3087051e+04 0.0000000e+00 
REACTION_MOMENT 3 22  float
0.0000000e+00 0.0000000e+00 5.2873388e+05 
0.0000000e+00 0.0000000e+00 -2.5879807e+04 
0.0000000e+00 0.0000000e+00 -8.3146516e+04 
0.0000000e+00 0.0000000e+00 -2.0156855e+05 
0.0000000e+00 0.0000000e+00 -4.0784256e+05 
0.0000000e+00 0.0000000e+00 -7.2444300e+05 
0.0000000e+00 0.0000000e+00 -1.1688632e+06 
0.0000000e+00 0.0000000e+00 -1.7532804e+06 
0.0000000e+00 0.0000000e+00 -2.4846180e+06 
0.0000000e+00 0.0000000e+00 -2.8033950e+06 
-0.0000000e+00 -0.0000000e+00 -1.8064952e+06 
0.0000000e+00 0.0000000e+00 1.8064952e+06 
0.0000000e+00 0.0000000e+00 2.8033950e+06 
0.0000000e+00 0.0000000e+00 2.4846180e+06 
0.0000000e+00 0.0000000e+00 1.7532804e+06 
0.0000000e+00 0.0000000e+00 1.1688632e+06 
0.0000000e+00 0.0000000e+00 7.2444300e+05 
0.0000000e+00 0.0000000e+00 4.0784256e+05 
0.0000000e+00 0.0000000e+00 2.0156855e+05 
0.0000000e+00 0.0000000e+00 8.3146516e+04 
0.0000000e+00 0.0000000e+00 2.5879807e+04 
0.0000000e+00 0.0000000e+00 -5.2873388e+05 
CELL_DATA 20
FIELD FieldData 2
MOMENT 3 20  float
0.0000000e+00 0.0000000e+00 5.3304162e+05 
0.0000000e+00 0.0000000e+00 5.3234981e+05 
0.0000000e+00 0.0000000e+00 5.3099125e+05 
0.0000000e+00 0.0000000e+00 5.2901438e+05 
0.0000000e+00 0.0000000e+00 5.2648819e+05 
0.0000000e+00 0.0000000e+00 5.2349744e+05 
0.0000000e+00 0.0000000e+00 5.2013850e+05 
0.0000000e+00 0.0000000e+00 5.1651384e+05 
0.0000000e+00 0.0000000e+00 5.1272756e+05 
0.0000000e+00 0.0000000e+00 4.7884406e+05 
0.0000000e+00 0.0000000e+00 4.7884406e+05 
0.0000000e+00 0.0000000e+00 5.1272756e+05 
0.0000000e+00 0.0000000e+00 5.1651384e+05 
0.0000000e+00 0.0000000e+00 5.2013850e+05 
0.0000000e+00 0.0000000e+00 5.2349744e+05 
0.0000000e+00 0.0000000e+00 5.2648819e+05 
0.0000000e+00 0.0000000e+00 5.2901438e+05 
0.0000000e+00 0.0000000e+00 5.3099125e+05 
0.0000000e+00 0.0000000e+00 5.3234981e+05 
0.0000000e+00 0.0000000e+00 5.3304162e+05 
FORCE 3 20  float
1.7053131e+06 8.5913719e+04 0.0000000e+00 
3.2290075e+06 4.1538916e+05 0.0000000e+00 
6.2422885e+06 1.2056625e+06 0.0000000e+00 
1.0679031e+07 2.7250210e+06 0.0000000e+00 
1.6445029e+07 5.1885825e+06 0.0000000e+00 
2.3423332e+07 8.7463770e+06 0.0000000e+00 
3.1480412e+07 1.3478625e+07 0.0000000e+00 
4.0472568e+07 1.9397860e+07 0.0000000e+00 
5.0252060e+07 2.6456616e+07 0.0000000e+00 
4.9112152e+07 2.4410722e+07 0.0000000e+00 
4.9112152e+07 -2.4410722e+07 0.0000000e+00 
5.0252060e+07 -2.6456616e+07 0.0000000e+00 
4.0472568e+07 -1.9397860e+07 0.0000000e+00 
3.1480412e+07 -1.3478625e+07 0.0000000e+00 
2.3423332e+07 -8.7463770e+06 0.0000000e+00 
1.6445029e+07 -5.1885825e+06 0.0000000e+00 
1.0679031e+07 -2.7250210e+06 0.0000000e+00 
6.2422885e+06 -1.2056625e+06 0.0000000e+00 
3.2290075e+06 -4.1538916e+05 0.0000000e+00 
1.7053131e+06 -8.5913719e+04 0.0000000e+00 
