# vtk DataFile Version 4.0
vtk output
ASCII
DATASET UNSTRUCTURED_GRID
POINTS 212 float
0.0000000e+00 0.0000000e+00 0.0000000e+00 
0.0000000e+00 0.0000000e+00 2.5000000e-01 
0.0000000e+00 0.0000000e+00 5.0000000e-01 
0.0000000e+00 0.0000000e+00 7.5000000e-01 
0.0000000e+00 0.0000000e+00 1.0000000e+00 
0.0000000e+00 0.0000000e+00 1.2500000e+00 
0.0000000e+00 0.0000000e+00 1.5000000e+00 
0.0000000e+00 0.0000000e+00 1.7500000e+00 
0.0000000e+00 0.0000000e+00 2.0000000e+00 
0.0000000e+00 0.0000000e+00 2.2500000e+00 
0.0000000e+00 0.0000000e+00 2.5000000e+00 
0.0000000e+00 0.0000000e+00 2.7500000e+00 
0.0000000e+00 0.0000000e+00 3.0000000e+00 
0.0000000e+00 0.0000000e+00 3.2500000e+00 
0.0000000e+00 0.0000000e+00 3.5000000e+00 
0.0000000e+00 0.0000000e+00 3.7500000e+00 
0.0000000e+00 0.0000000e+00 4.0000000e+00 
0.0000000e+00 0.0000000e+00 4.2500000e+00 
0.0000000e+00 0.0000000e+00 4.5000000e+00 
0.0000000e+00 0.0000000e+00 4.7500000e+00 
0.0000000e+00 0.0000000e+00 5.0000000e+00 
0.0000000e+00 0.0000000e+00 5.2500000e+00 
0.0000000e+00 0.0000000e+00 5.5000000e+00 
0.0000000e+00 0.0000000e+00 5.7500000e+00 
0.0000000e+00 0.0000000e+00 6.0000000e+00 
0.0000000e+00 0.0000000e+00 6.2500000e+00 
0.0000000e+00 0.0000000e+00 6.5000000e+00 
0.0000000e+00 0.0000000e+00 6.7500000e+00 
0.0000000e+00 0.0000000e+00 7.0000000e+00 
0.0000000e+00 0.0000000e+00 7.2500000e+00 
0.0000000e+00 0.0000000e+00 7.5000000e+00 
0.0000000e+00 0.0000000e+00 7.7500000e+00 
0.0000000e+00 0.0000000e+00 8.0000000e+00 
0.0000000e+00 0.0000000e+00 8.2500000e+00 
0.0000000e+00 0.0000000e+00 8.5000000e+00 
0.0000000e+00 0.0000000e+00 8.7500000e+00 
0.0000000e+00 0.0000000e+00 9.0000000e+00 
0.0000000e+00 0.0000000e+00 9.2500000e+00 
0.0000000e+00 0.0000000e+00 9.5000000e+00 
0.0000000e+00 0.0000000e+00 9.7500000e+00 
0.0000000e+00 0.0000000e+00 1.0000000e+01 
0.0000000e+00 0.0000000e+00 1.0250000e+01 
0.0000000e+00 0.0000000e+00 1.0500000e+01 
0.0000000e+00 0.0000000e+00 1.0750000e+01 
0.0000000e+00 0.0000000e+00 1.1000000e+01 
0.0000000e+00 0.0000000e+00 1.1250000e+01 
0.0000000e+00 0.0000000e+00 1.1500000e+01 
0.0000000e+00 0.0000000e+00 1.1750000e+01 
0.0000000e+00 0.0000000e+00 1.2000000e+01 
0.0000000e+00 0.0000000e+00 1.2250000e+01 
0.0000000e+00 0.0000000e+00 1.2500000e+01 
0.0000000e+00 0.0000000e+00 1.2750000e+01 
0.0000000e+00 0.0000000e+00 1.3000000e+01 
0.0000000e+00 0.0000000e+00 1.3250000e+01 
0.0000000e+00 0.0000000e+00 1.3500000e+01 
0.0000000e+00 0.0000000e+00 1.3750000e+01 
0.0000000e+00 0.0000000e+00 1.4000000e+01 
0.0000000e+00 0.0000000e+00 1.4250000e+01 
0.0000000e+00 0.0000000e+00 1.4500000e+01 
0.0000000e+00 0.0000000e+00 1.4750000e+01 
0.0000000e+00 0.0000000e+00 1.5000000e+01 
0.0000000e+00 0.0000000e+00 1.5250000e+01 
0.0000000e+00 0.0000000e+00 1.5500000e+01 
0.0000000e+00 0.0000000e+00 1.5750000e+01 
0.0000000e+00 0.0000000e+00 1.6000000e+01 
0.0000000e+00 0.0000000e+00 1.6250000e+01 
0.0000000e+00 0.0000000e+00 1.6500000e+01 
0.0000000e+00 0.0000000e+00 1.6750000e+01 
0.0000000e+00 0.0000000e+00 1.7000000e+01 
0.0000000e+00 0.0000000e+00 1.7250000e+01 
0.0000000e+00 0.0000000e+00 1.7500000e+01 
0.0000000e+00 0.0000000e+00 1.7750000e+01 
0.0000000e+00 0.0000000e+00 1.8000000e+01 
5.0000000e-01 0.0000000e+00 3.0000000e+00 
5.0000000e-01 0.0000000e+00 6.0000000e+00 
5.0000000e-01 0.0000000e+00 9.0000000e+00 
5.0000000e-01 0.0000000e+00 1.2000000e+01 
5.0000000e-01 0.0000000e+00 1.5000000e+01 
5.0000000e-01 0.0000000e+00 1.8000000e+01 
1.0000000e+00 0.0000000e+00 3.0000000e+00 
1.0000000e+00 0.0000000e+00 6.0000000e+00 
1.0000000e+00 0.0000000e+00 9.0000000e+00 
1.0000000e+00 0.0000000e+00 1.2000000e+01 
1.0000000e+00 0.0000000e+00 1.5000000e+01 
1.0000000e+00 0.0000000e+00 1.8000000e+01 
1.5000000e+00 0.0000000e+00 3.0000000e+00 
1.5000000e+00 0.0000000e+00 6.0000000e+00 
1.5000000e+00 0.0000000e+00 9.0000000e+00 
1.5000000e+00 0.0000000e+00 1.2000000e+01 
1.5000000e+00 0.0000000e+00 1.5000000e+01 
1.5000000e+00 0.0000000e+00 1.8000000e+01 
2.0000000e+00 0.0000000e+00 3.0000000e+00 
2.0000000e+00 0.0000000e+00 6.0000000e+00 
2.0000000e+00 0.0000000e+00 9.0000000e+00 
2.0000000e+00 0.0000000e+00 1.2000000e+01 
2.0000000e+00 0.0000000e+00 1.5000000e+01 
2.0000000e+00 0.0000000e+00 1.8000000e+01 
2.5000000e+00 0.0000000e+00 3.0000000e+00 
2.5000000e+00 0.0000000e+00 6.0000000e+00 
2.5000000e+00 0.0000000e+00 9.0000000e+00 
2.5000000e+00 0.0000000e+00 1.2000000e+01 
2.5000000e+00 0.0000000e+00 1.5000000e+01 
2.5000000e+00 0.0000000e+00 1.8000000e+01 
3.0000000e+00 0.0000000e+00 3.0000000e+00 
3.0000000e+00 0.0000000e+00 6.0000000e+00 
3.0000000e+00 0.0000000e+00 9.0000000e+00 
3.0000000e+00 0.0000000e+00 1.2000000e+01 
3.0000000e+00 0.0000000e+00 1.5000000e+01 
3.0000000e+00 0.0000000e+00 1.8000000e+01 
3.5000000e+00 0.0000000e+00 3.0000000e+00 
3.5000000e+00 0.0000000e+00 6.0000000e+00 
3.5000000e+00 0.0000000e+00 9.0000000e+00 
3.5000000e+00 0.0000000e+00 1.2000000e+01 
3.5000000e+00 0.0000000e+00 1.5000000e+01 
3.5000000e+00 0.0000000e+00 1.8000000e+01 
4.0000000e+00 0.0000000e+00 3.0000000e+00 
4.0000000e+00 0.0000000e+00 6.0000000e+00 
4.0000000e+00 0.0000000e+00 9.0000000e+00 
4.0000000e+00 0.0000000e+00 1.2000000e+01 
4.0000000e+00 0.0000000e+00 1.5000000e+01 
4.0000000e+00 0.0000000e+00 1.8000000e+01 
4.5000000e+00 0.0000000e+00 3.0000000e+00 
4.5000000e+00 0.0000000e+00 6.0000000e+00 
4.5000000e+00 0.0000000e+00 9.0000000e+00 
4.5000000e+00 0.0000000e+00 1.2000000e+01 
4.5000000e+00 0.0000000e+00 1.5000000e+01 
4.5000000e+00 0.0000000e+00 1.8000000e+01 
5.0000000e+00 0.0000000e+00 3.0000000e+00 
5.0000000e+00 0.0000000e+00 6.0000000e+00 
5.0000000e+00 0.0000000e+00 9.0000000e+00 
5.0000000e+00 0.0000000e+00 1.2000000e+01 
5.0000000e+00 0.0000000e+00 1.5000000e+01 
5.0000000e+00 0.0000000e+00 1.8000000e+01 
5.5000000e+00 0.0000000e+00 3.0000000e+00 
5.5000000e+00 0.0000000e+00 6.0000000e+00 
5.5000000e+00 0.0000000e+00 9.0000000e+00 
5.5000000e+00 0.0000000e+00 1.2000000e+01 
5.5000000e+00 0.0000000e+00 1.5000000e+01 
5.5000000e+00 0.0000000e+00 1.8000000e+01 
6.0000000e+00 0.0000000e+00 0.0000000e+00 
6.0000000e+00 0.0000000e+00 2.5000000e-01 
6.0000000e+00 0.0000000e+00 5.0000000e-01 
6.0000000e+00 0.0000000e+00 7.5000000e-01 
6.0000000e+00 0.0000000e+00 1.0000000e+00 
6.0000000e+00 0.0000000e+00 1.2500000e+00 
6.0000000e+00 0.0000000e+00 1.5000000e+00 
6.0000000e+00 0.0000000e+00 1.7500000e+00 
6.0000000e+00 0.0000000e+00 2.0000000e+00 
6.0000000e+00 0.0000000e+00 2.2500000e+00 
6.0000000e+00 0.0000000e+00 2.5000000e+00 
6.0000000e+00 0.0000000e+00 2.7500000e+00 
6.0000000e+00 0.0000000e+00 3.0000000e+00 
6.0000000e+00 0.0000000e+00 3.2500000e+00 
6.0000000e+00 0.0000000e+00 3.5000000e+00 
6.0000000e+00 0.0000000e+00 3.7500000e+00 
6.0000000e+00 0.0000000e+00 4.0000000e+00 
6.0000000e+00 0.0000000e+00 4.2500000e+00 
6.0000000e+00 0.0000000e+00 4.5000000e+00 
6.0000000e+00 0.0000000e+00 4.7500000e+00 
6.0000000e+00 0.0000000e+00 5.0000000e+00 
6.0000000e+00 0.0000000e+00 5.2500000e+00 
6.0000000e+00 0.0000000e+00 5.5000000e+00 
6.0000000e+00 0.0000000e+00 5.7500000e+00 
6.0000000e+00 0.0000000e+00 6.0000000e+00 
6.0000000e+00 0.0000000e+00 6.2500000e+00 
6.0000000e+00 0.0000000e+00 6.5000000e+00 
6.0000000e+00 0.0000000e+00 6.7500000e+00 
6.0000000e+00 0.0000000e+00 7.0000000e+00 
6.0000000e+00 0.0000000e+00 7.2500000e+00 
6.0000000e+00 0.0000000e+00 7.5000000e+00 
6.0000000e+00 0.0000000e+00 7.7500000e+00 
6.0000000e+00 0.0000000e+00 8.0000000e+00 
6.0000000e+00 0.0000000e+00 8.2500000e+00 
6.0000000e+00 0.0000000e+00 8.5000000e+00 
6.0000000e+00 0.0000000e+00 8.7500000e+00 
6.0000000e+00 0.0000000e+00 9.0000000e+00 
6.0000000e+00 0.0000000e+00 9.2500000e+00 
6.0000000e+00 0.0000000e+00 9.5000000e+00 
6.0000000e+00 0.0000000e+00 9.7500000e+00 
6.0000000e+00 0.0000000e+00 1.0000000e+01 
6.0000000e+00 0.0000000e+00 1.0250000e+01 
6.0000000e+00 0.0000000e+00 1.0500000e+01 
6.0000000e+00 0.0000000e+00 1.0750000e+01 
6.0000000e+00 0.0000000e+00 1.1000000e+01 
6.0000000e+00 0.0000000e+00 1.1250000e+01 
6.0000000e+00 0.0000000e+00 1.1500000e+01 
6.0000000e+00 0.0000000e+00 1.1750000e+01 
6.0000000e+00 0.0000000e+00 1.2000000e+01 
6.0000000e+00 0.0000000e+00 1.2250000e+01 
6.0000000e+00 0.0000000e+00 1.2500000e+01 
6.0000000e+00 0.0000000e+00 1.2750000e+01 
6.0000000e+00 0.0000000e+00 1.3000000e+01 
6.0000000e+00 0.0000000e+00 1.3250000e+01 
6.0000000e+00 0.0000000e+00 1.3500000e+01 
6.0000000e+00 0.0000000e+00 1.3750000e+01 
6.0000000e+00 0.0000000e+00 1.4000000e+01 
6.0000000e+00 0.0000000e+00 1.4250000e+01 
6.0000000e+00 0.0000000e+00 1.4500000e+01 
6.0000000e+00 0.0000000e+00 1.4750000e+01 
6.0000000e+00 0.0000000e+00 1.5000000e+01 
6.0000000e+00 0.0000000e+00 1.5250000e+01 
6.0000000e+00 0.0000000e+00 1.5500000e+01 
6.0000000e+00 0.0000000e+00 1.5750000e+01 
6.0000000e+00 0.0000000e+00 1.6000000e+01 
6.0000000e+00 0.0000000e+00 1.6250000e+01 
6.0000000e+00 0.0000000e+00 1.6500000e+01 
6.0000000e+00 0.0000000e+00 1.6750000e+01 
6.0000000e+00 0.0000000e+00 1.7000000e+01 
6.0000000e+00 0.0000000e+00 1.7250000e+01 
6.0000000e+00 0.0000000e+00 1.7500000e+01 
6.0000000e+00 0.0000000e+00 1.7750000e+01 
6.0000000e+00 0.0000000e+00 1.8000000e+01 

CELLS 216 648
2 0 1
2 1 2
2 2 3
2 3 4
2 4 5
2 5 6
2 6 7
2 7 8
2 8 9
2 9 10
2 10 11
2 11 12
2 12 13
2 13 14
2 14 15
2 15 16
2 16 17
2 17 18
2 18 19
2 19 20
2 20 21
2 21 22
2 22 23
2 23 24
2 24 25
2 25 26
2 26 27
2 27 28
2 28 29
2 29 30
2 30 31
2 31 32
2 32 33
2 33 34
2 34 35
2 35 36
2 36 37
2 37 38
2 38 39
2 39 40
2 40 41
2 41 42
2 42 43
2 43 44
2 44 45
2 45 46
2 46 47
2 47 48
2 48 49
2 49 50
2 50 51
2 51 52
2 52 53
2 53 54
2 54 55
2 55 56
2 56 57
2 57 58
2 58 59
2 59 60
2 60 61
2 61 62
2 62 63
2 63 64
2 64 65
2 65 66
2 66 67
2 67 68
2 68 69
2 69 70
2 70 71
2 71 72
2 139 140
2 140 141
2 141 142
2 142 143
2 143 144
2 144 145
2 145 146
2 146 147
2 147 148
2 148 149
2 149 150
2 150 151
2 151 152
2 152 153
2 153 154
2 154 155
2 155 156
2 156 157
2 157 158
2 158 159
2 159 160
2 160 161
2 161 162
2 162 163
2 163 164
2 164 165
2 165 166
2 166 167
2 167 168
2 168 169
2 169 170
2 170 171
2 171 172
2 172 173
2 173 174
2 174 175
2 175 176
2 176 177
2 177 178
2 178 179
2 179 180
2 180 181
2 181 182
2 182 183
2 183 184
2 184 185
2 185 186
2 186 187
2 187 188
2 188 189
2 189 190
2 190 191
2 191 192
2 192 193
2 193 194
2 194 195
2 195 196
2 196 197
2 197 198
2 198 199
2 199 200
2 200 201
2 201 202
2 202 203
2 203 204
2 204 205
2 205 206
2 206 207
2 207 208
2 208 209
2 209 210
2 210 211
2 12 73
2 73 79
2 79 85
2 85 91
2 91 97
2 97 103
2 103 109
2 109 115
2 115 121
2 121 127
2 127 133
2 133 151
2 24 74
2 74 80
2 80 86
2 86 92
2 92 98
2 98 104
2 104 110
2 110 116
2 116 122
2 122 128
2 128 134
2 134 163
2 36 75
2 75 81
2 81 87
2 87 93
2 93 99
2 99 105
2 105 111
2 111 117
2 117 123
2 123 129
2 129 135
2 135 175
2 48 76
2 76 82
2 82 88
2 88 94
2 94 100
2 100 106
2 106 112
2 112 118
2 118 124
2 124 130
2 130 136
2 136 187
2 60 77
2 77 83
2 83 89
2 89 95
2 95 101
2 101 107
2 107 113
2 113 119
2 119 125
2 125 131
2 131 137
2 137 199
2 72 78
2 78 84
2 84 90
2 90 96
2 96 102
2 102 108
2 108 114
2 114 120
2 120 126
2 126 132
2 132 138
2 138 211

CELL_TYPES 216
3
3
3
3
3
3
3
3
3
3
3
3
3
3
3
3
3
3
3
3
3
3
3
3
3
3
3
3
3
3
3
3
3
3
3
3
3
3
3
3
3
3
3
3
3
3
3
3
3
3
3
3
3
3
3
3
3
3
3
3
3
3
3
3
3
3
3
3
3
3
3
3
3
3
3
3
3
3
3
3
3
3
3
3
3
3
3
3
3
3
3
3
3
3
3
3
3
3
3
3
3
3
3
3
3
3
3
3
3
3
3
3
3
3
3
3
3
3
3
3
3
3
3
3
3
3
3
3
3
3
3
3
3
3
3
3
3
3
3
3
3
3
3
3
3
3
3
3
3
3
3
3
3
3
3
3
3
3
3
3
3
3
3
3
3
3
3
3
3
3
3
3
3
3
3
3
3
3
3
3
3
3
3
3
3
3
3
3
3
3
3
3
3
3
3
3
3
3
3
3
3
3
3
3
3
3
3
3
3
3
3
3
3
3
3
3
POINT_DATA 212
FIELD FieldData 3
ADJOINT_DISPLACEMENT 3 212  float
0.0000000e+00 0.0000000e+00 0.0000000e+00 
-8.2424758e-03 0.0000000e+00 -7.4888083e-16 
-1.6830780e-02 0.0000000e+00 -1.4977617e-15 
-2.6110742e-02 0.0000000e+00 -2.2466427e-15 
-3.6428191e-02 0.0000000e+00 -2.9955233e-15 
-4.8128951e-02 0.0000000e+00 -3.7444044e-15 
-6.1558858e-02 0.0000000e+00 -4.4932853e-15 
-7.7063732e-02 0.0000000e+00 -5.2421658e-15 
-9.4989412e-02 0.0000000e+00 -5.9910467e-15 
-1.1568172e-01 0.0000000e+00 -6.7399276e-15 
-1.3948649e-01 0.0000000e+00 -7.4888089e-15 
-1.6674954e-01 0.0000000e+00 -8.2376893e-15 
-1.9781670e-01 0.0000000e+00 -8.9865706e-15 
-2.2800419e-01 0.0000000e+00 -2.4282951e-07 
-2.5275052e-01 0.0000000e+00 -4.8565903e-07 
-2.7258497e-01 0.0000000e+00 -7.2848849e-07 
-2.8803694e-01 0.0000000e+00 -9.7131806e-07 
-2.9963571e-01 0.0000000e+00 -1.2141475e-06 
-3.0791059e-01 0.0000000e+00 -1.4569770e-06 
-3.1339088e-01 0.0000000e+00 -1.6998065e-06 
-3.1660596e-01 0.0000000e+00 -1.9426361e-06 
-3.1808510e-01 0.0000000e+00 -2.1854655e-06 
-3.1835762e-01 0.0000000e+00 -2.4282949e-06 
-3.1795287e-01 0.0000000e+00 -2.6711245e-06 
-3.1740013e-01 0.0000000e+00 -2.9139539e-06 
-3.1738782e-01 0.0000000e+00 -2.9646346e-06 
-3.1816876e-01 0.0000000e+00 -3.0153153e-06 
-3.1961897e-01 0.0000000e+00 -3.0659960e-06 
-3.2161444e-01 0.0000000e+00 -3.1166767e-06 
-3.2403123e-01 0.0000000e+00 -3.1673574e-06 
-3.2674530e-01 0.0000000e+00 -3.2180380e-06 
-3.2963270e-01 0.0000000e+00 -3.2687187e-06 
-3.3256942e-01 0.0000000e+00 -3.3193994e-06 
-3.3543149e-01 0.0000000e+00 -3.3700801e-06 
-3.3809489e-01 0.0000000e+00 -3.4207608e-06 
-3.4043565e-01 0.0000000e+00 -3.4714415e-06 
-3.4232980e-01 0.0000000e+00 -3.5221221e-06 
-3.4380654e-01 0.0000000e+00 -3.5326989e-06 
-3.4499714e-01 0.0000000e+00 -3.5432756e-06 
-3.4593061e-01 0.0000000e+00 -3.5538521e-06 
-3.4663594e-01 0.0000000e+00 -3.5644289e-06 
-3.4714216e-01 0.0000000e+00 -3.5750056e-06 
-3.4747830e-01 0.0000000e+00 -3.5855824e-06 
-3.4767333e-01 0.0000000e+00 -3.5961591e-06 
-3.4775630e-01 0.0000000e+00 -3.6067358e-06 
-3.4775618e-01 0.0000000e+00 -3.6173126e-06 
-3.4770206e-01 0.0000000e+00 -3.6278891e-06 
-3.4762287e-01 0.0000000e+00 -3.6384658e-06 
-3.4754765e-01 0.0000000e+00 -3.6490426e-06 
-3.4750932e-01 0.0000000e+00 -3.6512461e-06 
-3.4751692e-01 0.0000000e+00 -3.6534495e-06 
-3.4756371e-01 0.0000000e+00 -3.6556530e-06 
-3.4764299e-01 0.0000000e+00 -3.6578565e-06 
-3.4774801e-01 0.0000000e+00 -3.6600600e-06 
-3.4787205e-01 0.0000000e+00 -3.6622635e-06 
-3.4800839e-01 0.0000000e+00 -3.6644667e-06 
-3.4815028e-01 0.0000000e+00 -3.6666702e-06 
-3.4829101e-01 0.0000000e+00 -3.6688737e-06 
-3.4842384e-01 0.0000000e+00 -3.6710771e-06 
-3.4854203e-01 0.0000000e+00 -3.6732806e-06 
-3.4863889e-01 0.0000000e+00 -3.6754841e-06 
-3.4871513e-01 0.0000000e+00 -3.6759247e-06 
-3.4877679e-01 0.0000000e+00 -3.6763654e-06 
-3.4882525e-01 0.0000000e+00 -3.6768060e-06 
-3.4886172e-01 0.0000000e+00 -3.6772469e-06 
-3.4888756e-01 0.0000000e+00 -3.6776876e-06 
-3.4890404e-01 0.0000000e+00 -3.6781282e-06 
-3.4891251e-01 0.0000000e+00 -3.6785689e-06 
-3.4891421e-01 0.0000000e+00 -3.6790095e-06 
-3.4891045e-01 0.0000000e+00 -3.6794502e-06 
-3.4890258e-01 0.0000000e+00 -3.6798908e-06 
-3.4889185e-01 0.0000000e+00 -3.6803317e-06 
-3.4887961e-01 0.0000000e+00 -3.6807724e-06 
-1.9781768e-01 0.0000000e+00 8.6289063e-02 
-3.1739664e-01 0.0000000e+00 -1.8796772e-03 
-3.4233060e-01 0.0000000e+00 2.7645188e-03 
-3.4754747e-01 0.0000000e+00 -1.6590464e-04 
-3.4863892e-01 0.0000000e+00 1.4061472e-04 
-3.4887961e-01 0.0000000e+00 -2.9138491e-05 
-1.9781867e-01 0.0000000e+00 2.1233512e-01 
-3.1739312e-01 0.0000000e+00 -5.3265812e-03 
-3.4233144e-01 0.0000000e+00 4.6304399e-03 
-3.4754726e-01 0.0000000e+00 -3.8184412e-04 
-3.4863898e-01 0.0000000e+00 2.4124605e-04 
-3.4887958e-01 0.0000000e+00 -5.4239852e-05 
-1.9781965e-01 0.0000000e+00 3.7741351e-01 
-3.1738964e-01 0.0000000e+00 -9.7701885e-03 
-3.4233224e-01 0.0000000e+00 5.7139252e-03 
-3.4754708e-01 0.0000000e+00 -6.2647887e-04 
-3.4863901e-01 0.0000000e+00 3.0347920e-04 
-3.4887958e-01 0.0000000e+00 -7.7669698e-05 
-1.9782063e-01 0.0000000e+00 5.8079952e-01 
-3.1738612e-01 0.0000000e+00 -1.4637060e-02 
-3.4233308e-01 0.0000000e+00 6.1346586e-03 
-3.4754691e-01 0.0000000e+00 -8.7482017e-04 
-3.4863907e-01 0.0000000e+00 3.3257488e-04 
-3.4887958e-01 0.0000000e+00 -9.8112876e-05 
-1.9782162e-01 0.0000000e+00 8.2176846e-01 
-3.1738263e-01 0.0000000e+00 -1.9353760e-02 
-3.4233388e-01 0.0000000e+00 6.0123238e-03 
-3.4754670e-01 0.0000000e+00 -1.1018794e-03 
-3.4863910e-01 0.0000000e+00 3.3379378e-04 
-3.4887958e-01 0.0000000e+00 -1.1425422e-04 
-1.9782260e-01 0.0000000e+00 5.9959573e-01 
-3.1737912e-01 0.0000000e+00 -2.3346853e-02 
-3.4233472e-01 0.0000000e+00 5.4666046e-03 
-3.4754652e-01 0.0000000e+00 -1.2826681e-03 
-3.4863916e-01 0.0000000e+00 3.1239662e-04 
-3.4887955e-01 0.0000000e+00 -1.2477858e-04 
-1.9782358e-01 0.0000000e+00 4.1355649e-01 
-3.1737563e-01 0.0000000e+00 -2.6042895e-02 
-3.4233552e-01 0.0000000e+00 4.6171853e-03 
-3.4754631e-01 0.0000000e+00 -1.3921973e-03 
-3.4863919e-01 0.0000000e+00 2.7364411e-04 
-3.4887955e-01 0.0000000e+00 -1.2837080e-04 
-1.9782457e-01 0.0000000e+00 2.6292616e-01 
-3.1737211e-01 0.0000000e+00 -2.6868453e-02 
-3.4233636e-01 0.0000000e+00 3.5837498e-03 
-3.4754613e-01 0.0000000e+00 -1.4054786e-03 
-3.4863925e-01 0.0000000e+00 2.2279689e-04 
-3.4887955e-01 0.0000000e+00 -1.2371571e-04 
-1.9782555e-01 0.0000000e+00 1.4698003e-01 
-3.1736863e-01 0.0000000e+00 -2.5250090e-02 
-3.4233716e-01 0.0000000e+00 2.4859817e-03 
-3.4754592e-01 0.0000000e+00 -1.2975233e-03 
-3.4863928e-01 0.0000000e+00 1.6511574e-04 
-3.4887955e-01 0.0000000e+00 -1.0949816e-04 
-1.9782653e-01 0.0000000e+00 6.4993426e-02 
-3.1736511e-01 0.0000000e+00 -2.0614365e-02 
-3.4233800e-01 0.0000000e+00 1.4435651e-03 
-3.4754574e-01 0.0000000e+00 -1.0433426e-03 
-3.4863931e-01 0.0000000e+00 1.0586131e-04 
-3.4887952e-01 0.0000000e+00 -8.4403007e-05 
-1.9782752e-01 0.0000000e+00 1.6241642e-02 
-3.1736159e-01 0.0000000e+00 -1.2387844e-02 
-3.4233880e-01 0.0000000e+00 5.7618401e-04 
-3.4754556e-01 0.0000000e+00 -6.1794807e-04 
-3.4863937e-01 0.0000000e+00 5.0294329e-05 
-3.4887952e-01 0.0000000e+00 -4.7115082e-05 
0.0000000e+00 0.0000000e+00 0.0000000e+00 
-2.4727959e-02 0.0000000e+00 7.4563389e-16 
-4.9110088e-02 0.0000000e+00 1.4912793e-15 
-7.2800562e-02 0.0000000e+00 2.2369155e-15 
-9.5453545e-02 0.0000000e+00 2.9825576e-15 
-1.1672322e-01 0.0000000e+00 3.7281804e-15 
-1.3626374e-01 0.0000000e+00 4.4738218e-15 
-1.5372930e-01 0.0000000e+00 5.2194594e-15 
-1.6877407e-01 0.0000000e+00 5.9651080e-15 
-1.8105219e-01 0.0000000e+00 6.7107185e-15 
-1.9021785e-01 0.0000000e+00 7.4563201e-15 
-1.9592524e-01 0.0000000e+00 8.2019056e-15 
-1.9782850e-01 0.0000000e+00 8.9474589e-15 
-1.9952443e-01 0.0000000e+00 2.4282951e-07 
-2.0448746e-01 0.0000000e+00 4.8565903e-07 
-2.1218826e-01 0.0000000e+00 7.2848849e-07 
-2.2209753e-01 0.0000000e+00 9.7131806e-07 
-2.3368596e-01 0.0000000e+00 1.2141475e-06 
-2.4642420e-01 0.0000000e+00 1.4569770e-06 
-2.5978294e-01 0.0000000e+00 1.6998065e-06 
-2.7323288e-01 0.0000000e+00 1.9426361e-06 
-2.8624466e-01 0.0000000e+00 2.1854655e-06 
-2.9828903e-01 0.0000000e+00 2.4282949e-06 
-3.0883661e-01 0.0000000e+00 2.6711245e-06 
-3.1735811e-01 0.0000000e+00 2.9139539e-06 
-3.2402527e-01 0.0000000e+00 2.9646346e-06 
-3.2944545e-01 0.0000000e+00 3.0153153e-06 
-3.3374262e-01 0.0000000e+00 3.0659960e-06 
-3.3704078e-01 0.0000000e+00 3.1166767e-06 
-3.3946389e-01 0.0000000e+00 3.1673574e-06 
-3.4113595e-01 0.0000000e+00 3.2180380e-06 
-3.4218094e-01 0.0000000e+00 3.2687187e-06 
-3.4272286e-01 0.0000000e+00 3.3193994e-06 
-3.4288570e-01 0.0000000e+00 3.3700801e-06 
-3.4279346e-01 0.0000000e+00 3.4207608e-06 
-3.4257010e-01 0.0000000e+00 3.4714415e-06 
-3.4233963e-01 0.0000000e+00 3.5221221e-06 
-3.4225234e-01 0.0000000e+00 3.5326989e-06 
-3.4235647e-01 0.0000000e+00 3.5432756e-06 
-3.4262308e-01 0.0000000e+00 3.5538521e-06 
-3.4302312e-01 0.0000000e+00 3.5644289e-06 
-3.4352756e-01 0.0000000e+00 3.5750056e-06 
-3.4410742e-01 0.0000000e+00 3.5855824e-06 
-3.4473369e-01 0.0000000e+00 3.5961591e-06 
-3.4537730e-01 0.0000000e+00 3.6067358e-06 
-3.4600928e-01 0.0000000e+00 3.6173126e-06 
-3.4660065e-01 0.0000000e+00 3.6278891e-06 
-3.4712234e-01 0.0000000e+00 3.6384658e-06 
-3.4754536e-01 0.0000000e+00 3.6490426e-06 
-3.4787431e-01 0.0000000e+00 3.6512461e-06 
-3.4813759e-01 0.0000000e+00 3.6534495e-06 
-3.4834194e-01 0.0000000e+00 3.6556530e-06 
-3.4849408e-01 0.0000000e+00 3.6578565e-06 
-3.4860078e-01 0.0000000e+00 3.6600600e-06 
-3.4866869e-01 0.0000000e+00 3.6622635e-06 
-3.4870461e-01 0.0000000e+00 3.6644667e-06 
-3.4871525e-01 0.0000000e+00 3.6666702e-06 
-3.4870729e-01 0.0000000e+00 3.6688737e-06 
-3.4868753e-01 0.0000000e+00 3.6710771e-06 
-3.4866264e-01 0.0000000e+00 3.6732806e-06 
-3.4863940e-01 0.0000000e+00 3.6754841e-06 
-3.4862494e-01 0.0000000e+00 3.6759247e-06 
-3.4862110e-01 0.0000000e+00 3.6763654e-06 
-3.4862652e-01 0.0000000e+00 3.6768060e-06 
-3.4863999e-01 0.0000000e+00 3.6772469e-06 
-3.4866014e-01 0.0000000e+00 3.6776876e-06 
-3.4868568e-01 0.0000000e+00 3.6781282e-06 
-3.4871534e-01 0.0000000e+00 3.6785689e-06 
-3.4874776e-01 0.0000000e+00 3.6790095e-06 
-3.4878170e-01 0.0000000e+00 3.6794502e-06 
-3.4881586e-01 0.0000000e+00 3.6798908e-06 
-3.4884888e-01 0.0000000e+00 3.6803317e-06 
-3.4887952e-01 0.0000000e+00 3.6807724e-06 
ADJOINT_ROTATION 3 212  float
0.0000000e+00 -3.2739349e-02 0.0000000e+00 
0.0000000e+00 -3.3431008e-02 0.0000000e+00 
0.0000000e+00 -3.5505980e-02 0.0000000e+00 
0.0000000e+00 -3.8964268e-02 0.0000000e+00 
0.0000000e+00 -4.3805867e-02 0.0000000e+00 
0.0000000e+00 -5.0030783e-02 0.0000000e+00 
0.0000000e+00 -5.7639014e-02 0.0000000e+00 
0.0000000e+00 -6.6630557e-02 0.0000000e+00 
0.0000000e+00 -7.7005416e-02 0.0000000e+00 
0.0000000e+00 -8.8763595e-02 0.0000000e+00 
0.0000000e+00 -1.0190508e-01 0.0000000e+00 
0.0000000e+00 -1.1642989e-01 0.0000000e+00 
0.0000000e+00 -1.3233800e-01 0.0000000e+00 
0.0000000e+00 -1.0951473e-01 0.0000000e+00 
0.0000000e+00 -8.8808730e-02 0.0000000e+00 
0.0000000e+00 -7.0220001e-02 0.0000000e+00 
0.0000000e+00 -5.3748555e-02 0.0000000e+00 
0.0000000e+00 -3.9394386e-02 0.0000000e+00 
0.0000000e+00 -2.7157489e-02 0.0000000e+00 
0.0000000e+00 -1.7037868e-02 0.0000000e+00 
0.0000000e+00 -9.0355249e-03 0.0000000e+00 
0.0000000e+00 -3.1504561e-03 0.0000000e+00 
0.0000000e+00 6.1733637e-04 0.0000000e+00 
0.0000000e+00 2.2678531e-03 0.0000000e+00 
0.0000000e+00 1.8010939e-03 0.0000000e+00 
0.0000000e+00 -1.6199050e-03 0.0000000e+00 
0.0000000e+00 -4.5449510e-03 0.0000000e+00 
0.0000000e+00 -6.9740438e-03 0.0000000e+00 
0.0000000e+00 -8.9071831e-03 0.0000000e+00 
0.0000000e+00 -1.0344370e-02 0.0000000e+00 
0.0000000e+00 -1.1285604e-02 0.0000000e+00 
0.0000000e+00 -1.1730884e-02 0.0000000e+00 
0.0000000e+00 -1.1680212e-02 0.0000000e+00 
0.0000000e+00 -1.1133586e-02 0.0000000e+00 
0.0000000e+00 -1.0091008e-02 0.0000000e+00 
0.0000000e+00 -8.5524758e-03 0.0000000e+00 
0.0000000e+00 -6.5179910e-03 0.0000000e+00 
0.0000000e+00 -5.3153597e-03 0.0000000e+00 
0.0000000e+00 -4.2287800e-03 0.0000000e+00 
0.0000000e+00 -3.2582518e-03 0.0000000e+00 
0.0000000e+00 -2.4037757e-03 0.0000000e+00 
0.0000000e+00 -1.6653513e-03 0.0000000e+00 
0.0000000e+00 -1.0429788e-03 0.0000000e+00 
0.0000000e+00 -5.3665816e-04 0.0000000e+00 
0.0000000e+00 -1.4638925e-04 0.0000000e+00 
0.0000000e+00 1.2782784e-04 0.0000000e+00 
0.0000000e+00 2.8599310e-04 0.0000000e+00 
0.0000000e+00 3.2810657e-04 0.0000000e+00 
0.0000000e+00 2.5416820e-04 0.0000000e+00 
0.0000000e+00 5.6987861e-05 0.0000000e+00 
0.0000000e+00 -1.1327962e-04 0.0000000e+00 
0.0000000e+00 -2.5663423e-04 0.0000000e+00 
0.0000000e+00 -3.7307595e-04 0.0000000e+00 
0.0000000e+00 -4.6260483e-04 0.0000000e+00 
0.0000000e+00 -5.2522082e-04 0.0000000e+00 
0.0000000e+00 -5.6092395e-04 0.0000000e+00 
0.0000000e+00 -5.6971418e-04 0.0000000e+00 
0.0000000e+00 -5.5159157e-04 0.0000000e+00 
0.0000000e+00 -5.0655601e-04 0.0000000e+00 
0.0000000e+00 -4.3460767e-04 0.0000000e+00 
0.0000000e+00 -3.3574642e-04 0.0000000e+00 
0.0000000e+00 -2.7494994e-04 0.0000000e+00 
0.0000000e+00 -2.1935675e-04 0.0000000e+00 
0.0000000e+00 -1.6896683e-04 0.0000000e+00 
0.0000000e+00 -1.2378019e-04 0.0000000e+00 
0.0000000e+00 -8.3796825e-05 0.0000000e+00 
0.0000000e+00 -4.9016733e-05 0.0000000e+00 
0.0000000e+00 -1.9439916e-05 0.0000000e+00 
0.0000000e+00 4.9336236e-06 0.0000000e+00 
0.0000000e+00 2.4103887e-05 0.0000000e+00 
0.0000000e+00 3.8070877e-05 0.0000000e+00 
0.0000000e+00 4.6834590e-05 0.0000000e+00 
0.0000000e+00 5.0395025e-05 0.0000000e+00 
0.0000000e+00 -2.1257669e-01 0.0000000e+00 
0.0000000e+00 5.5148131e-03 0.0000000e+00 
0.0000000e+00 -4.5940676e-03 0.0000000e+00 
0.0000000e+00 3.8652463e-04 0.0000000e+00 
0.0000000e+00 -2.4316796e-04 0.0000000e+00 
0.0000000e+00 5.0997467e-05 0.0000000e+00 
0.0000000e+00 -2.9136601e-01 0.0000000e+00 
0.0000000e+00 8.0816569e-03 0.0000000e+00 
0.0000000e+00 -2.9095118e-03 0.0000000e+00 
0.0000000e+00 4.6890377e-04 0.0000000e+00 
0.0000000e+00 -1.6111092e-04 0.0000000e+00 
0.0000000e+00 4.8969592e-05 0.0000000e+00 
0.0000000e+00 -3.6870596e-01 0.0000000e+00 
0.0000000e+00 9.5016258e-03 0.0000000e+00 
0.0000000e+00 -1.4643238e-03 0.0000000e+00 
0.0000000e+00 5.0130562e-04 0.0000000e+00 
0.0000000e+00 -8.9575267e-05 0.0000000e+00 
0.0000000e+00 4.4311408e-05 0.0000000e+00 
0.0000000e+00 -4.4459653e-01 0.0000000e+00 
0.0000000e+00 9.7747194e-03 0.0000000e+00 
0.0000000e+00 -2.5850377e-04 0.0000000e+00 
0.0000000e+00 4.8373014e-04 0.0000000e+00 
0.0000000e+00 -2.8561020e-05 0.0000000e+00 
0.0000000e+00 3.7022906e-05 0.0000000e+00 
0.0000000e+00 -5.1903772e-01 0.0000000e+00 
0.0000000e+00 8.9009367e-03 0.0000000e+00 
0.0000000e+00 7.0794852e-04 0.0000000e+00 
0.0000000e+00 4.1617741e-04 0.0000000e+00 
0.0000000e+00 2.1931819e-05 0.0000000e+00 
0.0000000e+00 2.7104090e-05 0.0000000e+00 
0.0000000e+00 4.0797043e-01 0.0000000e+00 
0.0000000e+00 6.8802801e-03 0.0000000e+00 
0.0000000e+00 1.4350329e-03 0.0000000e+00 
0.0000000e+00 2.9864738e-04 0.0000000e+00 
0.0000000e+00 6.1903258e-05 0.0000000e+00 
0.0000000e+00 1.4554960e-05 0.0000000e+00 
0.0000000e+00 3.3642799e-01 0.0000000e+00 
0.0000000e+00 3.7127477e-03 0.0000000e+00 
0.0000000e+00 1.9227496e-03 0.0000000e+00 
0.0000000e+00 1.3114007e-04 0.0000000e+00 
0.0000000e+00 9.1353293e-05 0.0000000e+00 
0.0000000e+00 -6.2448328e-07 0.0000000e+00 
0.0000000e+00 2.6633489e-01 0.0000000e+00 
0.0000000e+00 -6.0165970e-04 0.0000000e+00 
0.0000000e+00 2.1710983e-03 0.0000000e+00 
0.0000000e+00 -8.6344538e-05 0.0000000e+00 
0.0000000e+00 1.1028192e-04 0.0000000e+00 
0.0000000e+00 -1.8434241e-05 0.0000000e+00 
0.0000000e+00 1.9769117e-01 0.0000000e+00 
0.0000000e+00 -6.0629426e-03 0.0000000e+00 
0.0000000e+00 2.1800792e-03 0.0000000e+00 
0.0000000e+00 -3.5380642e-04 0.0000000e+00 
0.0000000e+00 1.1868915e-04 0.0000000e+00 
0.0000000e+00 -3.8874314e-05 0.0000000e+00 
0.0000000e+00 1.3049683e-01 0.0000000e+00 
0.0000000e+00 -1.2671101e-02 0.0000000e+00 
0.0000000e+00 1.9496924e-03 0.0000000e+00 
0.0000000e+00 -6.7124562e-04 0.0000000e+00 
0.0000000e+00 1.1657498e-04 0.0000000e+00 
0.0000000e+00 -6.1944695e-05 0.0000000e+00 
0.0000000e+00 6.4751863e-02 0.0000000e+00 
0.0000000e+00 -2.0426134e-02 0.0000000e+00 
0.0000000e+00 1.4799377e-03 0.0000000e+00 
0.0000000e+00 -1.0386620e-03 0.0000000e+00 
0.0000000e+00 1.0393940e-04 0.0000000e+00 
0.0000000e+00 -8.7645400e-05 0.0000000e+00 
0.0000000e+00 -9.9142388e-02 0.0000000e+00 
0.0000000e+00 -9.8450728e-02 0.0000000e+00 
0.0000000e+00 -9.6375756e-02 0.0000000e+00 
0.0000000e+00 -9.2917472e-02 0.0000000e+00 
0.0000000e+00 -8.8075869e-02 0.0000000e+00 
0.0000000e+00 -8.1850953e-02 0.0000000e+00 
0.0000000e+00 -7.4242726e-02 0.0000000e+00 
0.0000000e+00 -6.5251179e-02 0.0000000e+00 
0.0000000e+00 -5.4876320e-02 0.0000000e+00 
0.0000000e+00 -4.3118145e-02 0.0000000e+00 
0.0000000e+00 -2.9976657e-02 0.0000000e+00 
0.0000000e+00 -1.5451853e-02 0.0000000e+00 
0.0000000e+00 4.5626514e-04 0.0000000e+00 
0.0000000e+00 -1.3670778e-02 0.0000000e+00 
0.0000000e+00 -2.5680544e-02 0.0000000e+00 
0.0000000e+00 -3.5573035e-02 0.0000000e+00 
0.0000000e+00 -4.3348249e-02 0.0000000e+00 
0.0000000e+00 -4.9006190e-02 0.0000000e+00 
0.0000000e+00 -5.2546855e-02 0.0000000e+00 
0.0000000e+00 -5.3970240e-02 0.0000000e+00 
0.0000000e+00 -5.3276353e-02 0.0000000e+00 
0.0000000e+00 -5.0465189e-02 0.0000000e+00 
0.0000000e+00 -4.5536749e-02 0.0000000e+00 
0.0000000e+00 -3.8491033e-02 0.0000000e+00 
0.0000000e+00 -2.9328043e-02 0.0000000e+00 
0.0000000e+00 -2.4092061e-02 0.0000000e+00 
0.0000000e+00 -1.9352036e-02 0.0000000e+00 
0.0000000e+00 -1.5107961e-02 0.0000000e+00 
0.0000000e+00 -1.1359841e-02 0.0000000e+00 
0.0000000e+00 -8.1076734e-03 0.0000000e+00 
0.0000000e+00 -5.3514587e-03 0.0000000e+00 
0.0000000e+00 -3.0911970e-03 0.0000000e+00 
0.0000000e+00 -1.3268883e-03 0.0000000e+00 
0.0000000e+00 -5.8532914e-05 0.0000000e+00 
0.0000000e+00 7.1386952e-04 0.0000000e+00 
0.0000000e+00 9.9031883e-04 0.0000000e+00 
0.0000000e+00 7.7081512e-04 0.0000000e+00 
0.0000000e+00 -5.3042404e-05 0.0000000e+00 
0.0000000e+00 -7.6084817e-04 0.0000000e+00 
0.0000000e+00 -1.3526020e-03 0.0000000e+00 
0.0000000e+00 -1.8283041e-03 0.0000000e+00 
0.0000000e+00 -2.1879545e-03 0.0000000e+00 
0.0000000e+00 -2.4315531e-03 0.0000000e+00 
0.0000000e+00 -2.5590996e-03 0.0000000e+00 
0.0000000e+00 -2.5705944e-03 0.0000000e+00 
0.0000000e+00 -2.4660376e-03 0.0000000e+00 
0.0000000e+00 -2.2454287e-03 0.0000000e+00 
0.0000000e+00 -1.9087682e-03 0.0000000e+00 
0.0000000e+00 -1.4560558e-03 0.0000000e+00 
0.0000000e+00 -1.1799652e-03 0.0000000e+00 
0.0000000e+00 -9.3078741e-04 0.0000000e+00 
0.0000000e+00 -7.0852251e-04 0.0000000e+00 
0.0000000e+00 -5.1317044e-04 0.0000000e+00 
0.0000000e+00 -3.4473129e-04 0.0000000e+00 
0.0000000e+00 -2.0320500e-04 0.0000000e+00 
0.0000000e+00 -8.8591587e-05 0.0000000e+00 
0.0000000e+00 -8.9103787e-07 0.0000000e+00 
0.0000000e+00 5.9896636e-05 0.0000000e+00 
0.0000000e+00 9.3771436e-05 0.0000000e+00 
0.0000000e+00 1.0073336e-04 0.0000000e+00 
0.0000000e+00 8.0782418e-05 0.0000000e+00 
0.0000000e+00 3.5767833e-05 0.0000000e+00 
0.0000000e+00 -4.0434775e-06 0.0000000e+00 