# vtk DataFile Version 4.0
vtk output
ASCII
DATASET UNSTRUCTURED_GRID
POINTS 61 float
0.0000000e+00 0.0000000e+00 0.0000000e+00 
0.0000000e+00 2.0000000e-01 0.0000000e+00 
0.0000000e+00 4.0000001e-01 0.0000000e+00 
0.0000000e+00 6.0000002e-01 0.0000000e+00 
0.0000000e+00 8.0000001e-01 0.0000000e+00 
0.0000000e+00 1.0000000e+00 0.0000000e+00 
0.0000000e+00 1.2000000e+00 0.0000000e+00 
0.0000000e+00 1.4000000e+00 0.0000000e+00 
0.0000000e+00 1.6000000e+00 0.0000000e+00 
0.0000000e+00 1.8000000e+00 0.0000000e+00 
0.0000000e+00 2.0000000e+00 0.0000000e+00 
0.0000000e+00 2.2000000e+00 0.0000000e+00 
0.0000000e+00 2.4000001e+00 0.0000000e+00 
0.0000000e+00 2.5999999e+00 0.0000000e+00 
0.0000000e+00 2.8000000e+00 0.0000000e+00 
0.0000000e+00 3.0000000e+00 0.0000000e+00 
0.0000000e+00 3.2000000e+00 0.0000000e+00 
0.0000000e+00 3.4000001e+00 0.0000000e+00 
0.0000000e+00 3.5999999e+00 0.0000000e+00 
0.0000000e+00 3.8000000e+00 0.0000000e+00 
0.0000000e+00 4.0000000e+00 0.0000000e+00 
2.0000000e-01 4.0000000e+00 0.0000000e+00 
4.0000001e-01 4.0000000e+00 0.0000000e+00 
6.0000002e-01 4.0000000e+00 0.0000000e+00 
8.0000001e-01 4.0000000e+00 0.0000000e+00 
1.0000000e+00 4.0000000e+00 0.0000000e+00 
1.0000000e+00 4.0000000e+00 0.0000000e+00 
1.2000000e+00 4.0000000e+00 0.0000000e+00 
1.4000000e+00 4.0000000e+00 0.0000000e+00 
1.6000000e+00 4.0000000e+00 0.0000000e+00 
1.8000000e+00 4.0000000e+00 0.0000000e+00 
2.0000000e+00 4.0000000e+00 0.0000000e+00 
2.0000000e+00 3.8000000e+00 0.0000000e+00 
2.0000000e+00 3.5999999e+00 0.0000000e+00 
2.0000000e+00 3.4000001e+00 0.0000000e+00 
2.0000000e+00 3.2000000e+00 0.0000000e+00 
2.0000000e+00 3.0000000e+00 0.0000000e+00 
2.0000000e+00 2.8000000e+00 0.0000000e+00 
2.0000000e+00 2.5999999e+00 0.0000000e+00 
2.0000000e+00 2.4000001e+00 0.0000000e+00 
2.0000000e+00 2.2000000e+00 0.0000000e+00 
2.0000000e+00 2.0000000e+00 0.0000000e+00 
2.0000000e+00 1.8000000e+00 0.0000000e+00 
2.0000000e+00 1.6000000e+00 0.0000000e+00 
2.0000000e+00 1.4000000e+00 0.0000000e+00 
2.0000000e+00 1.2000000e+00 0.0000000e+00 
2.0000000e+00 1.0000000e+00 0.0000000e+00 
2.0000000e+00 8.0000001e-01 0.0000000e+00 
2.0000000e+00 6.0000002e-01 0.0000000e+00 
2.0000000e+00 4.0000001e-01 0.0000000e+00 
2.0000000e+00 2.0000000e-01 0.0000000e+00 
2.0000000e+00 0.0000000e+00 0.0000000e+00 
2.0000000e-01 2.0000000e+00 0.0000000e+00 
4.0000001e-01 2.0000000e+00 0.0000000e+00 
6.0000002e-01 2.0000000e+00 0.0000000e+00 
8.0000001e-01 2.0000000e+00 0.0000000e+00 
1.0000000e+00 2.0000000e+00 0.0000000e+00 
1.2000000e+00 2.0000000e+00 0.0000000e+00 
1.4000000e+00 2.0000000e+00 0.0000000e+00 
1.6000000e+00 2.0000000e+00 0.0000000e+00 
1.8000000e+00 2.0000000e+00 0.0000000e+00 

CELLS 60 180
2 0 1
2 1 2
2 2 3
2 3 4
2 4 5
2 5 6
2 6 7
2 7 8
2 8 9
2 9 10
2 10 11
2 11 12
2 12 13
2 13 14
2 14 15
2 15 16
2 16 17
2 17 18
2 18 19
2 19 20
2 20 21
2 21 22
2 22 23
2 23 24
2 24 25
2 26 27
2 27 28
2 28 29
2 29 30
2 30 31
2 31 32
2 32 33
2 33 34
2 34 35
2 35 36
2 36 37
2 37 38
2 38 39
2 39 40
2 40 41
2 41 42
2 42 43
2 43 44
2 44 45
2 45 46
2 46 47
2 47 48
2 48 49
2 49 50
2 50 51
2 10 52
2 52 53
2 53 54
2 54 55
2 55 56
2 56 57
2 57 58
2 58 59
2 59 60
2 60 41

CELL_TYPES 60
3
3
3
3
3
3
3
3
3
3
3
3
3
3
3
3
3
3
3
3
3
3
3
3
3
3
3
3
3
3
3
3
3
3
3
3
3
3
3
3
3
3
3
3
3
3
3
3
3
3
3
3
3
3
3
3
3
3
3
3
POINT_DATA 61
FIELD FieldData 4
DISPLACEMENT 3 61  float
0.0000000e+00 0.0000000e+00 0.0000000e+00 
6.2472041e-04 2.8126087e-18 0.0000000e+00 
2.2191650e-03 5.5655636e-18 0.0000000e+00 
4.3637590e-03 8.3079241e-18 0.0000000e+00 
6.6389274e-03 1.1022692e-17 0.0000000e+00 
8.6250957e-03 1.4083250e-17 0.0000000e+00 
9.9026877e-03 1.7187197e-17 0.0000000e+00 
1.0052131e-02 2.2238784e-17 0.0000000e+00 
8.6538475e-03 2.7181456e-17 0.0000000e+00 
5.2882652e-03 3.5831711e-17 0.0000000e+00 
-4.6419210e-04 4.2028888e-17 0.0000000e+00 
-9.3764132e-03 3.8883061e-17 0.0000000e+00 
-2.0800238e-02 3.5891172e-17 0.0000000e+00 
-3.3023674e-02 3.2948119e-17 0.0000000e+00 
-4.4334725e-02 2.9937390e-17 0.0000000e+00 
-5.3021394e-02 2.6728666e-17 0.0000000e+00 
-5.7371691e-02 2.3344925e-17 0.0000000e+00 
-5.5673614e-02 1.9620517e-17 0.0000000e+00 
-4.6215173e-02 1.6023759e-17 0.0000000e+00 
-2.7284369e-02 1.2993059e-17 0.0000000e+00 
2.8307915e-03 9.5530518e-18 0.0000000e+00 
2.7562273e-03 -4.2726178e-02 0.0000000e+00 
2.6816630e-03 -9.8348707e-02 0.0000000e+00 
2.6070988e-03 -1.6686758e-01 0.0000000e+00 
2.5325345e-03 -2.4828282e-01 0.0000000e+00 
2.3747412e-14 -3.4234115e-01 0.0000000e+00 
2.3747412e-14 -3.4234115e-01 0.0000000e+00 
-2.5325345e-03 -2.4828282e-01 0.0000000e+00 
-2.6070988e-03 -1.6686758e-01 0.0000000e+00 
-2.6816630e-03 -9.8348707e-02 0.0000000e+00 
-2.7562273e-03 -4.2726178e-02 0.0000000e+00 
-2.8307915e-03 -3.1631882e-16 0.0000000e+00 
2.7284369e-02 -3.1177348e-16 0.0000000e+00 
4.6215173e-02 -3.0255427e-16 0.0000000e+00 
5.5673614e-02 -2.9146351e-16 0.0000000e+00 
5.7371691e-02 -2.7819654e-16 0.0000000e+00 
5.3021394e-02 -2.6404579e-16 0.0000000e+00 
4.4334725e-02 -2.4921110e-16 0.0000000e+00 
3.3023674e-02 -2.3381331e-16 0.0000000e+00 
2.0800238e-02 -2.1826144e-16 0.0000000e+00 
9.3764132e-03 -2.0284222e-16 0.0000000e+00 
4.6419210e-04 -1.8788158e-16 0.0000000e+00 
-5.2882652e-03 -1.6809072e-16 0.0000000e+00 
-8.6538475e-03 -1.4871548e-16 0.0000000e+00 
-1.0052131e-02 -1.2968487e-16 0.0000000e+00 
-9.9026877e-03 -1.1092267e-16 0.0000000e+00 
-8.6250957e-03 -9.2368308e-17 0.0000000e+00 
-6.6389274e-03 -7.3943084e-17 0.0000000e+00 
-4.3637590e-03 -5.5570530e-17 0.0000000e+00 
-2.2191650e-03 -3.7173993e-17 0.0000000e+00 
-6.2472041e-04 -1.8676064e-17 0.0000000e+00 
0.0000000e+00 0.0000000e+00 0.0000000e+00 
-3.7135367e-04 6.3771778e-03 0.0000000e+00 
-2.7851525e-04 1.1337205e-02 0.0000000e+00 
-1.8567684e-04 1.4880082e-02 0.0000000e+00 
-9.2838418e-05 1.7005807e-02 0.0000000e+00 
1.6361270e-14 1.7714383e-02 0.0000000e+00 
9.2838418e-05 1.7005807e-02 0.0000000e+00 
1.8567684e-04 1.4880082e-02 0.0000000e+00 
2.7851525e-04 1.1337205e-02 0.0000000e+00 
3.7135367e-04 6.3771778e-03 0.0000000e+00 
ROTATION 3 61  float
0.0000000e+00 0.0000000e+00 0.0000000e+00 
0.0000000e+00 0.0000000e+00 -5.8975583e-03 
0.0000000e+00 0.0000000e+00 -9.6972417e-03 
0.0000000e+00 0.0000000e+00 -1.1399051e-02 
0.0000000e+00 0.0000000e+00 -1.1002987e-02 
0.0000000e+00 0.0000000e+00 -8.5090473e-03 
0.0000000e+00 0.0000000e+00 -3.9172336e-03 
0.0000000e+00 0.0000000e+00 2.7724546e-03 
0.0000000e+00 0.0000000e+00 1.1560017e-02 
0.0000000e+00 0.0000000e+00 2.2445453e-02 
0.0000000e+00 0.0000000e+00 3.5428766e-02 
0.0000000e+00 0.0000000e+00 5.2266780e-02 
0.0000000e+00 0.0000000e+00 6.0544815e-02 
0.0000000e+00 0.0000000e+00 6.0262877e-02 
0.0000000e+00 0.0000000e+00 5.1420964e-02 
0.0000000e+00 0.0000000e+00 3.4019075e-02 
0.0000000e+00 0.0000000e+00 8.0572087e-03 
0.0000000e+00 0.0000000e+00 -2.6464634e-02 
0.0000000e+00 0.0000000e+00 -6.9546454e-02 
0.0000000e+00 0.0000000e+00 -1.2118825e-01 
0.0000000e+00 0.0000000e+00 -1.8139002e-01 
0.0000000e+00 0.0000000e+00 -2.4587177e-01 
0.0000000e+00 0.0000000e+00 -3.1035352e-01 
0.0000000e+00 0.0000000e+00 -3.7483528e-01 
0.0000000e+00 0.0000000e+00 -4.3931705e-01 
0.0000000e+00 0.0000000e+00 -5.0000000e-01 
0.0000000e+00 0.0000000e+00 5.0000000e-01 
0.0000000e+00 0.0000000e+00 4.3931705e-01 
0.0000000e+00 0.0000000e+00 3.7483528e-01 
0.0000000e+00 0.0000000e+00 3.1035352e-01 
0.0000000e+00 0.0000000e+00 2.4587177e-01 
0.0000000e+00 0.0000000e+00 1.8139002e-01 
0.0000000e+00 0.0000000e+00 1.2118825e-01 
0.0000000e+00 0.0000000e+00 6.9546454e-02 
0.0000000e+00 0.0000000e+00 2.6464634e-02 
0.0000000e+00 0.0000000e+00 -8.0572087e-03 
0.0000000e+00 0.0000000e+00 -3.4019075e-02 
0.0000000e+00 0.0000000e+00 -5.1420964e-02 
0.0000000e+00 0.0000000e+00 -6.0262877e-02 
0.0000000e+00 0.0000000e+00 -6.0544815e-02 
0.0000000e+00 0.0000000e+00 -5.2266780e-02 
0.0000000e+00 0.0000000e+00 -3.5428766e-02 
0.0000000e+00 0.0000000e+00 -2.2445453e-02 
0.0000000e+00 0.0000000e+00 -1.1560017e-02 
0.0000000e+00 0.0000000e+00 -2.7724546e-03 
0.0000000e+00 0.0000000e+00 3.9172336e-03 
0.0000000e+00 0.0000000e+00 8.5090473e-03 
0.0000000e+00 0.0000000e+00 1.1002987e-02 
0.0000000e+00 0.0000000e+00 1.1399051e-02 
0.0000000e+00 0.0000000e+00 9.6972417e-03 
0.0000000e+00 0.0000000e+00 5.8975583e-03 
0.0000000e+00 0.0000000e+00 0.0000000e+00 
0.0000000e+00 0.0000000e+00 2.8343013e-02 
0.0000000e+00 0.0000000e+00 2.1257259e-02 
0.0000000e+00 0.0000000e+00 1.4171506e-02 
0.0000000e+00 0.0000000e+00 7.0857531e-03 
0.0000000e+00 0.0000000e+00 3.0748429e-15 
0.0000000e+00 0.0000000e+00 -7.0857531e-03 
0.0000000e+00 0.0000000e+00 -1.4171506e-02 
0.0000000e+00 0.0000000e+00 -2.1257259e-02 
0.0000000e+00 0.0000000e+00 -2.8343013e-02 
REACTION 3 61  float
-5.5074484e+04 -2.7682007e+03 0.0000000e+00 
-8.9621132e+01 -1.5944418e+04 0.0000000e+00 
-1.3887735e+02 -1.5343223e+04 0.0000000e+00 
-4.5918068e+01 -4.3108940e+03 0.0000000e+00 
9.4516739e+01 9.1965771e+03 0.0000000e+00 
1.3694110e+02 1.7225461e+04 0.0000000e+00 
4.8197922e+01 1.1817594e+04 0.0000000e+00 
7.0661659e+01 -1.4987179e+04 0.0000000e+00 
8.8521063e+02 -7.1126180e+04 0.0000000e+00 
3.7722407e+03 -1.6445348e+05 0.0000000e+00 
-2.9352325e+05 -3.4724397e+05 0.0000000e+00 
1.8768111e+04 -3.8018656e+05 0.0000000e+00 
8.0531387e+03 -1.4067141e+05 0.0000000e+00 
-9.1022822e+03 1.5975023e+05 0.0000000e+00 
-1.8972207e+04 3.9065684e+05 0.0000000e+00 
-1.3626550e+04 4.2015128e+05 0.0000000e+00 
-2.0221377e+03 1.1400190e+05 0.0000000e+00 
-2.1241080e+04 -6.5959469e+05 0.0000000e+00 
-1.4640436e+05 -2.0160524e+06 0.0000000e+00 
-4.9559384e+05 -4.0289030e+06 0.0000000e+00 
-1.2557793e+07 8.5455970e+06 0.0000000e+00 
-8.5793620e+06 2.1020865e+06 0.0000000e+00 
-1.0181113e+07 3.1763075e+06 0.0000000e+00 
-1.1416168e+07 4.3482160e+06 0.0000000e+00 
-6.3659315e+06 4.5338705e+06 0.0000000e+00 
4.9539048e+07 -1.5977898e+07 0.0000000e+00 
-4.9539048e+07 -1.5977898e+07 0.0000000e+00 
6.3659315e+06 4.5338705e+06 0.0000000e+00 
1.1416168e+07 4.3482160e+06 0.0000000e+00 
1.0181113e+07 3.1763075e+06 0.0000000e+00 
8.5793620e+06 2.1020865e+06 0.0000000e+00 
1.2557793e+07 8.5455970e+06 0.0000000e+00 
4.9559384e+05 -4.0289030e+06 0.0000000e+00 
1.4640436e+05 -2.0160524e+06 0.0000000e+00 
2.1241080e+04 -6.5959469e+05 0.0000000e+00 
2.0221377e+03 1.1400190e+05 0.0000000e+00 
1.3626550e+04 4.2015128e+05 0.0000000e+00 
1.8972207e+04 3.9065684e+05 0.0000000e+00 
9.1022822e+03 1.5975023e+05 0.0000000e+00 
-8.0531387e+03 -1.4067141e+05 0.0000000e+00 
-1.8768111e+04 -3.8018656e+05 0.0000000e+00 
2.9352325e+05 -3.4724397e+05 0.0000000e+00 
-3.7722407e+03 -1.6445348e+05 0.0000000e+00 
-8.8521063e+02 -7.1126180e+04 0.0000000e+00 
-7.0661659e+01 -1.4987179e+04 0.0000000e+00 
-4.8197922e+01 1.1817594e+04 0.0000000e+00 
-1.3694110e+02 1.7225461e+04 0.0000000e+00 
-9.4516739e+01 9.1965771e+03 0.0000000e+00 
4.5918068e+01 -4.3108940e+03 0.0000000e+00 
1.3887735e+02 -1.5343223e+04 0.0000000e+00 
8.9621124e+01 -1.5944418e+04 0.0000000e+00 
5.5074484e+04 -2.7682007e+03 0.0000000e+00 
1.2069777e+05 4.3071426e+03 0.0000000e+00 
9.0580656e+04 2.8451326e+03 0.0000000e+00 
6.0414426e+04 1.7998982e+03 0.0000000e+00 
3.0215412e+04 1.1723806e+03 0.0000000e+00 
1.1117663e-08 9.6314514e+02 0.0000000e+00 
-3.0215412e+04 1.1723805e+03 0.0000000e+00 
-6.0414426e+04 1.7998982e+03 0.0000000e+00 
-9.0580656e+04 2.8451326e+03 0.0000000e+00 
-1.2069777e+05 4.3071426e+03 0.0000000e+00 
REACTION_MOMENT 3 61  float
0.0000000e+00 0.0000000e+00 3.6468902e+04 
0.0000000e+00 0.0000000e+00 -5.3234653e+00 
0.0000000e+00 0.0000000e+00 -1.8677794e+01 
0.0000000e+00 0.0000000e+00 -2.9407728e+01 
0.0000000e+00 0.0000000e+00 -2.6592804e+01 
0.0000000e+00 0.0000000e+00 -1.3116153e+01 
0.0000000e+00 0.0000000e+00 -2.3713186e+00 
0.0000000e+00 0.0000000e+00 2.4788215e+00 
0.0000000e+00 0.0000000e+00 4.6685509e+01 
0.0000000e+00 0.0000000e+00 2.7942145e+02 
0.0000000e+00 0.0000000e+00 1.9732739e+03 
0.0000000e+00 0.0000000e+00 2.9300659e+03 
0.0000000e+00 0.0000000e+00 4.4556167e+03 
0.0000000e+00 0.0000000e+00 4.3960723e+03 
0.0000000e+00 0.0000000e+00 2.7987566e+03 
0.0000000e+00 0.0000000e+00 9.3389984e+02 
0.0000000e+00 0.0000000e+00 8.1878128e+01 
0.0000000e+00 0.0000000e+00 -8.7360278e+02 
0.0000000e+00 0.0000000e+00 -8.9829043e+03 
0.0000000e+00 0.0000000e+00 -4.1561418e+04 
0.0000000e+00 0.0000000e+00 -1.2720957e+05 
0.0000000e+00 0.0000000e+00 -2.9916038e+05 
0.0000000e+00 0.0000000e+00 -5.8042781e+05 
0.0000000e+00 0.0000000e+00 -9.8421612e+05 
0.0000000e+00 0.0000000e+00 -1.3823738e+06 
-0.0000000e+00 -0.0000000e+00 -1.1006031e+06 
0.0000000e+00 0.0000000e+00 1.1006031e+06 
0.0000000e+00 0.0000000e+00 1.3823738e+06 
0.0000000e+00 0.0000000e+00 9.8421612e+05 
0.0000000e+00 0.0000000e+00 5.8042781e+05 
0.0000000e+00 0.0000000e+00 2.9916038e+05 
0.0000000e+00 0.0000000e+00 1.2720957e+05 
0.0000000e+00 0.0000000e+00 4.1561418e+04 
0.0000000e+00 0.0000000e+00 8.9829043e+03 
0.0000000e+00 0.0000000e+00 8.7360278e+02 
0.0000000e+00 0.0000000e+00 -8.1878128e+01 
0.0000000e+00 0.0000000e+00 -9.3389984e+02 
0.0000000e+00 0.0000000e+00 -2.7987566e+03 
0.0000000e+00 0.0000000e+00 -4.3960723e+03 
0.0000000e+00 0.0000000e+00 -4.4556167e+03 
0.0000000e+00 0.0000000e+00 -2.9300659e+03 
0.0000000e+00 0.0000000e+00 -1.9732739e+03 
0.0000000e+00 0.0000000e+00 -2.7942145e+02 
0.0000000e+00 0.0000000e+00 -4.6685509e+01 
0.0000000e+00 0.0000000e+00 -2.4788215e+00 
0.0000000e+00 0.0000000e+00 2.3713186e+00 
0.0000000e+00 0.0000000e+00 1.3116153e+01 
0.0000000e+00 0.0000000e+00 2.6592804e+01 
0.0000000e+00 0.0000000e+00 2.9407728e+01 
0.0000000e+00 0.0000000e+00 1.8677794e+01 
0.0000000e+00 0.0000000e+00 5.3234653e+00 
0.0000000e+00 0.0000000e+00 -3.6468902e+04 
0.0000000e+00 0.0000000e+00 1.3205126e+03 
0.0000000e+00 0.0000000e+00 8.3402136e+02 
0.0000000e+00 0.0000000e+00 4.8151492e+02 
0.0000000e+00 0.0000000e+00 2.1839954e+02 
0.0000000e+00 0.0000000e+00 3.2025855e-07 
0.0000000e+00 0.0000000e+00 -2.1839954e+02 
0.0000000e+00 0.0000000e+00 -4.8151492e+02 
0.0000000e+00 0.0000000e+00 -8.3402136e+02 
0.0000000e+00 0.0000000e+00 -1.3205126e+03 
CELL_DATA 60
FIELD FieldData 2
MOMENT 3 60  float
0.0000000e+00 0.0000000e+00 3.0962318e+04 
0.0000000e+00 0.0000000e+00 1.9948920e+04 
0.0000000e+00 0.0000000e+00 8.9349688e+03 
0.0000000e+00 0.0000000e+00 -2.0794639e+03 
0.0000000e+00 0.0000000e+00 -1.3093771e+04 
0.0000000e+00 0.0000000e+00 -2.4107471e+04 
0.0000000e+00 0.0000000e+00 -3.5120871e+04 
0.0000000e+00 0.0000000e+00 -4.6135734e+04 
0.0000000e+00 0.0000000e+00 -5.7155934e+04 
0.0000000e+00 0.0000000e+00 -6.8188141e+04 
0.0000000e+00 0.0000000e+00 -8.8479781e+04 
0.0000000e+00 0.0000000e+00 -4.3524512e+04 
0.0000000e+00 0.0000000e+00 1.4827031e+03 
0.0000000e+00 0.0000000e+00 4.6487918e+04 
0.0000000e+00 0.0000000e+00 9.1438672e+04 
0.0000000e+00 0.0000000e+00 1.3632925e+05 
0.0000000e+00 0.0000000e+00 1.8124564e+05 
0.0000000e+00 0.0000000e+00 2.2641070e+05 
0.0000000e+00 0.0000000e+00 2.7223159e+05 
0.0000000e+00 0.0000000e+00 3.1935316e+05 
0.0000000e+00 0.0000000e+00 3.4555644e+05 
0.0000000e+00 0.0000000e+00 3.5061400e+05 
0.0000000e+00 0.0000000e+00 3.5709197e+05 
0.0000000e+00 0.0000000e+00 3.6503316e+05 
0.0000000e+00 0.0000000e+00 3.4838056e+05 
0.0000000e+00 0.0000000e+00 3.4838056e+05 
0.0000000e+00 0.0000000e+00 3.6503316e+05 
0.0000000e+00 0.0000000e+00 3.5709197e+05 
0.0000000e+00 0.0000000e+00 3.5061400e+05 
0.0000000e+00 0.0000000e+00 3.4555644e+05 
0.0000000e+00 0.0000000e+00 3.1935316e+05 
0.0000000e+00 0.0000000e+00 2.7223159e+05 
0.0000000e+00 0.0000000e+00 2.2641070e+05 
0.0000000e+00 0.0000000e+00 1.8124564e+05 
0.0000000e+00 0.0000000e+00 1.3632925e+05 
0.0000000e+00 0.0000000e+00 9.1438672e+04 
0.0000000e+00 0.0000000e+00 4.6487918e+04 
0.0000000e+00 0.0000000e+00 1.4827031e+03 
0.0000000e+00 0.0000000e+00 -4.3524512e+04 
0.0000000e+00 0.0000000e+00 -8.8479781e+04 
0.0000000e+00 0.0000000e+00 -6.8188141e+04 
0.0000000e+00 0.0000000e+00 -5.7155934e+04 
0.0000000e+00 0.0000000e+00 -4.6135734e+04 
0.0000000e+00 0.0000000e+00 -3.5120871e+04 
0.0000000e+00 0.0000000e+00 -2.4107471e+04 
0.0000000e+00 0.0000000e+00 -1.3093771e+04 
0.0000000e+00 0.0000000e+00 -2.0794639e+03 
0.0000000e+00 0.0000000e+00 8.9349688e+03 
0.0000000e+00 0.0000000e+00 1.9948920e+04 
0.0000000e+00 0.0000000e+00 3.0962318e+04 
0.0000000e+00 0.0000000e+00 3.7233270e+04 
0.0000000e+00 0.0000000e+00 3.7226438e+04 
0.0000000e+00 0.0000000e+00 3.7221316e+04 
0.0000000e+00 0.0000000e+00 3.7217902e+04 
0.0000000e+00 0.0000000e+00 3.7216195e+04 
0.0000000e+00 0.0000000e+00 3.7216195e+04 
0.0000000e+00 0.0000000e+00 3.7217902e+04 
0.0000000e+00 0.0000000e+00 3.7221316e+04 
0.0000000e+00 0.0000000e+00 3.7226438e+04 
0.0000000e+00 0.0000000e+00 3.7233270e+04 
FORCE 3 60  float
2.9402170e+03 -5.5065570e+04 0.0000000e+00 
1.9151791e+04 -5.5013176e+04 0.0000000e+00 
3.4646863e+04 -5.4934645e+04 0.0000000e+00 
3.8993852e+04 -5.4908895e+04 0.0000000e+00 
2.9717414e+04 -5.4961988e+04 0.0000000e+00 
1.2296534e+04 -5.5040016e+04 0.0000000e+00 
1.6825156e+02 -5.5069133e+04 0.0000000e+00 
1.4729404e+04 -5.5102906e+04 0.0000000e+00 
8.5317766e+04 -5.5556754e+04 0.0000000e+00 
2.4914298e+05 -5.7527871e+04 0.0000000e+00 
5.9749856e+05 2.1507434e+05 0.0000000e+00 
9.8078369e+05 2.0463070e+05 0.0000000e+00 
1.1224919e+06 2.0017823e+05 0.0000000e+00 
9.6156094e+05 2.0521173e+05 0.0000000e+00 
5.6768044e+05 2.1577689e+05 0.0000000e+00 
1.4252612e+05 2.2353358e+05 0.0000000e+00 
2.1722113e+04 2.2475053e+05 0.0000000e+00 
6.7285688e+05 2.3536505e+05 0.0000000e+00 
2.6819022e+06 3.1101978e+05 0.0000000e+00 
6.7184965e+06 5.6801650e+05 0.0000000e+00 
1.3089304e+07 9.3886606e+05 0.0000000e+00 
2.1836920e+07 2.0070189e+06 0.0000000e+00 
3.2342134e+07 3.5833912e+06 0.0000000e+00 
4.4300964e+07 5.6840390e+06 0.0000000e+00 
5.1595540e+07 6.8782680e+06 0.0000000e+00 
5.1595540e+07 -6.8782680e+06 0.0000000e+00 
4.4300964e+07 -5.6840390e+06 0.0000000e+00 
3.2342134e+07 -3.5833912e+06 0.0000000e+00 
2.1836920e+07 -2.0070189e+06 0.0000000e+00 
1.3089304e+07 -9.3886606e+05 0.0000000e+00 
6.7184965e+06 -5.6801650e+05 0.0000000e+00 
2.6819022e+06 -3.1101978e+05 0.0000000e+00 
6.7285688e+05 -2.3536505e+05 0.0000000e+00 
2.1722113e+04 -2.2475053e+05 0.0000000e+00 
1.4252612e+05 -2.2353358e+05 0.0000000e+00 
5.6768044e+05 -2.1577689e+05 0.0000000e+00 
9.6156094e+05 -2.0521173e+05 0.0000000e+00 
1.1224919e+06 -2.0017823e+05 0.0000000e+00 
9.8078369e+05 -2.0463070e+05 0.0000000e+00 
5.9749856e+05 -2.1507434e+05 0.0000000e+00 
2.4914298e+05 5.7527871e+04 0.0000000e+00 
8.5317766e+04 5.5556754e+04 0.0000000e+00 
1.4729404e+04 5.5102906e+04 0.0000000e+00 
1.6825156e+02 5.5069133e+04 0.0000000e+00 
1.2296534e+04 5.5040016e+04 0.0000000e+00 
2.9717414e+04 5.4961988e+04 0.0000000e+00 
3.8993852e+04 5.4908895e+04 0.0000000e+00 
3.4646863e+04 5.4934645e+04 0.0000000e+00 
1.9151791e+04 5.5013176e+04 0.0000000e+00 
2.9402170e+03 5.5065570e+04 0.0000000e+00 
5.8536512e+05 -8.0447158e+03 0.0000000e+00 
4.6463997e+05 -5.2168691e+03 0.0000000e+00 
3.7404844e+05 -3.1685701e+03 0.0000000e+00 
3.1363138e+05 -1.6778784e+03 0.0000000e+00 
2.8341600e+05 -5.2206647e+02 0.0000000e+00 
2.8341600e+05 5.2206641e+02 0.0000000e+00 
3.1363138e+05 1.6778784e+03 0.0000000e+00 
3.7404844e+05 3.1685701e+03 0.0000000e+00 
4.6463997e+05 5.2168691e+03 0.0000000e+00 
5.8536512e+05 8.0447158e+03 0.0000000e+00 
