# vtk DataFile Version 4.0
vtk output
ASCII
DATASET UNSTRUCTURED_GRID
POINTS 9 float
0.0000000e+00 0.0000000e+00 0.0000000e+00 
5.0000000e-01 0.0000000e+00 0.0000000e+00 
1.0000000e+00 0.0000000e+00 0.0000000e+00 
1.5000000e+00 0.0000000e+00 0.0000000e+00 
2.0000000e+00 0.0000000e+00 0.0000000e+00 
2.5000000e+00 0.0000000e+00 0.0000000e+00 
3.0000000e+00 0.0000000e+00 0.0000000e+00 
3.5000000e+00 0.0000000e+00 0.0000000e+00 
4.0000000e+00 0.0000000e+00 0.0000000e+00 

CELLS 8 24
2 0 1
2 1 2
2 2 3
2 3 4
2 4 5
2 5 6
2 6 7
2 7 8

CELL_TYPES 8
3
3
3
3
3
3
3
3
POINT_DATA 9
FIELD FieldData 3
ADJOINT_DISPLACEMENT 3 9  float
0.0000000e+00 0.0000000e+00 0.0000000e+00 
0.0000000e+00 0.0000000e+00 7.4218750e-02 
0.0000000e+00 0.0000000e+00 2.8125000e-01 
0.0000000e+00 0.0000000e+00 9.7656250e-02 
0.0000000e+00 0.0000000e+00 3.9782991e-16 
0.0000000e+00 0.0000000e+00 -3.5156250e-02 
0.0000000e+00 0.0000000e+00 -3.1250000e-02 
0.0000000e+00 0.0000000e+00 -1.1718750e-02 
0.0000000e+00 0.0000000e+00 0.0000000e+00 
ADJOINT_ROTATION 3 9  float
0.0000000e+00 0.0000000e+00 0.0000000e+00 
0.0000000e+00 -2.8906250e-01 0.0000000e+00 
0.0000000e+00 -5.3125000e-01 0.0000000e+00 
0.0000000e+00 2.7343750e-01 0.0000000e+00 
0.0000000e+00 1.2500000e-01 0.0000000e+00 
0.0000000e+00 2.3437500e-02 0.0000000e+00 
0.0000000e+00 -3.1250000e-02 0.0000000e+00 
0.0000000e+00 -3.9062500e-02 0.0000000e+00 
0.0000000e+00 0.0000000e+00 0.0000000e+00 
SHAPE_SENSITIVITY 3 9  float
0.0000000e+00 0.0000000e+00 0.0000000e+00 
0.0000000e+00 0.0000000e+00 0.0000000e+00 
0.0000000e+00 0.0000000e+00 0.0000000e+00 
0.0000000e+00 0.0000000e+00 0.0000000e+00 
0.0000000e+00 0.0000000e+00 0.0000000e+00 
0.0000000e+00 0.0000000e+00 0.0000000e+00 
0.0000000e+00 0.0000000e+00 0.0000000e+00 
0.0000000e+00 0.0000000e+00 0.0000000e+00 
0.0000000e+00 0.0000000e+00 0.0000000e+00 
CELL_DATA 8
FIELD FieldData 1
I22_SENSITIVITY 1 8  float
1.0253906e+01
1.3085938e+00
-2.8710938e+00
-3.6914062e+00
-2.5585938e+00
-8.7890625e-01
-5.8593754e-02
-1.5039062e+00
