# vtk DataFile Version 4.0
vtk output
ASCII
DATASET UNSTRUCTURED_GRID
POINTS 11 float
0.0000000e+00 0.0000000e+00 0.0000000e+00 
1.0000000e-01 0.0000000e+00 0.0000000e+00 
2.0000000e-01 0.0000000e+00 0.0000000e+00 
3.0000001e-01 0.0000000e+00 0.0000000e+00 
4.0000001e-01 0.0000000e+00 0.0000000e+00 
5.0000000e-01 0.0000000e+00 0.0000000e+00 
6.0000002e-01 0.0000000e+00 0.0000000e+00 
6.9999999e-01 0.0000000e+00 0.0000000e+00 
8.0000001e-01 0.0000000e+00 0.0000000e+00 
8.9999998e-01 0.0000000e+00 0.0000000e+00 
1.0000000e+00 0.0000000e+00 0.0000000e+00 

CELLS 10 30
2 0 1
2 1 2
2 2 3
2 3 4
2 4 5
2 5 6
2 6 7
2 7 8
2 8 9
2 9 10

CELL_TYPES 10
3
3
3
3
3
3
3
3
3
3
POINT_DATA 11
FIELD FieldData 4
DISPLACEMENT 3 11  float
0.0000000e+00 0.0000000e+00 0.0000000e+00 
0.0000000e+00 0.0000000e+00 -1.3500000e-02 
0.0000000e+00 0.0000000e+00 -4.2666666e-02 
0.0000000e+00 0.0000000e+00 -7.3500000e-02 
0.0000000e+00 0.0000000e+00 -9.6000001e-02 
0.0000000e+00 0.0000000e+00 -1.0416666e-01 
0.0000000e+00 0.0000000e+00 -9.6000001e-02 
0.0000000e+00 0.0000000e+00 -7.3500000e-02 
0.0000000e+00 0.0000000e+00 -4.2666666e-02 
0.0000000e+00 0.0000000e+00 -1.3500000e-02 
0.0000000e+00 0.0000000e+00 0.0000000e+00 
ROTATION 3 11  float
0.0000000e+00 0.0000000e+00 0.0000000e+00 
0.0000000e+00 2.3999999e-01 0.0000000e+00 
0.0000000e+00 3.1999999e-01 0.0000000e+00 
0.0000000e+00 2.8000000e-01 0.0000000e+00 
0.0000000e+00 1.6000000e-01 0.0000000e+00 
0.0000000e+00 -4.4408921e-15 0.0000000e+00 
0.0000000e+00 -1.6000000e-01 0.0000000e+00 
0.0000000e+00 -2.8000000e-01 0.0000000e+00 
0.0000000e+00 -3.1999999e-01 0.0000000e+00 
0.0000000e+00 -2.3999999e-01 0.0000000e+00 
0.0000000e+00 0.0000000e+00 0.0000000e+00 
REACTION 3 11  float
-0.0000000e+00 -0.0000000e+00 2.0018143e+01 
-0.0000000e+00 -0.0000000e+00 1.0147604e-01 
-0.0000000e+00 -0.0000000e+00 1.7624465e-01 
-0.0000000e+00 -0.0000000e+00 1.4291131e-01 
-0.0000000e+00 -0.0000000e+00 5.6658361e-02 
-0.0000000e+00 -0.0000000e+00 1.3316722e-02 
-0.0000000e+00 -0.0000000e+00 5.6658361e-02 
-0.0000000e+00 -0.0000000e+00 1.4291131e-01 
-0.0000000e+00 -0.0000000e+00 1.7624465e-01 
-0.0000000e+00 -0.0000000e+00 1.0147604e-01 
-0.0000000e+00 -0.0000000e+00 2.0018143e+01 
REACTION_MOMENT 3 11  float
-0.0000000e+00 -3.3000000e+00 -0.0000000e+00 
-0.0000000e+00 -2.2826185e-13 -0.0000000e+00 
-0.0000000e+00 -0.0000000e+00 -0.0000000e+00 
-0.0000000e+00 -2.6645353e-15 -0.0000000e+00 
-0.0000000e+00 -1.7763568e-15 -0.0000000e+00 
-0.0000000e+00 -1.0702550e-13 -0.0000000e+00 
-0.0000000e+00 -5.5067062e-14 -0.0000000e+00 
-0.0000000e+00 -2.2204460e-14 -0.0000000e+00 
-0.0000000e+00 8.8817842e-15 -0.0000000e+00 
-0.0000000e+00 3.5527137e-15 -0.0000000e+00 
-0.0000000e+00 3.3000000e+00 -0.0000000e+00 
CELL_DATA 10
FIELD FieldData 2
MOMENT 3 10  float
0.0000000e+00 2.4000001e+00 0.0000000e+00 
0.0000000e+00 8.0000001e-01 0.0000000e+00 
0.0000000e+00 -4.0000001e-01 0.0000000e+00 
0.0000000e+00 -1.2000000e+00 0.0000000e+00 
0.0000000e+00 -1.6000000e+00 0.0000000e+00 
0.0000000e+00 -1.6000000e+00 0.0000000e+00 
0.0000000e+00 -1.2000000e+00 0.0000000e+00 
0.0000000e+00 -4.0000001e-01 0.0000000e+00 
0.0000000e+00 8.0000001e-01 0.0000000e+00 
0.0000000e+00 2.4000001e+00 0.0000000e+00 
FORCE 3 10  float
0.0000000e+00 0.0000000e+00 -1.8000000e+01 
0.0000000e+00 0.0000000e+00 -1.4000000e+01 
0.0000000e+00 0.0000000e+00 -1.0000000e+01 
0.0000000e+00 0.0000000e+00 -6.0000000e+00 
0.0000000e+00 0.0000000e+00 -2.0000000e+00 
0.0000000e+00 0.0000000e+00 2.0000000e+00 
0.0000000e+00 0.0000000e+00 6.0000000e+00 
0.0000000e+00 0.0000000e+00 1.0000000e+01 
0.0000000e+00 0.0000000e+00 1.4000000e+01 
0.0000000e+00 0.0000000e+00 1.8000000e+01 
