# vtk DataFile Version 4.0
vtk output
ASCII
DATASET UNSTRUCTURED_GRID
POINTS 3 float
0.0000000e+00 0.0000000e+00 0.0000000e+00 
1.0000000e+00 0.0000000e+00 0.0000000e+00 
2.0000000e+00 0.0000000e+00 0.0000000e+00 

CELLS 2 6
2 0 1
2 1 2

CELL_TYPES 2
3
3
POINT_DATA 3
FIELD FieldData 6
DISPLACEMENT 3 3  float
0.0000000e+00 0.0000000e+00 0.0000000e+00 
0.0000000e+00 -1.5873016e-03 0.0000000e+00 
0.0000000e+00 0.0000000e+00 0.0000000e+00 
REACTION 3 3  float
-7.5132031e+02 1.0001236e+04 0.0000000e+00 
-0.0000000e+00 -2.4468739e+00 0.0000000e+00 
7.5132031e+02 1.0001236e+04 0.0000000e+00 
ROTATION 3 3  float
0.0000000e+00 0.0000000e+00 -2.3809525e-03 
0.0000000e+00 0.0000000e+00 -4.3309272e-19 
0.0000000e+00 0.0000000e+00 2.3809525e-03 
REACTION_MOMENT 3 3  float
0.0000000e+00 0.0000000e+00 -1.2891528e-01 
0.0000000e+00 0.0000000e+00 -2.7284841e-12 
0.0000000e+00 0.0000000e+00 1.2891528e-01 
FORCE 3 3  float
7.5925781e+02 -5.0000308e+03 0.0000000e+00 
7.5925781e+02 0.0000000e+00 0.0000000e+00 
7.5925781e+02 5.0000308e+03 0.0000000e+00 
MOMENT 3 3  float
0.0000000e+00 0.0000000e+00 -1.9622291e+03 
0.0000000e+00 0.0000000e+00 -3.0380659e+03 
0.0000000e+00 0.0000000e+00 -1.9622291e+03 
CELL_DATA 2
FIELD FieldData 2
FORCE 3 2  float
7.5925781e+02 -5.0000308e+03 0.0000000e+00 
7.5925781e+02 5.0000308e+03 0.0000000e+00 
MOMENT 3 2  float
0.0000000e+00 0.0000000e+00 -2.5001475e+03 
0.0000000e+00 0.0000000e+00 -2.5001475e+03 
