# vtk DataFile Version 4.0
vtk output
ASCII
DATASET UNSTRUCTURED_GRID
POINTS 3 float
0.0000000e+00 0.0000000e+00 0.0000000e+00 
3.0000000e+00 0.0000000e+00 0.0000000e+00 
6.0000000e+00 0.0000000e+00 0.0000000e+00 

CELLS 2 6
2 0 1
2 1 2

CELL_TYPES 2
3
3
POINT_DATA 3
FIELD FieldData 4
DISPLACEMENT 3 3  float
0.0000000e+00 0.0000000e+00 0.0000000e+00 
0.0000000e+00 -1.2857144e-01 0.0000000e+00 
0.0000000e+00 0.0000000e+00 0.0000000e+00 
REACTION 3 3  float
-5.5154169e+05 5.4783480e+04 0.0000000e+00 
-0.0000000e+00 -4.9511883e+04 0.0000000e+00 
5.5154169e+05 5.4783480e+04 0.0000000e+00 
ROTATION 3 3  float
0.0000000e+00 0.0000000e+00 -6.4285718e-02 
0.0000000e+00 0.0000000e+00 0.0000000e+00 
0.0000000e+00 0.0000000e+00 6.4285718e-02 
REACTION_MOMENT 3 3  float
0.0000000e+00 0.0000000e+00 -7.1725049e+03 
0.0000000e+00 0.0000000e+00 -0.0000000e+00 
0.0000000e+00 0.0000000e+00 7.1725049e+03 
CELL_DATA 2
FIELD FieldData 0
