# vtk DataFile Version 4.0
vtk output
ASCII
DATASET UNSTRUCTURED_GRID
POINTS 212 float
0.0000000e+00 0.0000000e+00 0.0000000e+00 
0.0000000e+00 0.0000000e+00 2.5000000e-01 
0.0000000e+00 0.0000000e+00 5.0000000e-01 
0.0000000e+00 0.0000000e+00 7.5000000e-01 
0.0000000e+00 0.0000000e+00 1.0000000e+00 
0.0000000e+00 0.0000000e+00 1.2500000e+00 
0.0000000e+00 0.0000000e+00 1.5000000e+00 
0.0000000e+00 0.0000000e+00 1.7500000e+00 
0.0000000e+00 0.0000000e+00 2.0000000e+00 
0.0000000e+00 0.0000000e+00 2.2500000e+00 
0.0000000e+00 0.0000000e+00 2.5000000e+00 
0.0000000e+00 0.0000000e+00 2.7500000e+00 
0.0000000e+00 0.0000000e+00 3.0000000e+00 
0.0000000e+00 0.0000000e+00 3.2500000e+00 
0.0000000e+00 0.0000000e+00 3.5000000e+00 
0.0000000e+00 0.0000000e+00 3.7500000e+00 
0.0000000e+00 0.0000000e+00 4.0000000e+00 
0.0000000e+00 0.0000000e+00 4.2500000e+00 
0.0000000e+00 0.0000000e+00 4.5000000e+00 
0.0000000e+00 0.0000000e+00 4.7500000e+00 
0.0000000e+00 0.0000000e+00 5.0000000e+00 
0.0000000e+00 0.0000000e+00 5.2500000e+00 
0.0000000e+00 0.0000000e+00 5.5000000e+00 
0.0000000e+00 0.0000000e+00 5.7500000e+00 
0.0000000e+00 0.0000000e+00 6.0000000e+00 
0.0000000e+00 0.0000000e+00 6.2500000e+00 
0.0000000e+00 0.0000000e+00 6.5000000e+00 
0.0000000e+00 0.0000000e+00 6.7500000e+00 
0.0000000e+00 0.0000000e+00 7.0000000e+00 
0.0000000e+00 0.0000000e+00 7.2500000e+00 
0.0000000e+00 0.0000000e+00 7.5000000e+00 
0.0000000e+00 0.0000000e+00 7.7500000e+00 
0.0000000e+00 0.0000000e+00 8.0000000e+00 
0.0000000e+00 0.0000000e+00 8.2500000e+00 
0.0000000e+00 0.0000000e+00 8.5000000e+00 
0.0000000e+00 0.0000000e+00 8.7500000e+00 
0.0000000e+00 0.0000000e+00 9.0000000e+00 
0.0000000e+00 0.0000000e+00 9.2500000e+00 
0.0000000e+00 0.0000000e+00 9.5000000e+00 
0.0000000e+00 0.0000000e+00 9.7500000e+00 
0.0000000e+00 0.0000000e+00 1.0000000e+01 
0.0000000e+00 0.0000000e+00 1.0250000e+01 
0.0000000e+00 0.0000000e+00 1.0500000e+01 
0.0000000e+00 0.0000000e+00 1.0750000e+01 
0.0000000e+00 0.0000000e+00 1.1000000e+01 
0.0000000e+00 0.0000000e+00 1.1250000e+01 
0.0000000e+00 0.0000000e+00 1.1500000e+01 
0.0000000e+00 0.0000000e+00 1.1750000e+01 
0.0000000e+00 0.0000000e+00 1.2000000e+01 
0.0000000e+00 0.0000000e+00 1.2250000e+01 
0.0000000e+00 0.0000000e+00 1.2500000e+01 
0.0000000e+00 0.0000000e+00 1.2750000e+01 
0.0000000e+00 0.0000000e+00 1.3000000e+01 
0.0000000e+00 0.0000000e+00 1.3250000e+01 
0.0000000e+00 0.0000000e+00 1.3500000e+01 
0.0000000e+00 0.0000000e+00 1.3750000e+01 
0.0000000e+00 0.0000000e+00 1.4000000e+01 
0.0000000e+00 0.0000000e+00 1.4250000e+01 
0.0000000e+00 0.0000000e+00 1.4500000e+01 
0.0000000e+00 0.0000000e+00 1.4750000e+01 
0.0000000e+00 0.0000000e+00 1.5000000e+01 
0.0000000e+00 0.0000000e+00 1.5250000e+01 
0.0000000e+00 0.0000000e+00 1.5500000e+01 
0.0000000e+00 0.0000000e+00 1.5750000e+01 
0.0000000e+00 0.0000000e+00 1.6000000e+01 
0.0000000e+00 0.0000000e+00 1.6250000e+01 
0.0000000e+00 0.0000000e+00 1.6500000e+01 
0.0000000e+00 0.0000000e+00 1.6750000e+01 
0.0000000e+00 0.0000000e+00 1.7000000e+01 
0.0000000e+00 0.0000000e+00 1.7250000e+01 
0.0000000e+00 0.0000000e+00 1.7500000e+01 
0.0000000e+00 0.0000000e+00 1.7750000e+01 
0.0000000e+00 0.0000000e+00 1.8000000e+01 
5.0000000e-01 0.0000000e+00 3.0000000e+00 
5.0000000e-01 0.0000000e+00 6.0000000e+00 
5.0000000e-01 0.0000000e+00 9.0000000e+00 
5.0000000e-01 0.0000000e+00 1.2000000e+01 
5.0000000e-01 0.0000000e+00 1.5000000e+01 
5.0000000e-01 0.0000000e+00 1.8000000e+01 
1.0000000e+00 0.0000000e+00 3.0000000e+00 
1.0000000e+00 0.0000000e+00 6.0000000e+00 
1.0000000e+00 0.0000000e+00 9.0000000e+00 
1.0000000e+00 0.0000000e+00 1.2000000e+01 
1.0000000e+00 0.0000000e+00 1.5000000e+01 
1.0000000e+00 0.0000000e+00 1.8000000e+01 
1.5000000e+00 0.0000000e+00 3.0000000e+00 
1.5000000e+00 0.0000000e+00 6.0000000e+00 
1.5000000e+00 0.0000000e+00 9.0000000e+00 
1.5000000e+00 0.0000000e+00 1.2000000e+01 
1.5000000e+00 0.0000000e+00 1.5000000e+01 
1.5000000e+00 0.0000000e+00 1.8000000e+01 
2.0000000e+00 0.0000000e+00 3.0000000e+00 
2.0000000e+00 0.0000000e+00 6.0000000e+00 
2.0000000e+00 0.0000000e+00 9.0000000e+00 
2.0000000e+00 0.0000000e+00 1.2000000e+01 
2.0000000e+00 0.0000000e+00 1.5000000e+01 
2.0000000e+00 0.0000000e+00 1.8000000e+01 
2.5000000e+00 0.0000000e+00 3.0000000e+00 
2.5000000e+00 0.0000000e+00 6.0000000e+00 
2.5000000e+00 0.0000000e+00 9.0000000e+00 
2.5000000e+00 0.0000000e+00 1.2000000e+01 
2.5000000e+00 0.0000000e+00 1.5000000e+01 
2.5000000e+00 0.0000000e+00 1.8000000e+01 
3.0000000e+00 0.0000000e+00 3.0000000e+00 
3.0000000e+00 0.0000000e+00 6.0000000e+00 
3.0000000e+00 0.0000000e+00 9.0000000e+00 
3.0000000e+00 0.0000000e+00 1.2000000e+01 
3.0000000e+00 0.0000000e+00 1.5000000e+01 
3.0000000e+00 0.0000000e+00 1.8000000e+01 
3.5000000e+00 0.0000000e+00 3.0000000e+00 
3.5000000e+00 0.0000000e+00 6.0000000e+00 
3.5000000e+00 0.0000000e+00 9.0000000e+00 
3.5000000e+00 0.0000000e+00 1.2000000e+01 
3.5000000e+00 0.0000000e+00 1.5000000e+01 
3.5000000e+00 0.0000000e+00 1.8000000e+01 
4.0000000e+00 0.0000000e+00 3.0000000e+00 
4.0000000e+00 0.0000000e+00 6.0000000e+00 
4.0000000e+00 0.0000000e+00 9.0000000e+00 
4.0000000e+00 0.0000000e+00 1.2000000e+01 
4.0000000e+00 0.0000000e+00 1.5000000e+01 
4.0000000e+00 0.0000000e+00 1.8000000e+01 
4.5000000e+00 0.0000000e+00 3.0000000e+00 
4.5000000e+00 0.0000000e+00 6.0000000e+00 
4.5000000e+00 0.0000000e+00 9.0000000e+00 
4.5000000e+00 0.0000000e+00 1.2000000e+01 
4.5000000e+00 0.0000000e+00 1.5000000e+01 
4.5000000e+00 0.0000000e+00 1.8000000e+01 
5.0000000e+00 0.0000000e+00 3.0000000e+00 
5.0000000e+00 0.0000000e+00 6.0000000e+00 
5.0000000e+00 0.0000000e+00 9.0000000e+00 
5.0000000e+00 0.0000000e+00 1.2000000e+01 
5.0000000e+00 0.0000000e+00 1.5000000e+01 
5.0000000e+00 0.0000000e+00 1.8000000e+01 
5.5000000e+00 0.0000000e+00 3.0000000e+00 
5.5000000e+00 0.0000000e+00 6.0000000e+00 
5.5000000e+00 0.0000000e+00 9.0000000e+00 
5.5000000e+00 0.0000000e+00 1.2000000e+01 
5.5000000e+00 0.0000000e+00 1.5000000e+01 
5.5000000e+00 0.0000000e+00 1.8000000e+01 
6.0000000e+00 0.0000000e+00 0.0000000e+00 
6.0000000e+00 0.0000000e+00 2.5000000e-01 
6.0000000e+00 0.0000000e+00 5.0000000e-01 
6.0000000e+00 0.0000000e+00 7.5000000e-01 
6.0000000e+00 0.0000000e+00 1.0000000e+00 
6.0000000e+00 0.0000000e+00 1.2500000e+00 
6.0000000e+00 0.0000000e+00 1.5000000e+00 
6.0000000e+00 0.0000000e+00 1.7500000e+00 
6.0000000e+00 0.0000000e+00 2.0000000e+00 
6.0000000e+00 0.0000000e+00 2.2500000e+00 
6.0000000e+00 0.0000000e+00 2.5000000e+00 
6.0000000e+00 0.0000000e+00 2.7500000e+00 
6.0000000e+00 0.0000000e+00 3.0000000e+00 
6.0000000e+00 0.0000000e+00 3.2500000e+00 
6.0000000e+00 0.0000000e+00 3.5000000e+00 
6.0000000e+00 0.0000000e+00 3.7500000e+00 
6.0000000e+00 0.0000000e+00 4.0000000e+00 
6.0000000e+00 0.0000000e+00 4.2500000e+00 
6.0000000e+00 0.0000000e+00 4.5000000e+00 
6.0000000e+00 0.0000000e+00 4.7500000e+00 
6.0000000e+00 0.0000000e+00 5.0000000e+00 
6.0000000e+00 0.0000000e+00 5.2500000e+00 
6.0000000e+00 0.0000000e+00 5.5000000e+00 
6.0000000e+00 0.0000000e+00 5.7500000e+00 
6.0000000e+00 0.0000000e+00 6.0000000e+00 
6.0000000e+00 0.0000000e+00 6.2500000e+00 
6.0000000e+00 0.0000000e+00 6.5000000e+00 
6.0000000e+00 0.0000000e+00 6.7500000e+00 
6.0000000e+00 0.0000000e+00 7.0000000e+00 
6.0000000e+00 0.0000000e+00 7.2500000e+00 
6.0000000e+00 0.0000000e+00 7.5000000e+00 
6.0000000e+00 0.0000000e+00 7.7500000e+00 
6.0000000e+00 0.0000000e+00 8.0000000e+00 
6.0000000e+00 0.0000000e+00 8.2500000e+00 
6.0000000e+00 0.0000000e+00 8.5000000e+00 
6.0000000e+00 0.0000000e+00 8.7500000e+00 
6.0000000e+00 0.0000000e+00 9.0000000e+00 
6.0000000e+00 0.0000000e+00 9.2500000e+00 
6.0000000e+00 0.0000000e+00 9.5000000e+00 
6.0000000e+00 0.0000000e+00 9.7500000e+00 
6.0000000e+00 0.0000000e+00 1.0000000e+01 
6.0000000e+00 0.0000000e+00 1.0250000e+01 
6.0000000e+00 0.0000000e+00 1.0500000e+01 
6.0000000e+00 0.0000000e+00 1.0750000e+01 
6.0000000e+00 0.0000000e+00 1.1000000e+01 
6.0000000e+00 0.0000000e+00 1.1250000e+01 
6.0000000e+00 0.0000000e+00 1.1500000e+01 
6.0000000e+00 0.0000000e+00 1.1750000e+01 
6.0000000e+00 0.0000000e+00 1.2000000e+01 
6.0000000e+00 0.0000000e+00 1.2250000e+01 
6.0000000e+00 0.0000000e+00 1.2500000e+01 
6.0000000e+00 0.0000000e+00 1.2750000e+01 
6.0000000e+00 0.0000000e+00 1.3000000e+01 
6.0000000e+00 0.0000000e+00 1.3250000e+01 
6.0000000e+00 0.0000000e+00 1.3500000e+01 
6.0000000e+00 0.0000000e+00 1.3750000e+01 
6.0000000e+00 0.0000000e+00 1.4000000e+01 
6.0000000e+00 0.0000000e+00 1.4250000e+01 
6.0000000e+00 0.0000000e+00 1.4500000e+01 
6.0000000e+00 0.0000000e+00 1.4750000e+01 
6.0000000e+00 0.0000000e+00 1.5000000e+01 
6.0000000e+00 0.0000000e+00 1.5250000e+01 
6.0000000e+00 0.0000000e+00 1.5500000e+01 
6.0000000e+00 0.0000000e+00 1.5750000e+01 
6.0000000e+00 0.0000000e+00 1.6000000e+01 
6.0000000e+00 0.0000000e+00 1.6250000e+01 
6.0000000e+00 0.0000000e+00 1.6500000e+01 
6.0000000e+00 0.0000000e+00 1.6750000e+01 
6.0000000e+00 0.0000000e+00 1.7000000e+01 
6.0000000e+00 0.0000000e+00 1.7250000e+01 
6.0000000e+00 0.0000000e+00 1.7500000e+01 
6.0000000e+00 0.0000000e+00 1.7750000e+01 
6.0000000e+00 0.0000000e+00 1.8000000e+01 

CELLS 216 648
2 0 1
2 1 2
2 2 3
2 3 4
2 4 5
2 5 6
2 6 7
2 7 8
2 8 9
2 9 10
2 10 11
2 11 12
2 12 13
2 13 14
2 14 15
2 15 16
2 16 17
2 17 18
2 18 19
2 19 20
2 20 21
2 21 22
2 22 23
2 23 24
2 24 25
2 25 26
2 26 27
2 27 28
2 28 29
2 29 30
2 30 31
2 31 32
2 32 33
2 33 34
2 34 35
2 35 36
2 36 37
2 37 38
2 38 39
2 39 40
2 40 41
2 41 42
2 42 43
2 43 44
2 44 45
2 45 46
2 46 47
2 47 48
2 48 49
2 49 50
2 50 51
2 51 52
2 52 53
2 53 54
2 54 55
2 55 56
2 56 57
2 57 58
2 58 59
2 59 60
2 60 61
2 61 62
2 62 63
2 63 64
2 64 65
2 65 66
2 66 67
2 67 68
2 68 69
2 69 70
2 70 71
2 71 72
2 139 140
2 140 141
2 141 142
2 142 143
2 143 144
2 144 145
2 145 146
2 146 147
2 147 148
2 148 149
2 149 150
2 150 151
2 151 152
2 152 153
2 153 154
2 154 155
2 155 156
2 156 157
2 157 158
2 158 159
2 159 160
2 160 161
2 161 162
2 162 163
2 163 164
2 164 165
2 165 166
2 166 167
2 167 168
2 168 169
2 169 170
2 170 171
2 171 172
2 172 173
2 173 174
2 174 175
2 175 176
2 176 177
2 177 178
2 178 179
2 179 180
2 180 181
2 181 182
2 182 183
2 183 184
2 184 185
2 185 186
2 186 187
2 187 188
2 188 189
2 189 190
2 190 191
2 191 192
2 192 193
2 193 194
2 194 195
2 195 196
2 196 197
2 197 198
2 198 199
2 199 200
2 200 201
2 201 202
2 202 203
2 203 204
2 204 205
2 205 206
2 206 207
2 207 208
2 208 209
2 209 210
2 210 211
2 12 73
2 73 79
2 79 85
2 85 91
2 91 97
2 97 103
2 103 109
2 109 115
2 115 121
2 121 127
2 127 133
2 133 151
2 24 74
2 74 80
2 80 86
2 86 92
2 92 98
2 98 104
2 104 110
2 110 116
2 116 122
2 122 128
2 128 134
2 134 163
2 36 75
2 75 81
2 81 87
2 87 93
2 93 99
2 99 105
2 105 111
2 111 117
2 117 123
2 123 129
2 129 135
2 135 175
2 48 76
2 76 82
2 82 88
2 88 94
2 94 100
2 100 106
2 106 112
2 112 118
2 118 124
2 124 130
2 130 136
2 136 187
2 60 77
2 77 83
2 83 89
2 89 95
2 95 101
2 101 107
2 107 113
2 113 119
2 119 125
2 125 131
2 131 137
2 137 199
2 72 78
2 78 84
2 84 90
2 90 96
2 96 102
2 102 108
2 108 114
2 114 120
2 120 126
2 126 132
2 132 138
2 138 211

CELL_TYPES 216
3
3
3
3
3
3
3
3
3
3
3
3
3
3
3
3
3
3
3
3
3
3
3
3
3
3
3
3
3
3
3
3
3
3
3
3
3
3
3
3
3
3
3
3
3
3
3
3
3
3
3
3
3
3
3
3
3
3
3
3
3
3
3
3
3
3
3
3
3
3
3
3
3
3
3
3
3
3
3
3
3
3
3
3
3
3
3
3
3
3
3
3
3
3
3
3
3
3
3
3
3
3
3
3
3
3
3
3
3
3
3
3
3
3
3
3
3
3
3
3
3
3
3
3
3
3
3
3
3
3
3
3
3
3
3
3
3
3
3
3
3
3
3
3
3
3
3
3
3
3
3
3
3
3
3
3
3
3
3
3
3
3
3
3
3
3
3
3
3
3
3
3
3
3
3
3
3
3
3
3
3
3
3
3
3
3
3
3
3
3
3
3
3
3
3
3
3
3
3
3
3
3
3
3
3
3
3
3
3
3
3
3
3
3
3
3
POINT_DATA 212
FIELD FieldData 8
DISPLACEMENT 3 212  float
0.0000000e+00 0.0000000e+00 0.0000000e+00 
-2.8689698e-04 0.0000000e+00 -1.2782218e-05 
-5.6176749e-04 0.0000000e+00 -2.5475765e-05 
-8.1258494e-04 0.0000000e+00 -3.8080638e-05 
-1.0273230e-03 0.0000000e+00 -5.0596842e-05 
-1.1939551e-03 0.0000000e+00 -6.3024374e-05 
-1.3004546e-03 0.0000000e+00 -7.5363227e-05 
-1.3347953e-03 0.0000000e+00 -8.7613415e-05 
-1.2849504e-03 0.0000000e+00 -9.9774930e-05 
-1.1388937e-03 0.0000000e+00 -1.1184777e-04 
-8.8459853e-04 0.0000000e+00 -1.2383194e-04 
-5.1003840e-04 0.0000000e+00 -1.3572745e-04 
-3.1868847e-06 0.0000000e+00 -1.4753427e-04 
4.5300752e-04 0.0000000e+00 -1.5817874e-04 
6.9403509e-04 0.0000000e+00 -1.6873452e-04 
7.5958058e-04 0.0000000e+00 -1.7920163e-04 
6.8932865e-04 0.0000000e+00 -1.8958008e-04 
5.2296405e-04 0.0000000e+00 -1.9986984e-04 
3.0017152e-04 0.0000000e+00 -2.1007095e-04 
6.0635815e-05 0.0000000e+00 -2.2018337e-04 
-1.5595839e-04 0.0000000e+00 -2.3020714e-04 
-3.0992634e-04 0.0000000e+00 -2.4014221e-04 
-3.6158331e-04 0.0000000e+00 -2.4998863e-04 
-2.7124461e-04 0.0000000e+00 -2.5974636e-04 
7.7452455e-07 0.0000000e+00 -2.6941544e-04 
2.8508215e-04 0.0000000e+00 -2.7792214e-04 
4.0780506e-04 0.0000000e+00 -2.8634016e-04 
4.0190603e-04 0.0000000e+00 -2.9466953e-04 
3.0034792e-04 0.0000000e+00 -3.0291019e-04 
1.3609348e-04 0.0000000e+00 -3.1106221e-04 
-5.7894431e-05 0.0000000e+00 -3.1912557e-04 
-2.4865303e-04 0.0000000e+00 -3.2710022e-04 
-4.0321954e-04 0.0000000e+00 -3.3498622e-04 
-4.8863108e-04 0.0000000e+00 -3.4278355e-04 
-4.7192496e-04 0.0000000e+00 -3.5049219e-04 
-3.2013824e-04 0.0000000e+00 -3.5811219e-04 
-3.0819382e-07 0.0000000e+00 -3.6564350e-04 
3.1463211e-04 0.0000000e+00 -3.7201244e-04 
4.5353276e-04 0.0000000e+00 -3.7829269e-04 
4.5203127e-04 0.0000000e+00 -3.8448430e-04 
3.4576523e-04 0.0000000e+00 -3.9058723e-04 
1.7037216e-04 0.0000000e+00 -3.9660148e-04 
-3.8510370e-05 0.0000000e+00 -4.0252705e-04 
-2.4524482e-04 0.0000000e+00 -4.0836397e-04 
-4.1419364e-04 0.0000000e+00 -4.1411220e-04 
-5.0971931e-04 0.0000000e+00 -4.1977176e-04 
-4.9618416e-04 0.0000000e+00 -4.2534267e-04 
-3.3795083e-04 0.0000000e+00 -4.3082488e-04 
6.1838966e-07 0.0000000e+00 -4.3621843e-04 
3.4899884e-04 0.0000000e+00 -4.4044963e-04 
5.3308811e-04 0.0000000e+00 -4.4459212e-04 
5.8315683e-04 0.0000000e+00 -4.4864597e-04 
5.2947568e-04 0.0000000e+00 -4.5261113e-04 
4.0231540e-04 0.0000000e+00 -4.5648761e-04 
2.3194667e-04 0.0000000e+00 -4.6027545e-04 
4.8640170e-05 0.0000000e+00 -4.6397460e-04 
-1.1733342e-04 0.0000000e+00 -4.6758508e-04 
-2.3570341e-04 0.0000000e+00 -4.7110688e-04 
-2.7619911e-04 0.0000000e+00 -4.7454002e-04 
-2.0854980e-04 0.0000000e+00 -4.7788449e-04 
-2.4848255e-06 0.0000000e+00 -4.8114028e-04 
1.6412418e-04 0.0000000e+00 -4.8323369e-04 
1.2778240e-04 0.0000000e+00 -4.8523844e-04 
-5.9674232e-05 0.0000000e+00 -4.8715452e-04 
-3.4640983e-04 0.0000000e+00 -4.8898195e-04 
-6.8058848e-04 0.0000000e+00 -4.9072067e-04 
-1.0103743e-03 0.0000000e+00 -4.9237075e-04 
-1.2839312e-03 0.0000000e+00 -4.9393211e-04 
-1.4494235e-03 0.0000000e+00 -4.9540482e-04 
-1.4550152e-03 0.0000000e+00 -4.9678888e-04 
-1.2488703e-03 0.0000000e+00 -4.9808429e-04 
-7.7915296e-04 0.0000000e+00 -4.9929100e-04 
5.9727272e-06 0.0000000e+00 -5.0040899e-04 
-2.6557373e-06 0.0000000e+00 -1.9570596e-03 
6.4543713e-07 0.0000000e+00 -1.7105902e-03 
-2.5682817e-07 0.0000000e+00 -1.8778631e-03 
5.1532470e-07 0.0000000e+00 -1.9956958e-03 
-2.0706880e-06 0.0000000e+00 -1.7559867e-03 
4.9772725e-06 0.0000000e+00 -3.0122888e-03 
-2.1245899e-06 0.0000000e+00 -4.5557832e-03 
5.1634970e-07 0.0000000e+00 -4.0079360e-03 
-2.0546253e-07 0.0000000e+00 -4.2333365e-03 
4.1225979e-07 0.0000000e+00 -4.3898351e-03 
-1.6565504e-06 0.0000000e+00 -3.9172457e-03 
3.9818178e-06 0.0000000e+00 -6.1856662e-03 
-1.5934423e-06 0.0000000e+00 -7.2727837e-03 
3.8726230e-07 0.0000000e+00 -6.4905314e-03 
-1.5409690e-07 0.0000000e+00 -6.7611425e-03 
3.0919483e-07 0.0000000e+00 -6.9477139e-03 
-1.2424127e-06 0.0000000e+00 -6.2939958e-03 
2.9863636e-06 0.0000000e+00 -9.3496190e-03 
-1.0622949e-06 0.0000000e+00 -9.5862327e-03 
2.5817488e-07 0.0000000e+00 -8.6365482e-03 
-1.0273126e-07 0.0000000e+00 -8.9394525e-03 
2.0612990e-07 0.0000000e+00 -9.1475043e-03 
-8.2827512e-07 0.0000000e+00 -8.3644092e-03 
1.9909091e-06 0.0000000e+00 -1.1982320e-02 
-5.3114741e-07 0.0000000e+00 -1.1123396e-02 
1.2908744e-07 0.0000000e+00 -1.0073252e-02 
-5.1365618e-08 0.0000000e+00 -1.0395532e-02 
1.0306496e-07 0.0000000e+00 -1.0616473e-02 
-4.1413756e-07 0.0000000e+00 -9.7557502e-03 
9.9545457e-07 0.0000000e+00 -1.3711034e-02 
1.0593951e-14 0.0000000e+00 -1.1660632e-02 
1.5568503e-14 0.0000000e+00 -1.0577003e-02 
1.8823908e-14 0.0000000e+00 -1.0905741e-02 
2.0547862e-14 0.0000000e+00 -1.1130977e-02 
2.1576265e-14 0.0000000e+00 -1.0244380e-02 
2.2639143e-14 0.0000000e+00 -1.4312121e-02 
5.3114746e-07 0.0000000e+00 -1.1123396e-02 
-1.2908741e-07 0.0000000e+00 -1.0073252e-02 
5.1365657e-08 0.0000000e+00 -1.0395532e-02 
-1.0306492e-07 0.0000000e+00 -1.0616473e-02 
4.1413762e-07 0.0000000e+00 -9.7557502e-03 
-9.9545446e-07 0.0000000e+00 -1.3711034e-02 
1.0622949e-06 0.0000000e+00 -9.5862327e-03 
-2.5817482e-07 0.0000000e+00 -8.6365482e-03 
1.0273129e-07 0.0000000e+00 -8.9394525e-03 
-2.0612987e-07 0.0000000e+00 -9.1475043e-03 
8.2827518e-07 0.0000000e+00 -8.3644092e-03 
-1.9909089e-06 0.0000000e+00 -1.1982320e-02 
1.5934423e-06 0.0000000e+00 -7.2727837e-03 
-3.8726225e-07 0.0000000e+00 -6.4905314e-03 
1.5409694e-07 0.0000000e+00 -6.7611425e-03 
-3.0919480e-07 0.0000000e+00 -6.9477139e-03 
1.2424127e-06 0.0000000e+00 -6.2939958e-03 
-2.9863636e-06 0.0000000e+00 -9.3496190e-03 
2.1245899e-06 0.0000000e+00 -4.5557832e-03 
-5.1634970e-07 0.0000000e+00 -4.0079360e-03 
2.0546257e-07 0.0000000e+00 -4.2333365e-03 
-4.1225974e-07 0.0000000e+00 -4.3898351e-03 
1.6565504e-06 0.0000000e+00 -3.9172457e-03 
-3.9818178e-06 0.0000000e+00 -6.1856662e-03 
2.6557373e-06 0.0000000e+00 -1.9570596e-03 
-6.4543713e-07 0.0000000e+00 -1.7105902e-03 
2.5682820e-07 0.0000000e+00 -1.8778631e-03 
-5.1532470e-07 0.0000000e+00 -1.9956958e-03 
2.0706880e-06 0.0000000e+00 -1.7559867e-03 
-4.9772725e-06 0.0000000e+00 -3.0122888e-03 
0.0000000e+00 0.0000000e+00 0.0000000e+00 
2.8689698e-04 0.0000000e+00 -1.2782218e-05 
5.6176749e-04 0.0000000e+00 -2.5475765e-05 
8.1258494e-04 0.0000000e+00 -3.8080638e-05 
1.0273230e-03 0.0000000e+00 -5.0596842e-05 
1.1939551e-03 0.0000000e+00 -6.3024374e-05 
1.3004546e-03 0.0000000e+00 -7.5363227e-05 
1.3347953e-03 0.0000000e+00 -8.7613415e-05 
1.2849504e-03 0.0000000e+00 -9.9774930e-05 
1.1388937e-03 0.0000000e+00 -1.1184777e-04 
8.8459853e-04 0.0000000e+00 -1.2383194e-04 
5.1003840e-04 0.0000000e+00 -1.3572745e-04 
3.1868847e-06 0.0000000e+00 -1.4753427e-04 
-4.5300752e-04 0.0000000e+00 -1.5817874e-04 
-6.9403509e-04 0.0000000e+00 -1.6873452e-04 
-7.5958058e-04 0.0000000e+00 -1.7920163e-04 
-6.8932865e-04 0.0000000e+00 -1.8958008e-04 
-5.2296405e-04 0.0000000e+00 -1.9986984e-04 
-3.0017152e-04 0.0000000e+00 -2.1007095e-04 
-6.0635815e-05 0.0000000e+00 -2.2018337e-04 
1.5595839e-04 0.0000000e+00 -2.3020714e-04 
3.0992634e-04 0.0000000e+00 -2.4014221e-04 
3.6158331e-04 0.0000000e+00 -2.4998863e-04 
2.7124461e-04 0.0000000e+00 -2.5974636e-04 
-7.7452455e-07 0.0000000e+00 -2.6941544e-04 
-2.8508215e-04 0.0000000e+00 -2.7792214e-04 
-4.0780506e-04 0.0000000e+00 -2.8634016e-04 
-4.0190603e-04 0.0000000e+00 -2.9466953e-04 
-3.0034792e-04 0.0000000e+00 -3.0291019e-04 
-1.3609348e-04 0.0000000e+00 -3.1106221e-04 
5.7894431e-05 0.0000000e+00 -3.1912557e-04 
2.4865303e-04 0.0000000e+00 -3.2710022e-04 
4.0321954e-04 0.0000000e+00 -3.3498622e-04 
4.8863108e-04 0.0000000e+00 -3.4278355e-04 
4.7192496e-04 0.0000000e+00 -3.5049219e-04 
3.2013824e-04 0.0000000e+00 -3.5811219e-04 
3.0819385e-07 0.0000000e+00 -3.6564350e-04 
-3.1463211e-04 0.0000000e+00 -3.7201244e-04 
-4.5353276e-04 0.0000000e+00 -3.7829269e-04 
-4.5203127e-04 0.0000000e+00 -3.8448430e-04 
-3.4576523e-04 0.0000000e+00 -3.9058723e-04 
-1.7037216e-04 0.0000000e+00 -3.9660148e-04 
3.8510370e-05 0.0000000e+00 -4.0252705e-04 
2.4524482e-04 0.0000000e+00 -4.0836397e-04 
4.1419364e-04 0.0000000e+00 -4.1411220e-04 
5.0971931e-04 0.0000000e+00 -4.1977176e-04 
4.9618416e-04 0.0000000e+00 -4.2534267e-04 
3.3795083e-04 0.0000000e+00 -4.3082488e-04 
-6.1838961e-07 0.0000000e+00 -4.3621843e-04 
-3.4899884e-04 0.0000000e+00 -4.4044963e-04 
-5.3308811e-04 0.0000000e+00 -4.4459212e-04 
-5.8315683e-04 0.0000000e+00 -4.4864597e-04 
-5.2947568e-04 0.0000000e+00 -4.5261113e-04 
-4.0231540e-04 0.0000000e+00 -4.5648761e-04 
-2.3194667e-04 0.0000000e+00 -4.6027545e-04 
-4.8640170e-05 0.0000000e+00 -4.6397460e-04 
1.1733342e-04 0.0000000e+00 -4.6758508e-04 
2.3570341e-04 0.0000000e+00 -4.7110688e-04 
2.7619911e-04 0.0000000e+00 -4.7454002e-04 
2.0854980e-04 0.0000000e+00 -4.7788449e-04 
2.4848255e-06 0.0000000e+00 -4.8114028e-04 
-1.6412418e-04 0.0000000e+00 -4.8323369e-04 
-1.2778240e-04 0.0000000e+00 -4.8523844e-04 
5.9674232e-05 0.0000000e+00 -4.8715452e-04 
3.4640983e-04 0.0000000e+00 -4.8898195e-04 
6.8058848e-04 0.0000000e+00 -4.9072067e-04 
1.0103743e-03 0.0000000e+00 -4.9237075e-04 
1.2839312e-03 0.0000000e+00 -4.9393211e-04 
1.4494235e-03 0.0000000e+00 -4.9540482e-04 
1.4550152e-03 0.0000000e+00 -4.9678888e-04 
1.2488703e-03 0.0000000e+00 -4.9808429e-04 
7.7915296e-04 0.0000000e+00 -4.9929100e-04 
-5.9727272e-06 0.0000000e+00 -5.0040899e-04 
ROTATION 3 212  float
0.0000000e+00 -1.1556055e-03 0.0000000e+00 
0.0000000e+00 -1.1315526e-03 0.0000000e+00 
0.0000000e+00 -1.0593936e-03 0.0000000e+00 
0.0000000e+00 -9.3912869e-04 0.0000000e+00 
0.0000000e+00 -7.7075779e-04 0.0000000e+00 
0.0000000e+00 -5.5428094e-04 0.0000000e+00 
0.0000000e+00 -2.8969810e-04 0.0000000e+00 
0.0000000e+00 2.2990691e-05 0.0000000e+00 
0.0000000e+00 3.8378546e-04 0.0000000e+00 
0.0000000e+00 7.9268619e-04 0.0000000e+00 
0.0000000e+00 1.2496930e-03 0.0000000e+00 
0.0000000e+00 1.7548056e-03 0.0000000e+00 
0.0000000e+00 2.3080243e-03 0.0000000e+00 
0.0000000e+00 1.3679875e-03 0.0000000e+00 
0.0000000e+00 5.8668957e-04 0.0000000e+00 
0.0000000e+00 -3.5869409e-05 0.0000000e+00 
0.0000000e+00 -4.9968949e-04 0.0000000e+00 
0.0000000e+00 -8.0477068e-04 0.0000000e+00 
0.0000000e+00 -9.5111295e-04 0.0000000e+00 
0.0000000e+00 -9.3871634e-04 0.0000000e+00 
0.0000000e+00 -7.6758082e-04 0.0000000e+00 
0.0000000e+00 -4.3770636e-04 0.0000000e+00 
0.0000000e+00 5.0906972e-05 0.0000000e+00 
0.0000000e+00 6.9825922e-04 0.0000000e+00 
0.0000000e+00 1.5043503e-03 0.0000000e+00 
0.0000000e+00 7.9208583e-04 0.0000000e+00 
0.0000000e+00 2.1167257e-04 0.0000000e+00 
0.0000000e+00 -2.3688948e-04 0.0000000e+00 
0.0000000e+00 -5.5360032e-04 0.0000000e+00 
0.0000000e+00 -7.3845987e-04 0.0000000e+00 
0.0000000e+00 -7.9146825e-04 0.0000000e+00 
0.0000000e+00 -7.1262539e-04 0.0000000e+00 
0.0000000e+00 -5.0193135e-04 0.0000000e+00 
0.0000000e+00 -1.5938602e-04 0.0000000e+00 
0.0000000e+00 3.1501052e-04 0.0000000e+00 
0.0000000e+00 9.2125830e-04 0.0000000e+00 
0.0000000e+00 1.6593573e-03 0.0000000e+00 
0.0000000e+00 8.8392349e-04 0.0000000e+00 
0.0000000e+00 2.5103995e-04 0.0000000e+00 
0.0000000e+00 -2.3929341e-04 0.0000000e+00 
0.0000000e+00 -5.8707659e-04 0.0000000e+00 
0.0000000e+00 -7.9230958e-04 0.0000000e+00 
0.0000000e+00 -8.5499231e-04 0.0000000e+00 
0.0000000e+00 -7.7512488e-04 0.0000000e+00 
0.0000000e+00 -5.5270729e-04 0.0000000e+00 
0.0000000e+00 -1.8773945e-04 0.0000000e+00 
0.0000000e+00 3.1977857e-04 0.0000000e+00 
0.0000000e+00 9.6984679e-04 0.0000000e+00 
0.0000000e+00 1.7624652e-03 0.0000000e+00 
0.0000000e+00 1.0447589e-03 0.0000000e+00 
0.0000000e+00 4.4813546e-04 0.0000000e+00 
0.0000000e+00 -2.7405276e-05 0.0000000e+00 
0.0000000e+00 -3.8186327e-04 0.0000000e+00 
0.0000000e+00 -6.1523850e-04 0.0000000e+00 
0.0000000e+00 -7.2753092e-04 0.0000000e+00 
0.0000000e+00 -7.1874063e-04 0.0000000e+00 
0.0000000e+00 -5.8886758e-04 0.0000000e+00 
0.0000000e+00 -3.3791180e-04 0.0000000e+00 
0.0000000e+00 3.4126755e-05 0.0000000e+00 
0.0000000e+00 5.2724808e-04 0.0000000e+00 
0.0000000e+00 1.1414521e-03 0.0000000e+00 
0.0000000e+00 2.2597719e-04 0.0000000e+00 
0.0000000e+00 -4.8215411e-04 0.0000000e+00 
0.0000000e+00 -9.8294171e-04 0.0000000e+00 
0.0000000e+00 -1.2763857e-03 0.0000000e+00 
0.0000000e+00 -1.3624860e-03 0.0000000e+00 
0.0000000e+00 -1.2412427e-03 0.0000000e+00 
0.0000000e+00 -9.1265579e-04 0.0000000e+00 
0.0000000e+00 -3.7672513e-04 0.0000000e+00 
0.0000000e+00 3.6654915e-04 0.0000000e+00 
0.0000000e+00 1.3171671e-03 0.0000000e+00 
0.0000000e+00 2.4751287e-03 0.0000000e+00 
0.0000000e+00 3.8404339e-03 0.0000000e+00 
0.0000000e+00 4.6567386e-03 0.0000000e+00 
0.0000000e+00 3.9870101e-03 0.0000000e+00 
0.0000000e+00 4.1161827e-03 0.0000000e+00 
0.0000000e+00 4.2021060e-03 0.0000000e+00 
0.0000000e+00 3.6845950e-03 0.0000000e+00 
0.0000000e+00 5.9337467e-03 0.0000000e+00 
0.0000000e+00 5.5145156e-03 0.0000000e+00 
0.0000000e+00 4.9787331e-03 0.0000000e+00 
0.0000000e+00 5.0820708e-03 0.0000000e+00 
0.0000000e+00 5.1508094e-03 0.0000000e+00 
0.0000000e+00 4.7368007e-03 0.0000000e+00 
0.0000000e+00 6.5361219e-03 0.0000000e+00 
0.0000000e+00 5.1795426e-03 0.0000000e+00 
0.0000000e+00 4.7777058e-03 0.0000000e+00 
0.0000000e+00 4.8552090e-03 0.0000000e+00 
0.0000000e+00 4.9067633e-03 0.0000000e+00 
0.0000000e+00 4.5962567e-03 0.0000000e+00 
0.0000000e+00 5.9457477e-03 0.0000000e+00 
0.0000000e+00 3.9500077e-03 0.0000000e+00 
0.0000000e+00 3.6821163e-03 0.0000000e+00 
0.0000000e+00 3.7337854e-03 0.0000000e+00 
0.0000000e+00 3.7681547e-03 0.0000000e+00 
0.0000000e+00 3.5611503e-03 0.0000000e+00 
0.0000000e+00 4.4608107e-03 0.0000000e+00 
0.0000000e+00 2.1240974e-03 0.0000000e+00 
0.0000000e+00 1.9901518e-03 0.0000000e+00 
0.0000000e+00 2.0159862e-03 0.0000000e+00 
0.0000000e+00 2.0331710e-03 0.0000000e+00 
0.0000000e+00 1.9296688e-03 0.0000000e+00 
0.0000000e+00 2.3794991e-03 0.0000000e+00 
0.0000000e+00 -8.8676965e-16 0.0000000e+00 
0.0000000e+00 -4.6201444e-16 0.0000000e+00 
0.0000000e+00 -4.1730335e-16 0.0000000e+00 
0.0000000e+00 -8.1970303e-17 0.0000000e+00 
0.0000000e+00 -1.4903692e-16 0.0000000e+00 
0.0000000e+00 -2.0737800e-17 0.0000000e+00 
0.0000000e+00 -2.1240974e-03 0.0000000e+00 
0.0000000e+00 -1.9901518e-03 0.0000000e+00 
0.0000000e+00 -2.0159862e-03 0.0000000e+00 
0.0000000e+00 -2.0331710e-03 0.0000000e+00 
0.0000000e+00 -1.9296688e-03 0.0000000e+00 
0.0000000e+00 -2.3794991e-03 0.0000000e+00 
0.0000000e+00 -3.9500077e-03 0.0000000e+00 
0.0000000e+00 -3.6821163e-03 0.0000000e+00 
0.0000000e+00 -3.7337854e-03 0.0000000e+00 
0.0000000e+00 -3.7681547e-03 0.0000000e+00 
0.0000000e+00 -3.5611503e-03 0.0000000e+00 
0.0000000e+00 -4.4608107e-03 0.0000000e+00 
0.0000000e+00 -5.1795426e-03 0.0000000e+00 
0.0000000e+00 -4.7777058e-03 0.0000000e+00 
0.0000000e+00 -4.8552090e-03 0.0000000e+00 
0.0000000e+00 -4.9067633e-03 0.0000000e+00 
0.0000000e+00 -4.5962567e-03 0.0000000e+00 
0.0000000e+00 -5.9457477e-03 0.0000000e+00 
0.0000000e+00 -5.5145156e-03 0.0000000e+00 
0.0000000e+00 -4.9787331e-03 0.0000000e+00 
0.0000000e+00 -5.0820708e-03 0.0000000e+00 
0.0000000e+00 -5.1508094e-03 0.0000000e+00 
0.0000000e+00 -4.7368007e-03 0.0000000e+00 
0.0000000e+00 -6.5361219e-03 0.0000000e+00 
0.0000000e+00 -4.6567386e-03 0.0000000e+00 
0.0000000e+00 -3.9870101e-03 0.0000000e+00 
0.0000000e+00 -4.1161827e-03 0.0000000e+00 
0.0000000e+00 -4.2021060e-03 0.0000000e+00 
0.0000000e+00 -3.6845950e-03 0.0000000e+00 
0.0000000e+00 -5.9337467e-03 0.0000000e+00 
0.0000000e+00 1.1556055e-03 0.0000000e+00 
0.0000000e+00 1.1315526e-03 0.0000000e+00 
0.0000000e+00 1.0593936e-03 0.0000000e+00 
0.0000000e+00 9.3912869e-04 0.0000000e+00 
0.0000000e+00 7.7075779e-04 0.0000000e+00 
0.0000000e+00 5.5428094e-04 0.0000000e+00 
0.0000000e+00 2.8969810e-04 0.0000000e+00 
0.0000000e+00 -2.2990691e-05 0.0000000e+00 
0.0000000e+00 -3.8378546e-04 0.0000000e+00 
0.0000000e+00 -7.9268619e-04 0.0000000e+00 
0.0000000e+00 -1.2496930e-03 0.0000000e+00 
0.0000000e+00 -1.7548056e-03 0.0000000e+00 
0.0000000e+00 -2.3080243e-03 0.0000000e+00 
0.0000000e+00 -1.3679875e-03 0.0000000e+00 
0.0000000e+00 -5.8668957e-04 0.0000000e+00 
0.0000000e+00 3.5869409e-05 0.0000000e+00 
0.0000000e+00 4.9968949e-04 0.0000000e+00 
0.0000000e+00 8.0477068e-04 0.0000000e+00 
0.0000000e+00 9.5111295e-04 0.0000000e+00 
0.0000000e+00 9.3871634e-04 0.0000000e+00 
0.0000000e+00 7.6758082e-04 0.0000000e+00 
0.0000000e+00 4.3770636e-04 0.0000000e+00 
0.0000000e+00 -5.0906972e-05 0.0000000e+00 
0.0000000e+00 -6.9825922e-04 0.0000000e+00 
0.0000000e+00 -1.5043503e-03 0.0000000e+00 
0.0000000e+00 -7.9208583e-04 0.0000000e+00 
0.0000000e+00 -2.1167257e-04 0.0000000e+00 
0.0000000e+00 2.3688948e-04 0.0000000e+00 
0.0000000e+00 5.5360032e-04 0.0000000e+00 
0.0000000e+00 7.3845987e-04 0.0000000e+00 
0.0000000e+00 7.9146825e-04 0.0000000e+00 
0.0000000e+00 7.1262539e-04 0.0000000e+00 
0.0000000e+00 5.0193135e-04 0.0000000e+00 
0.0000000e+00 1.5938602e-04 0.0000000e+00 
0.0000000e+00 -3.1501052e-04 0.0000000e+00 
0.0000000e+00 -9.2125830e-04 0.0000000e+00 
0.0000000e+00 -1.6593573e-03 0.0000000e+00 
0.0000000e+00 -8.8392349e-04 0.0000000e+00 
0.0000000e+00 -2.5103995e-04 0.0000000e+00 
0.0000000e+00 2.3929341e-04 0.0000000e+00 
0.0000000e+00 5.8707659e-04 0.0000000e+00 
0.0000000e+00 7.9230958e-04 0.0000000e+00 
0.0000000e+00 8.5499231e-04 0.0000000e+00 
0.0000000e+00 7.7512488e-04 0.0000000e+00 
0.0000000e+00 5.5270729e-04 0.0000000e+00 
0.0000000e+00 1.8773945e-04 0.0000000e+00 
0.0000000e+00 -3.1977857e-04 0.0000000e+00 
0.0000000e+00 -9.6984679e-04 0.0000000e+00 
0.0000000e+00 -1.7624652e-03 0.0000000e+00 
0.0000000e+00 -1.0447589e-03 0.0000000e+00 
0.0000000e+00 -4.4813546e-04 0.0000000e+00 
0.0000000e+00 2.7405276e-05 0.0000000e+00 
0.0000000e+00 3.8186327e-04 0.0000000e+00 
0.0000000e+00 6.1523850e-04 0.0000000e+00 
0.0000000e+00 7.2753092e-04 0.0000000e+00 
0.0000000e+00 7.1874063e-04 0.0000000e+00 
0.0000000e+00 5.8886758e-04 0.0000000e+00 
0.0000000e+00 3.3791180e-04 0.0000000e+00 
0.0000000e+00 -3.4126755e-05 0.0000000e+00 
0.0000000e+00 -5.2724808e-04 0.0000000e+00 
0.0000000e+00 -1.1414521e-03 0.0000000e+00 
0.0000000e+00 -2.2597719e-04 0.0000000e+00 
0.0000000e+00 4.8215411e-04 0.0000000e+00 
0.0000000e+00 9.8294171e-04 0.0000000e+00 
0.0000000e+00 1.2763857e-03 0.0000000e+00 