# vtk DataFile Version 4.0
vtk output
ASCII
DATASET UNSTRUCTURED_GRID
POINTS 212 float
0.0000000e+00 0.0000000e+00 0.0000000e+00 
0.0000000e+00 0.0000000e+00 2.5000000e-01 
0.0000000e+00 0.0000000e+00 5.0000000e-01 
0.0000000e+00 0.0000000e+00 7.5000000e-01 
0.0000000e+00 0.0000000e+00 1.0000000e+00 
0.0000000e+00 0.0000000e+00 1.2500000e+00 
0.0000000e+00 0.0000000e+00 1.5000000e+00 
0.0000000e+00 0.0000000e+00 1.7500000e+00 
0.0000000e+00 0.0000000e+00 2.0000000e+00 
0.0000000e+00 0.0000000e+00 2.2500000e+00 
0.0000000e+00 0.0000000e+00 2.5000000e+00 
0.0000000e+00 0.0000000e+00 2.7500000e+00 
0.0000000e+00 0.0000000e+00 3.0000000e+00 
0.0000000e+00 0.0000000e+00 3.2500000e+00 
0.0000000e+00 0.0000000e+00 3.5000000e+00 
0.0000000e+00 0.0000000e+00 3.7500000e+00 
0.0000000e+00 0.0000000e+00 4.0000000e+00 
0.0000000e+00 0.0000000e+00 4.2500000e+00 
0.0000000e+00 0.0000000e+00 4.5000000e+00 
0.0000000e+00 0.0000000e+00 4.7500000e+00 
0.0000000e+00 0.0000000e+00 5.0000000e+00 
0.0000000e+00 0.0000000e+00 5.2500000e+00 
0.0000000e+00 0.0000000e+00 5.5000000e+00 
0.0000000e+00 0.0000000e+00 5.7500000e+00 
0.0000000e+00 0.0000000e+00 6.0000000e+00 
0.0000000e+00 0.0000000e+00 6.2500000e+00 
0.0000000e+00 0.0000000e+00 6.5000000e+00 
0.0000000e+00 0.0000000e+00 6.7500000e+00 
0.0000000e+00 0.0000000e+00 7.0000000e+00 
0.0000000e+00 0.0000000e+00 7.2500000e+00 
0.0000000e+00 0.0000000e+00 7.5000000e+00 
0.0000000e+00 0.0000000e+00 7.7500000e+00 
0.0000000e+00 0.0000000e+00 8.0000000e+00 
0.0000000e+00 0.0000000e+00 8.2500000e+00 
0.0000000e+00 0.0000000e+00 8.5000000e+00 
0.0000000e+00 0.0000000e+00 8.7500000e+00 
0.0000000e+00 0.0000000e+00 9.0000000e+00 
0.0000000e+00 0.0000000e+00 9.2500000e+00 
0.0000000e+00 0.0000000e+00 9.5000000e+00 
0.0000000e+00 0.0000000e+00 9.7500000e+00 
0.0000000e+00 0.0000000e+00 1.0000000e+01 
0.0000000e+00 0.0000000e+00 1.0250000e+01 
0.0000000e+00 0.0000000e+00 1.0500000e+01 
0.0000000e+00 0.0000000e+00 1.0750000e+01 
0.0000000e+00 0.0000000e+00 1.1000000e+01 
0.0000000e+00 0.0000000e+00 1.1250000e+01 
0.0000000e+00 0.0000000e+00 1.1500000e+01 
0.0000000e+00 0.0000000e+00 1.1750000e+01 
0.0000000e+00 0.0000000e+00 1.2000000e+01 
0.0000000e+00 0.0000000e+00 1.2250000e+01 
0.0000000e+00 0.0000000e+00 1.2500000e+01 
0.0000000e+00 0.0000000e+00 1.2750000e+01 
0.0000000e+00 0.0000000e+00 1.3000000e+01 
0.0000000e+00 0.0000000e+00 1.3250000e+01 
0.0000000e+00 0.0000000e+00 1.3500000e+01 
0.0000000e+00 0.0000000e+00 1.3750000e+01 
0.0000000e+00 0.0000000e+00 1.4000000e+01 
0.0000000e+00 0.0000000e+00 1.4250000e+01 
0.0000000e+00 0.0000000e+00 1.4500000e+01 
0.0000000e+00 0.0000000e+00 1.4750000e+01 
0.0000000e+00 0.0000000e+00 1.5000000e+01 
0.0000000e+00 0.0000000e+00 1.5250000e+01 
0.0000000e+00 0.0000000e+00 1.5500000e+01 
0.0000000e+00 0.0000000e+00 1.5750000e+01 
0.0000000e+00 0.0000000e+00 1.6000000e+01 
0.0000000e+00 0.0000000e+00 1.6250000e+01 
0.0000000e+00 0.0000000e+00 1.6500000e+01 
0.0000000e+00 0.0000000e+00 1.6750000e+01 
0.0000000e+00 0.0000000e+00 1.7000000e+01 
0.0000000e+00 0.0000000e+00 1.7250000e+01 
0.0000000e+00 0.0000000e+00 1.7500000e+01 
0.0000000e+00 0.0000000e+00 1.7750000e+01 
0.0000000e+00 0.0000000e+00 1.8000000e+01 
5.0000000e-01 0.0000000e+00 3.0000000e+00 
5.0000000e-01 0.0000000e+00 6.0000000e+00 
5.0000000e-01 0.0000000e+00 9.0000000e+00 
5.0000000e-01 0.0000000e+00 1.2000000e+01 
5.0000000e-01 0.0000000e+00 1.5000000e+01 
5.0000000e-01 0.0000000e+00 1.8000000e+01 
1.0000000e+00 0.0000000e+00 3.0000000e+00 
1.0000000e+00 0.0000000e+00 6.0000000e+00 
1.0000000e+00 0.0000000e+00 9.0000000e+00 
1.0000000e+00 0.0000000e+00 1.2000000e+01 
1.0000000e+00 0.0000000e+00 1.5000000e+01 
1.0000000e+00 0.0000000e+00 1.8000000e+01 
1.5000000e+00 0.0000000e+00 3.0000000e+00 
1.5000000e+00 0.0000000e+00 6.0000000e+00 
1.5000000e+00 0.0000000e+00 9.0000000e+00 
1.5000000e+00 0.0000000e+00 1.2000000e+01 
1.5000000e+00 0.0000000e+00 1.5000000e+01 
1.5000000e+00 0.0000000e+00 1.8000000e+01 
2.0000000e+00 0.0000000e+00 3.0000000e+00 
2.0000000e+00 0.0000000e+00 6.0000000e+00 
2.0000000e+00 0.0000000e+00 9.0000000e+00 
2.0000000e+00 0.0000000e+00 1.2000000e+01 
2.0000000e+00 0.0000000e+00 1.5000000e+01 
2.0000000e+00 0.0000000e+00 1.8000000e+01 
2.5000000e+00 0.0000000e+00 3.0000000e+00 
2.5000000e+00 0.0000000e+00 6.0000000e+00 
2.5000000e+00 0.0000000e+00 9.0000000e+00 
2.5000000e+00 0.0000000e+00 1.2000000e+01 
2.5000000e+00 0.0000000e+00 1.5000000e+01 
2.5000000e+00 0.0000000e+00 1.8000000e+01 
3.0000000e+00 0.0000000e+00 3.0000000e+00 
3.0000000e+00 0.0000000e+00 6.0000000e+00 
3.0000000e+00 0.0000000e+00 9.0000000e+00 
3.0000000e+00 0.0000000e+00 1.2000000e+01 
3.0000000e+00 0.0000000e+00 1.5000000e+01 
3.0000000e+00 0.0000000e+00 1.8000000e+01 
3.5000000e+00 0.0000000e+00 3.0000000e+00 
3.5000000e+00 0.0000000e+00 6.0000000e+00 
3.5000000e+00 0.0000000e+00 9.0000000e+00 
3.5000000e+00 0.0000000e+00 1.2000000e+01 
3.5000000e+00 0.0000000e+00 1.5000000e+01 
3.5000000e+00 0.0000000e+00 1.8000000e+01 
4.0000000e+00 0.0000000e+00 3.0000000e+00 
4.0000000e+00 0.0000000e+00 6.0000000e+00 
4.0000000e+00 0.0000000e+00 9.0000000e+00 
4.0000000e+00 0.0000000e+00 1.2000000e+01 
4.0000000e+00 0.0000000e+00 1.5000000e+01 
4.0000000e+00 0.0000000e+00 1.8000000e+01 
4.5000000e+00 0.0000000e+00 3.0000000e+00 
4.5000000e+00 0.0000000e+00 6.0000000e+00 
4.5000000e+00 0.0000000e+00 9.0000000e+00 
4.5000000e+00 0.0000000e+00 1.2000000e+01 
4.5000000e+00 0.0000000e+00 1.5000000e+01 
4.5000000e+00 0.0000000e+00 1.8000000e+01 
5.0000000e+00 0.0000000e+00 3.0000000e+00 
5.0000000e+00 0.0000000e+00 6.0000000e+00 
5.0000000e+00 0.0000000e+00 9.0000000e+00 
5.0000000e+00 0.0000000e+00 1.2000000e+01 
5.0000000e+00 0.0000000e+00 1.5000000e+01 
5.0000000e+00 0.0000000e+00 1.8000000e+01 
5.5000000e+00 0.0000000e+00 3.0000000e+00 
5.5000000e+00 0.0000000e+00 6.0000000e+00 
5.5000000e+00 0.0000000e+00 9.0000000e+00 
5.5000000e+00 0.0000000e+00 1.2000000e+01 
5.5000000e+00 0.0000000e+00 1.5000000e+01 
5.5000000e+00 0.0000000e+00 1.8000000e+01 
6.0000000e+00 0.0000000e+00 0.0000000e+00 
6.0000000e+00 0.0000000e+00 2.5000000e-01 
6.0000000e+00 0.0000000e+00 5.0000000e-01 
6.0000000e+00 0.0000000e+00 7.5000000e-01 
6.0000000e+00 0.0000000e+00 1.0000000e+00 
6.0000000e+00 0.0000000e+00 1.2500000e+00 
6.0000000e+00 0.0000000e+00 1.5000000e+00 
6.0000000e+00 0.0000000e+00 1.7500000e+00 
6.0000000e+00 0.0000000e+00 2.0000000e+00 
6.0000000e+00 0.0000000e+00 2.2500000e+00 
6.0000000e+00 0.0000000e+00 2.5000000e+00 
6.0000000e+00 0.0000000e+00 2.7500000e+00 
6.0000000e+00 0.0000000e+00 3.0000000e+00 
6.0000000e+00 0.0000000e+00 3.2500000e+00 
6.0000000e+00 0.0000000e+00 3.5000000e+00 
6.0000000e+00 0.0000000e+00 3.7500000e+00 
6.0000000e+00 0.0000000e+00 4.0000000e+00 
6.0000000e+00 0.0000000e+00 4.2500000e+00 
6.0000000e+00 0.0000000e+00 4.5000000e+00 
6.0000000e+00 0.0000000e+00 4.7500000e+00 
6.0000000e+00 0.0000000e+00 5.0000000e+00 
6.0000000e+00 0.0000000e+00 5.2500000e+00 
6.0000000e+00 0.0000000e+00 5.5000000e+00 
6.0000000e+00 0.0000000e+00 5.7500000e+00 
6.0000000e+00 0.0000000e+00 6.0000000e+00 
6.0000000e+00 0.0000000e+00 6.2500000e+00 
6.0000000e+00 0.0000000e+00 6.5000000e+00 
6.0000000e+00 0.0000000e+00 6.7500000e+00 
6.0000000e+00 0.0000000e+00 7.0000000e+00 
6.0000000e+00 0.0000000e+00 7.2500000e+00 
6.0000000e+00 0.0000000e+00 7.5000000e+00 
6.0000000e+00 0.0000000e+00 7.7500000e+00 
6.0000000e+00 0.0000000e+00 8.0000000e+00 
6.0000000e+00 0.0000000e+00 8.2500000e+00 
6.0000000e+00 0.0000000e+00 8.5000000e+00 
6.0000000e+00 0.0000000e+00 8.7500000e+00 
6.0000000e+00 0.0000000e+00 9.0000000e+00 
6.0000000e+00 0.0000000e+00 9.2500000e+00 
6.0000000e+00 0.0000000e+00 9.5000000e+00 
6.0000000e+00 0.0000000e+00 9.7500000e+00 
6.0000000e+00 0.0000000e+00 1.0000000e+01 
6.0000000e+00 0.0000000e+00 1.0250000e+01 
6.0000000e+00 0.0000000e+00 1.0500000e+01 
6.0000000e+00 0.0000000e+00 1.0750000e+01 
6.0000000e+00 0.0000000e+00 1.1000000e+01 
6.0000000e+00 0.0000000e+00 1.1250000e+01 
6.0000000e+00 0.0000000e+00 1.1500000e+01 
6.0000000e+00 0.0000000e+00 1.1750000e+01 
6.0000000e+00 0.0000000e+00 1.2000000e+01 
6.0000000e+00 0.0000000e+00 1.2250000e+01 
6.0000000e+00 0.0000000e+00 1.2500000e+01 
6.0000000e+00 0.0000000e+00 1.2750000e+01 
6.0000000e+00 0.0000000e+00 1.3000000e+01 
6.0000000e+00 0.0000000e+00 1.3250000e+01 
6.0000000e+00 0.0000000e+00 1.3500000e+01 
6.0000000e+00 0.0000000e+00 1.3750000e+01 
6.0000000e+00 0.0000000e+00 1.4000000e+01 
6.0000000e+00 0.0000000e+00 1.4250000e+01 
6.0000000e+00 0.0000000e+00 1.4500000e+01 
6.0000000e+00 0.0000000e+00 1.4750000e+01 
6.0000000e+00 0.0000000e+00 1.5000000e+01 
6.0000000e+00 0.0000000e+00 1.5250000e+01 
6.0000000e+00 0.0000000e+00 1.5500000e+01 
6.0000000e+00 0.0000000e+00 1.5750000e+01 
6.0000000e+00 0.0000000e+00 1.6000000e+01 
6.0000000e+00 0.0000000e+00 1.6250000e+01 
6.0000000e+00 0.0000000e+00 1.6500000e+01 
6.0000000e+00 0.0000000e+00 1.6750000e+01 
6.0000000e+00 0.0000000e+00 1.7000000e+01 
6.0000000e+00 0.0000000e+00 1.7250000e+01 
6.0000000e+00 0.0000000e+00 1.7500000e+01 
6.0000000e+00 0.0000000e+00 1.7750000e+01 
6.0000000e+00 0.0000000e+00 1.8000000e+01 

CELLS 216 648
2 0 1
2 1 2
2 2 3
2 3 4
2 4 5
2 5 6
2 6 7
2 7 8
2 8 9
2 9 10
2 10 11
2 11 12
2 12 13
2 13 14
2 14 15
2 15 16
2 16 17
2 17 18
2 18 19
2 19 20
2 20 21
2 21 22
2 22 23
2 23 24
2 24 25
2 25 26
2 26 27
2 27 28
2 28 29
2 29 30
2 30 31
2 31 32
2 32 33
2 33 34
2 34 35
2 35 36
2 36 37
2 37 38
2 38 39
2 39 40
2 40 41
2 41 42
2 42 43
2 43 44
2 44 45
2 45 46
2 46 47
2 47 48
2 48 49
2 49 50
2 50 51
2 51 52
2 52 53
2 53 54
2 54 55
2 55 56
2 56 57
2 57 58
2 58 59
2 59 60
2 60 61
2 61 62
2 62 63
2 63 64
2 64 65
2 65 66
2 66 67
2 67 68
2 68 69
2 69 70
2 70 71
2 71 72
2 139 140
2 140 141
2 141 142
2 142 143
2 143 144
2 144 145
2 145 146
2 146 147
2 147 148
2 148 149
2 149 150
2 150 151
2 151 152
2 152 153
2 153 154
2 154 155
2 155 156
2 156 157
2 157 158
2 158 159
2 159 160
2 160 161
2 161 162
2 162 163
2 163 164
2 164 165
2 165 166
2 166 167
2 167 168
2 168 169
2 169 170
2 170 171
2 171 172
2 172 173
2 173 174
2 174 175
2 175 176
2 176 177
2 177 178
2 178 179
2 179 180
2 180 181
2 181 182
2 182 183
2 183 184
2 184 185
2 185 186
2 186 187
2 187 188
2 188 189
2 189 190
2 190 191
2 191 192
2 192 193
2 193 194
2 194 195
2 195 196
2 196 197
2 197 198
2 198 199
2 199 200
2 200 201
2 201 202
2 202 203
2 203 204
2 204 205
2 205 206
2 206 207
2 207 208
2 208 209
2 209 210
2 210 211
2 12 73
2 73 79
2 79 85
2 85 91
2 91 97
2 97 103
2 103 109
2 109 115
2 115 121
2 121 127
2 127 133
2 133 151
2 24 74
2 74 80
2 80 86
2 86 92
2 92 98
2 98 104
2 104 110
2 110 116
2 116 122
2 122 128
2 128 134
2 134 163
2 36 75
2 75 81
2 81 87
2 87 93
2 93 99
2 99 105
2 105 111
2 111 117
2 117 123
2 123 129
2 129 135
2 135 175
2 48 76
2 76 82
2 82 88
2 88 94
2 94 100
2 100 106
2 106 112
2 112 118
2 118 124
2 124 130
2 130 136
2 136 187
2 60 77
2 77 83
2 83 89
2 89 95
2 95 101
2 101 107
2 107 113
2 113 119
2 119 125
2 125 131
2 131 137
2 137 199
2 72 78
2 78 84
2 84 90
2 90 96
2 96 102
2 102 108
2 108 114
2 114 120
2 120 126
2 126 132
2 132 138
2 138 211

CELL_TYPES 216
3
3
3
3
3
3
3
3
3
3
3
3
3
3
3
3
3
3
3
3
3
3
3
3
3
3
3
3
3
3
3
3
3
3
3
3
3
3
3
3
3
3
3
3
3
3
3
3
3
3
3
3
3
3
3
3
3
3
3
3
3
3
3
3
3
3
3
3
3
3
3
3
3
3
3
3
3
3
3
3
3
3
3
3
3
3
3
3
3
3
3
3
3
3
3
3
3
3
3
3
3
3
3
3
3
3
3
3
3
3
3
3
3
3
3
3
3
3
3
3
3
3
3
3
3
3
3
3
3
3
3
3
3
3
3
3
3
3
3
3
3
3
3
3
3
3
3
3
3
3
3
3
3
3
3
3
3
3
3
3
3
3
3
3
3
3
3
3
3
3
3
3
3
3
3
3
3
3
3
3
3
3
3
3
3
3
3
3
3
3
3
3
3
3
3
3
3
3
3
3
3
3
3
3
3
3
3
3
3
3
3
3
3
3
3
3
POINT_DATA 212
FIELD FieldData 8
DISPLACEMENT 3 212  float
0.0000000e+00 0.0000000e+00 0.0000000e+00 
-9.9849138e-05 0.0000000e+00 -5.6243753e-05 
-1.9555785e-04 0.0000000e+00 -1.1210171e-04 
-2.8298568e-04 0.0000000e+00 -1.6757387e-04 
-3.5799219e-04 0.0000000e+00 -2.2266024e-04 
-4.1643696e-04 0.0000000e+00 -2.7736078e-04 
-4.5417956e-04 0.0000000e+00 -3.3167558e-04 
-4.6707955e-04 0.0000000e+00 -3.8560454e-04 
-4.5099645e-04 0.0000000e+00 -4.3914773e-04 
-4.0178988e-04 0.0000000e+00 -4.9230509e-04 
-3.1531937e-04 0.0000000e+00 -5.4507668e-04 
-1.8744449e-04 0.0000000e+00 -5.9746247e-04 
-1.4024807e-05 0.0000000e+00 -6.4946245e-04 
1.4247351e-04 0.0000000e+00 -6.9630012e-04 
2.2581662e-04 0.0000000e+00 -7.4275193e-04 
2.4949340e-04 0.0000000e+00 -7.8881800e-04 
2.2699274e-04 0.0000000e+00 -8.3449826e-04 
1.7180352e-04 0.0000000e+00 -8.7979273e-04 
9.7414624e-05 0.0000000e+00 -9.2470139e-04 
1.7314942e-05 0.0000000e+00 -9.6922426e-04 
-5.5006640e-05 0.0000000e+00 -1.0133613e-03 
-1.0606123e-04 0.0000000e+00 -1.0571126e-03 
-1.2235995e-04 0.0000000e+00 -1.1004781e-03 
-9.0413923e-05 0.0000000e+00 -1.1434577e-03 
3.2657504e-06 0.0000000e+00 -1.1860516e-03 
1.0078509e-04 0.0000000e+00 -1.2234831e-03 
1.4279888e-04 0.0000000e+00 -1.2605289e-03 
1.4061916e-04 0.0000000e+00 -1.2971888e-03 
1.0555800e-04 0.0000000e+00 -1.3334630e-03 
4.8927443e-05 0.0000000e+00 -1.3693513e-03 
-1.7960465e-05 0.0000000e+00 -1.4048539e-03 
-8.3793668e-05 0.0000000e+00 -1.4399707e-03 
-1.3726013e-04 0.0000000e+00 -1.4747016e-03 
-1.6704776e-04 0.0000000e+00 -1.5090468e-03 
-1.6184457e-04 0.0000000e+00 -1.5430062e-03 
-1.1033846e-04 0.0000000e+00 -1.5765798e-03 
-1.2174081e-06 0.0000000e+00 -1.6097674e-03 
1.0647318e-04 0.0000000e+00 -1.6377929e-03 
1.5422888e-04 0.0000000e+00 -1.6654326e-03 
1.5417323e-04 0.0000000e+00 -1.6926863e-03 
1.1842975e-04 0.0000000e+00 -1.7195544e-03 
5.9121972e-05 0.0000000e+00 -1.7460367e-03 
-1.1626568e-05 0.0000000e+00 -1.7721331e-03 
-8.1692335e-05 0.0000000e+00 -1.7978437e-03 
-1.3895180e-04 0.0000000e+00 -1.8231686e-03 
-1.7128144e-04 0.0000000e+00 -1.8481077e-03 
-1.6655771e-04 0.0000000e+00 -1.8726609e-03 
-1.1265709e-04 0.0000000e+00 -1.8968284e-03 
2.5439758e-06 0.0000000e+00 -1.9206101e-03 
1.2073505e-04 0.0000000e+00 -1.9392293e-03 
1.8247523e-04 0.0000000e+00 -1.9574629e-03 
1.9819233e-04 0.0000000e+00 -1.9753105e-03 
1.7831416e-04 0.0000000e+00 -1.9927726e-03 
1.3326852e-04 0.0000000e+00 -2.0098486e-03 
7.3483214e-05 0.0000000e+00 -2.0265391e-03 
9.3860526e-06 0.0000000e+00 -2.0428435e-03 
-4.8595160e-05 0.0000000e+00 -2.0587624e-03 
-9.0032619e-05 0.0000000e+00 -2.0742952e-03 
-1.0449851e-04 0.0000000e+00 -2.0894425e-03 
-8.1565042e-05 0.0000000e+00 -2.1042037e-03 
-1.0804399e-05 0.0000000e+00 -2.1185793e-03 
4.7104277e-05 0.0000000e+00 -2.1277925e-03 
3.6283061e-05 0.0000000e+00 -2.1366200e-03 
-2.5638403e-05 0.0000000e+00 -2.1450615e-03 
-1.2103047e-04 0.0000000e+00 -2.1531174e-03 
-2.3226350e-04 0.0000000e+00 -2.1607873e-03 
-3.4170784e-04 0.0000000e+00 -2.1680717e-03 
-4.3173385e-04 0.0000000e+00 -2.1749700e-03 
-4.8471190e-04 0.0000000e+00 -2.1814827e-03 
-4.8301232e-04 0.0000000e+00 -2.1876094e-03 
-4.0900550e-04 0.0000000e+00 -2.1933506e-03 
-2.4506179e-04 0.0000000e+00 -2.1987057e-03 
2.6448488e-05 0.0000000e+00 -2.2036752e-03 
-1.1687339e-05 0.0000000e+00 -1.2685114e-03 
2.7214585e-06 0.0000000e+00 -1.6794632e-03 
-1.0145068e-06 0.0000000e+00 -2.1263827e-03 
2.1199799e-06 0.0000000e+00 -2.4522461e-03 
-9.0036656e-06 0.0000000e+00 -2.5553545e-03 
2.2040407e-05 0.0000000e+00 -3.0676536e-03 
-9.3498711e-06 0.0000000e+00 -2.1570718e-03 
2.1771668e-06 0.0000000e+00 -2.4652295e-03 
-8.1160545e-07 0.0000000e+00 -2.9311334e-03 
1.6959839e-06 0.0000000e+00 -3.2692868e-03 
-7.2029325e-06 0.0000000e+00 -3.2947818e-03 
1.7632325e-05 0.0000000e+00 -4.1566109e-03 
-7.0124033e-06 0.0000000e+00 -3.0859043e-03 
1.6328752e-06 0.0000000e+00 -3.3141109e-03 
-6.0870406e-07 0.0000000e+00 -3.7947807e-03 
1.2719879e-06 0.0000000e+00 -4.1424930e-03 
-5.4021993e-06 0.0000000e+00 -4.1076220e-03 
1.3224244e-05 0.0000000e+00 -5.2413074e-03 
-4.6749356e-06 0.0000000e+00 -3.8767112e-03 
1.0885834e-06 0.0000000e+00 -4.0478101e-03 
-4.0580272e-07 0.0000000e+00 -4.5390269e-03 
8.4799194e-07 0.0000000e+00 -4.8935669e-03 
-3.6014662e-06 0.0000000e+00 -4.8155771e-03 
8.8161623e-06 0.0000000e+00 -6.1434461e-03 
-2.3374678e-06 0.0000000e+00 -4.4021378e-03 
5.4429171e-07 0.0000000e+00 -4.5389719e-03 
-2.0290135e-07 0.0000000e+00 -5.0365170e-03 
4.2399597e-07 0.0000000e+00 -5.3951531e-03 
-1.8007331e-06 0.0000000e+00 -5.2912924e-03 
4.4080812e-06 0.0000000e+00 -6.7356713e-03 
2.9088183e-15 0.0000000e+00 -4.5857700e-03 
5.2631824e-15 0.0000000e+00 -4.7111828e-03 
7.4038997e-15 0.0000000e+00 -5.2108373e-03 
9.1339781e-15 0.0000000e+00 -5.5708392e-03 
1.0451828e-14 0.0000000e+00 -5.4583545e-03 
1.1054238e-14 0.0000000e+00 -6.9415700e-03 
2.3374678e-06 0.0000000e+00 -4.4021378e-03 
-5.4429171e-07 0.0000000e+00 -4.5389719e-03 
2.0290136e-07 0.0000000e+00 -5.0365170e-03 
-4.2399597e-07 0.0000000e+00 -5.3951531e-03 
1.8007332e-06 0.0000000e+00 -5.2912924e-03 
-4.4080812e-06 0.0000000e+00 -6.7356713e-03 
4.6749356e-06 0.0000000e+00 -3.8767112e-03 
-1.0885834e-06 0.0000000e+00 -4.0478101e-03 
4.0580272e-07 0.0000000e+00 -4.5390269e-03 
-8.4799194e-07 0.0000000e+00 -4.8935669e-03 
3.6014662e-06 0.0000000e+00 -4.8155771e-03 
-8.8161623e-06 0.0000000e+00 -6.1434461e-03 
7.0124033e-06 0.0000000e+00 -3.0859043e-03 
-1.6328752e-06 0.0000000e+00 -3.3141109e-03 
6.0870406e-07 0.0000000e+00 -3.7947807e-03 
-1.2719879e-06 0.0000000e+00 -4.1424930e-03 
5.4021993e-06 0.0000000e+00 -4.1076220e-03 
-1.3224244e-05 0.0000000e+00 -5.2413074e-03 
9.3498711e-06 0.0000000e+00 -2.1570718e-03 
-2.1771668e-06 0.0000000e+00 -2.4652295e-03 
8.1160545e-07 0.0000000e+00 -2.9311334e-03 
-1.6959839e-06 0.0000000e+00 -3.2692868e-03 
7.2029325e-06 0.0000000e+00 -3.2947818e-03 
-1.7632325e-05 0.0000000e+00 -4.1566109e-03 
1.1687339e-05 0.0000000e+00 -1.2685114e-03 
-2.7214585e-06 0.0000000e+00 -1.6794632e-03 
1.0145068e-06 0.0000000e+00 -2.1263827e-03 
-2.1199799e-06 0.0000000e+00 -2.4522461e-03 
9.0036656e-06 0.0000000e+00 -2.5553545e-03 
-2.2040405e-05 0.0000000e+00 -3.0676536e-03 
0.0000000e+00 0.0000000e+00 0.0000000e+00 
9.9849138e-05 0.0000000e+00 -5.6243753e-05 
1.9555785e-04 0.0000000e+00 -1.1210171e-04 
2.8298568e-04 0.0000000e+00 -1.6757387e-04 
3.5799219e-04 0.0000000e+00 -2.2266024e-04 
4.1643696e-04 0.0000000e+00 -2.7736078e-04 
4.5417956e-04 0.0000000e+00 -3.3167558e-04 
4.6707955e-04 0.0000000e+00 -3.8560454e-04 
4.5099645e-04 0.0000000e+00 -4.3914773e-04 
4.0178988e-04 0.0000000e+00 -4.9230509e-04 
3.1531937e-04 0.0000000e+00 -5.4507668e-04 
1.8744449e-04 0.0000000e+00 -5.9746247e-04 
1.4024807e-05 0.0000000e+00 -6.4946245e-04 
-1.4247351e-04 0.0000000e+00 -6.9630012e-04 
-2.2581662e-04 0.0000000e+00 -7.4275193e-04 
-2.4949340e-04 0.0000000e+00 -7.8881800e-04 
-2.2699274e-04 0.0000000e+00 -8.3449826e-04 
-1.7180352e-04 0.0000000e+00 -8.7979273e-04 
-9.7414624e-05 0.0000000e+00 -9.2470139e-04 
-1.7314942e-05 0.0000000e+00 -9.6922426e-04 
5.5006640e-05 0.0000000e+00 -1.0133613e-03 
1.0606123e-04 0.0000000e+00 -1.0571126e-03 
1.2235995e-04 0.0000000e+00 -1.1004781e-03 
9.0413923e-05 0.0000000e+00 -1.1434577e-03 
-3.2657504e-06 0.0000000e+00 -1.1860516e-03 
-1.0078509e-04 0.0000000e+00 -1.2234831e-03 
-1.4279888e-04 0.0000000e+00 -1.2605289e-03 
-1.4061916e-04 0.0000000e+00 -1.2971888e-03 
-1.0555800e-04 0.0000000e+00 -1.3334630e-03 
-4.8927443e-05 0.0000000e+00 -1.3693513e-03 
1.7960465e-05 0.0000000e+00 -1.4048539e-03 
8.3793668e-05 0.0000000e+00 -1.4399707e-03 
1.3726013e-04 0.0000000e+00 -1.4747016e-03 
1.6704776e-04 0.0000000e+00 -1.5090468e-03 
1.6184457e-04 0.0000000e+00 -1.5430062e-03 
1.1033846e-04 0.0000000e+00 -1.5765798e-03 
1.2174081e-06 0.0000000e+00 -1.6097674e-03 
-1.0647318e-04 0.0000000e+00 -1.6377929e-03 
-1.5422888e-04 0.0000000e+00 -1.6654326e-03 
-1.5417323e-04 0.0000000e+00 -1.6926863e-03 
-1.1842975e-04 0.0000000e+00 -1.7195544e-03 
-5.9121972e-05 0.0000000e+00 -1.7460367e-03 
1.1626568e-05 0.0000000e+00 -1.7721331e-03 
8.1692335e-05 0.0000000e+00 -1.7978437e-03 
1.3895180e-04 0.0000000e+00 -1.8231686e-03 
1.7128144e-04 0.0000000e+00 -1.8481077e-03 
1.6655771e-04 0.0000000e+00 -1.8726609e-03 
1.1265709e-04 0.0000000e+00 -1.8968284e-03 
-2.5439758e-06 0.0000000e+00 -1.9206101e-03 
-1.2073505e-04 0.0000000e+00 -1.9392293e-03 
-1.8247523e-04 0.0000000e+00 -1.9574629e-03 
-1.9819233e-04 0.0000000e+00 -1.9753105e-03 
-1.7831416e-04 0.0000000e+00 -1.9927726e-03 
-1.3326852e-04 0.0000000e+00 -2.0098486e-03 
-7.3483214e-05 0.0000000e+00 -2.0265391e-03 
-9.3860526e-06 0.0000000e+00 -2.0428435e-03 
4.8595160e-05 0.0000000e+00 -2.0587624e-03 
9.0032619e-05 0.0000000e+00 -2.0742952e-03 
1.0449851e-04 0.0000000e+00 -2.0894425e-03 
8.1565042e-05 0.0000000e+00 -2.1042037e-03 
1.0804399e-05 0.0000000e+00 -2.1185793e-03 
-4.7104277e-05 0.0000000e+00 -2.1277925e-03 
-3.6283058e-05 0.0000000e+00 -2.1366200e-03 
2.5638403e-05 0.0000000e+00 -2.1450615e-03 
1.2103047e-04 0.0000000e+00 -2.1531174e-03 
2.3226350e-04 0.0000000e+00 -2.1607873e-03 
3.4170784e-04 0.0000000e+00 -2.1680717e-03 
4.3173385e-04 0.0000000e+00 -2.1749700e-03 
4.8471190e-04 0.0000000e+00 -2.1814827e-03 
4.8301232e-04 0.0000000e+00 -2.1876094e-03 
4.0900550e-04 0.0000000e+00 -2.1933506e-03 
2.4506179e-04 0.0000000e+00 -2.1987057e-03 
-2.6448488e-05 0.0000000e+00 -2.2036752e-03 
ROTATION 3 212  float
0.0000000e+00 -4.0215685e-04 0.0000000e+00 
0.0000000e+00 -3.9387599e-04 0.0000000e+00 
0.0000000e+00 -3.6903337e-04 0.0000000e+00 
0.0000000e+00 -3.2762901e-04 0.0000000e+00 
0.0000000e+00 -2.6966288e-04 0.0000000e+00 
0.0000000e+00 -1.9513503e-04 0.0000000e+00 
0.0000000e+00 -1.0404542e-04 0.0000000e+00 
0.0000000e+00 3.6059378e-06 0.0000000e+00 
0.0000000e+00 1.2781903e-04 0.0000000e+00 
0.0000000e+00 2.6859390e-04 0.0000000e+00 
0.0000000e+00 4.2593048e-04 0.0000000e+00 
0.0000000e+00 5.9982884e-04 0.0000000e+00 
0.0000000e+00 7.9028890e-04 0.0000000e+00 
0.0000000e+00 4.7069028e-04 0.0000000e+00 
0.0000000e+00 2.0504718e-04 0.0000000e+00 
0.0000000e+00 -6.6403622e-06 0.0000000e+00 
0.0000000e+00 -1.6437237e-04 0.0000000e+00 
0.0000000e+00 -2.6814881e-04 0.0000000e+00 
0.0000000e+00 -3.1796974e-04 0.0000000e+00 
0.0000000e+00 -3.1383510e-04 0.0000000e+00 
0.0000000e+00 -2.5574493e-04 0.0000000e+00 
0.0000000e+00 -1.4369923e-04 0.0000000e+00 
0.0000000e+00 2.2302027e-05 0.0000000e+00 
0.0000000e+00 2.4225883e-04 0.0000000e+00 
0.0000000e+00 5.1617116e-04 0.0000000e+00 
0.0000000e+00 2.7152488e-04 0.0000000e+00 
0.0000000e+00 7.2126786e-05 0.0000000e+00 
0.0000000e+00 -8.2023107e-05 0.0000000e+00 
0.0000000e+00 -1.9092481e-04 0.0000000e+00 
0.0000000e+00 -2.5457831e-04 0.0000000e+00 
0.0000000e+00 -2.7298360e-04 0.0000000e+00 
0.0000000e+00 -2.4614067e-04 0.0000000e+00 
0.0000000e+00 -1.7404956e-04 0.0000000e+00 
0.0000000e+00 -5.6710262e-05 0.0000000e+00 
0.0000000e+00 1.0587725e-04 0.0000000e+00 
0.0000000e+00 3.1371295e-04 0.0000000e+00 
0.0000000e+00 5.6679687e-04 0.0000000e+00 
0.0000000e+00 3.0281022e-04 0.0000000e+00 
0.0000000e+00 8.7317741e-05 0.0000000e+00 
0.0000000e+00 -7.9680634e-05 0.0000000e+00 
0.0000000e+00 -1.9818488e-04 0.0000000e+00 
0.0000000e+00 -2.6819500e-04 0.0000000e+00 
0.0000000e+00 -2.8971097e-04 0.0000000e+00 
0.0000000e+00 -2.6273282e-04 0.0000000e+00 
0.0000000e+00 -1.8726056e-04 0.0000000e+00 
0.0000000e+00 -6.3294159e-05 0.0000000e+00 
0.0000000e+00 1.0916637e-04 0.0000000e+00 
0.0000000e+00 3.3012102e-04 0.0000000e+00 
0.0000000e+00 5.9956982e-04 0.0000000e+00 
0.0000000e+00 3.5291063e-04 0.0000000e+00 
0.0000000e+00 1.4796270e-04 0.0000000e+00 
0.0000000e+00 -1.5274010e-05 0.0000000e+00 
0.0000000e+00 -1.3679950e-04 0.0000000e+00 
0.0000000e+00 -2.1661377e-04 0.0000000e+00 
0.0000000e+00 -2.5471681e-04 0.0000000e+00 
0.0000000e+00 -2.5110861e-04 0.0000000e+00 
0.0000000e+00 -2.0578921e-04 0.0000000e+00 
0.0000000e+00 -1.1875858e-04 0.0000000e+00 
0.0000000e+00 9.9832787e-06 0.0000000e+00 
0.0000000e+00 1.8043636e-04 0.0000000e+00 
0.0000000e+00 3.9260066e-04 0.0000000e+00 
0.0000000e+00 8.2421822e-05 0.0000000e+00 
0.0000000e+00 -1.5723845e-04 0.0000000e+00 
0.0000000e+00 -3.2638016e-04 0.0000000e+00 
0.0000000e+00 -4.2500327e-04 0.0000000e+00 
0.0000000e+00 -4.5310782e-04 0.0000000e+00 
0.0000000e+00 -4.1069381e-04 0.0000000e+00 
0.0000000e+00 -2.9776120e-04 0.0000000e+00 
0.0000000e+00 -1.1431005e-04 0.0000000e+00 
0.0000000e+00 1.3965969e-04 0.0000000e+00 
0.0000000e+00 4.6414800e-04 0.0000000e+00 
0.0000000e+00 8.5915485e-04 0.0000000e+00 
0.0000000e+00 1.3246803e-03 0.0000000e+00 
0.0000000e+00 1.5925129e-03 0.0000000e+00 
0.0000000e+00 1.3640815e-03 0.0000000e+00 
0.0000000e+00 1.4062695e-03 0.0000000e+00 
0.0000000e+00 1.4335803e-03 0.0000000e+00 
0.0000000e+00 1.2611060e-03 0.0000000e+00 
0.0000000e+00 2.0378390e-03 0.0000000e+00 
0.0000000e+00 1.8853158e-03 0.0000000e+00 
0.0000000e+00 1.7025706e-03 0.0000000e+00 
0.0000000e+00 1.7363210e-03 0.0000000e+00 
0.0000000e+00 1.7581696e-03 0.0000000e+00 
0.0000000e+00 1.6201902e-03 0.0000000e+00 
0.0000000e+00 2.2415768e-03 0.0000000e+00 
0.0000000e+00 1.7705816e-03 0.0000000e+00 
0.0000000e+00 1.6335228e-03 0.0000000e+00 
0.0000000e+00 1.6588356e-03 0.0000000e+00 
0.0000000e+00 1.6752221e-03 0.0000000e+00 
0.0000000e+00 1.5717375e-03 0.0000000e+00 
0.0000000e+00 2.0377773e-03 0.0000000e+00 
0.0000000e+00 1.3501948e-03 0.0000000e+00 
0.0000000e+00 1.2588223e-03 0.0000000e+00 
0.0000000e+00 1.2756975e-03 0.0000000e+00 
0.0000000e+00 1.2866218e-03 0.0000000e+00 
0.0000000e+00 1.2176321e-03 0.0000000e+00 
0.0000000e+00 1.5283253e-03 0.0000000e+00 
0.0000000e+00 7.2603952e-04 0.0000000e+00 
0.0000000e+00 6.8035326e-04 0.0000000e+00 
0.0000000e+00 6.8879087e-04 0.0000000e+00 
0.0000000e+00 6.9425302e-04 0.0000000e+00 
0.0000000e+00 6.5975817e-04 0.0000000e+00 
0.0000000e+00 8.1510475e-04 0.0000000e+00 
0.0000000e+00 -3.6170064e-16 0.0000000e+00 
0.0000000e+00 -3.0097717e-16 0.0000000e+00 
0.0000000e+00 -2.4553402e-16 0.0000000e+00 
0.0000000e+00 -2.1649236e-16 0.0000000e+00 
0.0000000e+00 -1.2408708e-16 0.0000000e+00 
0.0000000e+00 -1.4751155e-17 0.0000000e+00 
0.0000000e+00 -7.2603952e-04 0.0000000e+00 
0.0000000e+00 -6.8035326e-04 0.0000000e+00 
0.0000000e+00 -6.8879087e-04 0.0000000e+00 
0.0000000e+00 -6.9425302e-04 0.0000000e+00 
0.0000000e+00 -6.5975817e-04 0.0000000e+00 
0.0000000e+00 -8.1510475e-04 0.0000000e+00 
0.0000000e+00 -1.3501948e-03 0.0000000e+00 
0.0000000e+00 -1.2588223e-03 0.0000000e+00 
0.0000000e+00 -1.2756975e-03 0.0000000e+00 
0.0000000e+00 -1.2866218e-03 0.0000000e+00 
0.0000000e+00 -1.2176321e-03 0.0000000e+00 
0.0000000e+00 -1.5283253e-03 0.0000000e+00 
0.0000000e+00 -1.7705816e-03 0.0000000e+00 
0.0000000e+00 -1.6335228e-03 0.0000000e+00 
0.0000000e+00 -1.6588356e-03 0.0000000e+00 
0.0000000e+00 -1.6752221e-03 0.0000000e+00 
0.0000000e+00 -1.5717375e-03 0.0000000e+00 
0.0000000e+00 -2.0377773e-03 0.0000000e+00 
0.0000000e+00 -1.8853158e-03 0.0000000e+00 
0.0000000e+00 -1.7025706e-03 0.0000000e+00 
0.0000000e+00 -1.7363210e-03 0.0000000e+00 
0.0000000e+00 -1.7581696e-03 0.0000000e+00 
0.0000000e+00 -1.6201902e-03 0.0000000e+00 
0.0000000e+00 -2.2415768e-03 0.0000000e+00 
0.0000000e+00 -1.5925129e-03 0.0000000e+00 
0.0000000e+00 -1.3640815e-03 0.0000000e+00 
0.0000000e+00 -1.4062695e-03 0.0000000e+00 
0.0000000e+00 -1.4335803e-03 0.0000000e+00 
0.0000000e+00 -1.2611060e-03 0.0000000e+00 
0.0000000e+00 -2.0378390e-03 0.0000000e+00 
0.0000000e+00 4.0215685e-04 0.0000000e+00 
0.0000000e+00 3.9387599e-04 0.0000000e+00 
0.0000000e+00 3.6903337e-04 0.0000000e+00 
0.0000000e+00 3.2762901e-04 0.0000000e+00 
0.0000000e+00 2.6966288e-04 0.0000000e+00 
0.0000000e+00 1.9513503e-04 0.0000000e+00 
0.0000000e+00 1.0404542e-04 0.0000000e+00 
0.0000000e+00 -3.6059378e-06 0.0000000e+00 
0.0000000e+00 -1.2781903e-04 0.0000000e+00 
0.0000000e+00 -2.6859390e-04 0.0000000e+00 
0.0000000e+00 -4.2593048e-04 0.0000000e+00 
0.0000000e+00 -5.9982884e-04 0.0000000e+00 
0.0000000e+00 -7.9028890e-04 0.0000000e+00 
0.0000000e+00 -4.7069028e-04 0.0000000e+00 
0.0000000e+00 -2.0504718e-04 0.0000000e+00 
0.0000000e+00 6.6403622e-06 0.0000000e+00 
0.0000000e+00 1.6437237e-04 0.0000000e+00 
0.0000000e+00 2.6814881e-04 0.0000000e+00 
0.0000000e+00 3.1796974e-04 0.0000000e+00 
0.0000000e+00 3.1383510e-04 0.0000000e+00 
0.0000000e+00 2.5574493e-04 0.0000000e+00 
0.0000000e+00 1.4369923e-04 0.0000000e+00 
0.0000000e+00 -2.2302027e-05 0.0000000e+00 
0.0000000e+00 -2.4225883e-04 0.0000000e+00 
0.0000000e+00 -5.1617116e-04 0.0000000e+00 
0.0000000e+00 -2.7152488e-04 0.0000000e+00 
0.0000000e+00 -7.2126786e-05 0.0000000e+00 
0.0000000e+00 8.2023107e-05 0.0000000e+00 
0.0000000e+00 1.9092481e-04 0.0000000e+00 
0.0000000e+00 2.5457831e-04 0.0000000e+00 
0.0000000e+00 2.7298360e-04 0.0000000e+00 
0.0000000e+00 2.4614067e-04 0.0000000e+00 
0.0000000e+00 1.7404956e-04 0.0000000e+00 
0.0000000e+00 5.6710262e-05 0.0000000e+00 
0.0000000e+00 -1.0587725e-04 0.0000000e+00 
0.0000000e+00 -3.1371295e-04 0.0000000e+00 
0.0000000e+00 -5.6679687e-04 0.0000000e+00 
0.0000000e+00 -3.0281022e-04 0.0000000e+00 
0.0000000e+00 -8.7317741e-05 0.0000000e+00 
0.0000000e+00 7.9680634e-05 0.0000000e+00 
0.0000000e+00 1.9818488e-04 0.0000000e+00 
0.0000000e+00 2.6819500e-04 0.0000000e+00 
0.0000000e+00 2.8971097e-04 0.0000000e+00 
0.0000000e+00 2.6273282e-04 0.0000000e+00 
0.0000000e+00 1.8726056e-04 0.0000000e+00 
0.0000000e+00 6.3294159e-05 0.0000000e+00 
0.0000000e+00 -1.0916637e-04 0.0000000e+00 
0.0000000e+00 -3.3012102e-04 0.0000000e+00 
0.0000000e+00 -5.9956982e-04 0.0000000e+00 
0.0000000e+00 -3.5291063e-04 0.0000000e+00 
0.0000000e+00 -1.4796270e-04 0.0000000e+00 
0.0000000e+00 1.5274010e-05 0.0000000e+00 
0.0000000e+00 1.3679950e-04 0.0000000e+00 
0.0000000e+00 2.1661377e-04 0.0000000e+00 
0.0000000e+00 2.5471681e-04 0.0000000e+00 
0.0000000e+00 2.5110861e-04 0.0000000e+00 
0.0000000e+00 2.0578921e-04 0.0000000e+00 
0.0000000e+00 1.1875858e-04 0.0000000e+00 
0.0000000e+00 -9.9832787e-06 0.0000000e+00 
0.0000000e+00 -1.8043636e-04 0.0000000e+00 
0.0000000e+00 -3.9260066e-04 0.0000000e+00 
0.0000000e+00 -8.2421822e-05 0.0000000e+00 
0.0000000e+00 1.5723845e-04 0.0000000e+00 
0.0000000e+00 3.2638016e-04 0.0000000e+00 
0.0000000e+00 4.2500327e-04 0.0000000e+00 