# vtk DataFile Version 4.0
vtk output
ASCII
DATASET UNSTRUCTURED_GRID
POINTS 212 float
0.0000000e+00 0.0000000e+00 0.0000000e+00 
0.0000000e+00 0.0000000e+00 2.5000000e-01 
0.0000000e+00 0.0000000e+00 5.0000000e-01 
0.0000000e+00 0.0000000e+00 7.5000000e-01 
0.0000000e+00 0.0000000e+00 1.0000000e+00 
0.0000000e+00 0.0000000e+00 1.2500000e+00 
0.0000000e+00 0.0000000e+00 1.5000000e+00 
0.0000000e+00 0.0000000e+00 1.7500000e+00 
0.0000000e+00 0.0000000e+00 2.0000000e+00 
0.0000000e+00 0.0000000e+00 2.2500000e+00 
0.0000000e+00 0.0000000e+00 2.5000000e+00 
0.0000000e+00 0.0000000e+00 2.7500000e+00 
0.0000000e+00 0.0000000e+00 3.0000000e+00 
0.0000000e+00 0.0000000e+00 3.2500000e+00 
0.0000000e+00 0.0000000e+00 3.5000000e+00 
0.0000000e+00 0.0000000e+00 3.7500000e+00 
0.0000000e+00 0.0000000e+00 4.0000000e+00 
0.0000000e+00 0.0000000e+00 4.2500000e+00 
0.0000000e+00 0.0000000e+00 4.5000000e+00 
0.0000000e+00 0.0000000e+00 4.7500000e+00 
0.0000000e+00 0.0000000e+00 5.0000000e+00 
0.0000000e+00 0.0000000e+00 5.2500000e+00 
0.0000000e+00 0.0000000e+00 5.5000000e+00 
0.0000000e+00 0.0000000e+00 5.7500000e+00 
0.0000000e+00 0.0000000e+00 6.0000000e+00 
0.0000000e+00 0.0000000e+00 6.2500000e+00 
0.0000000e+00 0.0000000e+00 6.5000000e+00 
0.0000000e+00 0.0000000e+00 6.7500000e+00 
0.0000000e+00 0.0000000e+00 7.0000000e+00 
0.0000000e+00 0.0000000e+00 7.2500000e+00 
0.0000000e+00 0.0000000e+00 7.5000000e+00 
0.0000000e+00 0.0000000e+00 7.7500000e+00 
0.0000000e+00 0.0000000e+00 8.0000000e+00 
0.0000000e+00 0.0000000e+00 8.2500000e+00 
0.0000000e+00 0.0000000e+00 8.5000000e+00 
0.0000000e+00 0.0000000e+00 8.7500000e+00 
0.0000000e+00 0.0000000e+00 9.0000000e+00 
0.0000000e+00 0.0000000e+00 9.2500000e+00 
0.0000000e+00 0.0000000e+00 9.5000000e+00 
0.0000000e+00 0.0000000e+00 9.7500000e+00 
0.0000000e+00 0.0000000e+00 1.0000000e+01 
0.0000000e+00 0.0000000e+00 1.0250000e+01 
0.0000000e+00 0.0000000e+00 1.0500000e+01 
0.0000000e+00 0.0000000e+00 1.0750000e+01 
0.0000000e+00 0.0000000e+00 1.1000000e+01 
0.0000000e+00 0.0000000e+00 1.1250000e+01 
0.0000000e+00 0.0000000e+00 1.1500000e+01 
0.0000000e+00 0.0000000e+00 1.1750000e+01 
0.0000000e+00 0.0000000e+00 1.2000000e+01 
0.0000000e+00 0.0000000e+00 1.2250000e+01 
0.0000000e+00 0.0000000e+00 1.2500000e+01 
0.0000000e+00 0.0000000e+00 1.2750000e+01 
0.0000000e+00 0.0000000e+00 1.3000000e+01 
0.0000000e+00 0.0000000e+00 1.3250000e+01 
0.0000000e+00 0.0000000e+00 1.3500000e+01 
0.0000000e+00 0.0000000e+00 1.3750000e+01 
0.0000000e+00 0.0000000e+00 1.4000000e+01 
0.0000000e+00 0.0000000e+00 1.4250000e+01 
0.0000000e+00 0.0000000e+00 1.4500000e+01 
0.0000000e+00 0.0000000e+00 1.4750000e+01 
0.0000000e+00 0.0000000e+00 1.5000000e+01 
0.0000000e+00 0.0000000e+00 1.5250000e+01 
0.0000000e+00 0.0000000e+00 1.5500000e+01 
0.0000000e+00 0.0000000e+00 1.5750000e+01 
0.0000000e+00 0.0000000e+00 1.6000000e+01 
0.0000000e+00 0.0000000e+00 1.6250000e+01 
0.0000000e+00 0.0000000e+00 1.6500000e+01 
0.0000000e+00 0.0000000e+00 1.6750000e+01 
0.0000000e+00 0.0000000e+00 1.7000000e+01 
0.0000000e+00 0.0000000e+00 1.7250000e+01 
0.0000000e+00 0.0000000e+00 1.7500000e+01 
0.0000000e+00 0.0000000e+00 1.7750000e+01 
0.0000000e+00 0.0000000e+00 1.8000000e+01 
5.0000000e-01 0.0000000e+00 3.0000000e+00 
5.0000000e-01 0.0000000e+00 6.0000000e+00 
5.0000000e-01 0.0000000e+00 9.0000000e+00 
5.0000000e-01 0.0000000e+00 1.2000000e+01 
5.0000000e-01 0.0000000e+00 1.5000000e+01 
5.0000000e-01 0.0000000e+00 1.8000000e+01 
1.0000000e+00 0.0000000e+00 3.0000000e+00 
1.0000000e+00 0.0000000e+00 6.0000000e+00 
1.0000000e+00 0.0000000e+00 9.0000000e+00 
1.0000000e+00 0.0000000e+00 1.2000000e+01 
1.0000000e+00 0.0000000e+00 1.5000000e+01 
1.0000000e+00 0.0000000e+00 1.8000000e+01 
1.5000000e+00 0.0000000e+00 3.0000000e+00 
1.5000000e+00 0.0000000e+00 6.0000000e+00 
1.5000000e+00 0.0000000e+00 9.0000000e+00 
1.5000000e+00 0.0000000e+00 1.2000000e+01 
1.5000000e+00 0.0000000e+00 1.5000000e+01 
1.5000000e+00 0.0000000e+00 1.8000000e+01 
2.0000000e+00 0.0000000e+00 3.0000000e+00 
2.0000000e+00 0.0000000e+00 6.0000000e+00 
2.0000000e+00 0.0000000e+00 9.0000000e+00 
2.0000000e+00 0.0000000e+00 1.2000000e+01 
2.0000000e+00 0.0000000e+00 1.5000000e+01 
2.0000000e+00 0.0000000e+00 1.8000000e+01 
2.5000000e+00 0.0000000e+00 3.0000000e+00 
2.5000000e+00 0.0000000e+00 6.0000000e+00 
2.5000000e+00 0.0000000e+00 9.0000000e+00 
2.5000000e+00 0.0000000e+00 1.2000000e+01 
2.5000000e+00 0.0000000e+00 1.5000000e+01 
2.5000000e+00 0.0000000e+00 1.8000000e+01 
3.0000000e+00 0.0000000e+00 3.0000000e+00 
3.0000000e+00 0.0000000e+00 6.0000000e+00 
3.0000000e+00 0.0000000e+00 9.0000000e+00 
3.0000000e+00 0.0000000e+00 1.2000000e+01 
3.0000000e+00 0.0000000e+00 1.5000000e+01 
3.0000000e+00 0.0000000e+00 1.8000000e+01 
3.5000000e+00 0.0000000e+00 3.0000000e+00 
3.5000000e+00 0.0000000e+00 6.0000000e+00 
3.5000000e+00 0.0000000e+00 9.0000000e+00 
3.5000000e+00 0.0000000e+00 1.2000000e+01 
3.5000000e+00 0.0000000e+00 1.5000000e+01 
3.5000000e+00 0.0000000e+00 1.8000000e+01 
4.0000000e+00 0.0000000e+00 3.0000000e+00 
4.0000000e+00 0.0000000e+00 6.0000000e+00 
4.0000000e+00 0.0000000e+00 9.0000000e+00 
4.0000000e+00 0.0000000e+00 1.2000000e+01 
4.0000000e+00 0.0000000e+00 1.5000000e+01 
4.0000000e+00 0.0000000e+00 1.8000000e+01 
4.5000000e+00 0.0000000e+00 3.0000000e+00 
4.5000000e+00 0.0000000e+00 6.0000000e+00 
4.5000000e+00 0.0000000e+00 9.0000000e+00 
4.5000000e+00 0.0000000e+00 1.2000000e+01 
4.5000000e+00 0.0000000e+00 1.5000000e+01 
4.5000000e+00 0.0000000e+00 1.8000000e+01 
5.0000000e+00 0.0000000e+00 3.0000000e+00 
5.0000000e+00 0.0000000e+00 6.0000000e+00 
5.0000000e+00 0.0000000e+00 9.0000000e+00 
5.0000000e+00 0.0000000e+00 1.2000000e+01 
5.0000000e+00 0.0000000e+00 1.5000000e+01 
5.0000000e+00 0.0000000e+00 1.8000000e+01 
5.5000000e+00 0.0000000e+00 3.0000000e+00 
5.5000000e+00 0.0000000e+00 6.0000000e+00 
5.5000000e+00 0.0000000e+00 9.0000000e+00 
5.5000000e+00 0.0000000e+00 1.2000000e+01 
5.5000000e+00 0.0000000e+00 1.5000000e+01 
5.5000000e+00 0.0000000e+00 1.8000000e+01 
6.0000000e+00 0.0000000e+00 0.0000000e+00 
6.0000000e+00 0.0000000e+00 2.5000000e-01 
6.0000000e+00 0.0000000e+00 5.0000000e-01 
6.0000000e+00 0.0000000e+00 7.5000000e-01 
6.0000000e+00 0.0000000e+00 1.0000000e+00 
6.0000000e+00 0.0000000e+00 1.2500000e+00 
6.0000000e+00 0.0000000e+00 1.5000000e+00 
6.0000000e+00 0.0000000e+00 1.7500000e+00 
6.0000000e+00 0.0000000e+00 2.0000000e+00 
6.0000000e+00 0.0000000e+00 2.2500000e+00 
6.0000000e+00 0.0000000e+00 2.5000000e+00 
6.0000000e+00 0.0000000e+00 2.7500000e+00 
6.0000000e+00 0.0000000e+00 3.0000000e+00 
6.0000000e+00 0.0000000e+00 3.2500000e+00 
6.0000000e+00 0.0000000e+00 3.5000000e+00 
6.0000000e+00 0.0000000e+00 3.7500000e+00 
6.0000000e+00 0.0000000e+00 4.0000000e+00 
6.0000000e+00 0.0000000e+00 4.2500000e+00 
6.0000000e+00 0.0000000e+00 4.5000000e+00 
6.0000000e+00 0.0000000e+00 4.7500000e+00 
6.0000000e+00 0.0000000e+00 5.0000000e+00 
6.0000000e+00 0.0000000e+00 5.2500000e+00 
6.0000000e+00 0.0000000e+00 5.5000000e+00 
6.0000000e+00 0.0000000e+00 5.7500000e+00 
6.0000000e+00 0.0000000e+00 6.0000000e+00 
6.0000000e+00 0.0000000e+00 6.2500000e+00 
6.0000000e+00 0.0000000e+00 6.5000000e+00 
6.0000000e+00 0.0000000e+00 6.7500000e+00 
6.0000000e+00 0.0000000e+00 7.0000000e+00 
6.0000000e+00 0.0000000e+00 7.2500000e+00 
6.0000000e+00 0.0000000e+00 7.5000000e+00 
6.0000000e+00 0.0000000e+00 7.7500000e+00 
6.0000000e+00 0.0000000e+00 8.0000000e+00 
6.0000000e+00 0.0000000e+00 8.2500000e+00 
6.0000000e+00 0.0000000e+00 8.5000000e+00 
6.0000000e+00 0.0000000e+00 8.7500000e+00 
6.0000000e+00 0.0000000e+00 9.0000000e+00 
6.0000000e+00 0.0000000e+00 9.2500000e+00 
6.0000000e+00 0.0000000e+00 9.5000000e+00 
6.0000000e+00 0.0000000e+00 9.7500000e+00 
6.0000000e+00 0.0000000e+00 1.0000000e+01 
6.0000000e+00 0.0000000e+00 1.0250000e+01 
6.0000000e+00 0.0000000e+00 1.0500000e+01 
6.0000000e+00 0.0000000e+00 1.0750000e+01 
6.0000000e+00 0.0000000e+00 1.1000000e+01 
6.0000000e+00 0.0000000e+00 1.1250000e+01 
6.0000000e+00 0.0000000e+00 1.1500000e+01 
6.0000000e+00 0.0000000e+00 1.1750000e+01 
6.0000000e+00 0.0000000e+00 1.2000000e+01 
6.0000000e+00 0.0000000e+00 1.2250000e+01 
6.0000000e+00 0.0000000e+00 1.2500000e+01 
6.0000000e+00 0.0000000e+00 1.2750000e+01 
6.0000000e+00 0.0000000e+00 1.3000000e+01 
6.0000000e+00 0.0000000e+00 1.3250000e+01 
6.0000000e+00 0.0000000e+00 1.3500000e+01 
6.0000000e+00 0.0000000e+00 1.3750000e+01 
6.0000000e+00 0.0000000e+00 1.4000000e+01 
6.0000000e+00 0.0000000e+00 1.4250000e+01 
6.0000000e+00 0.0000000e+00 1.4500000e+01 
6.0000000e+00 0.0000000e+00 1.4750000e+01 
6.0000000e+00 0.0000000e+00 1.5000000e+01 
6.0000000e+00 0.0000000e+00 1.5250000e+01 
6.0000000e+00 0.0000000e+00 1.5500000e+01 
6.0000000e+00 0.0000000e+00 1.5750000e+01 
6.0000000e+00 0.0000000e+00 1.6000000e+01 
6.0000000e+00 0.0000000e+00 1.6250000e+01 
6.0000000e+00 0.0000000e+00 1.6500000e+01 
6.0000000e+00 0.0000000e+00 1.6750000e+01 
6.0000000e+00 0.0000000e+00 1.7000000e+01 
6.0000000e+00 0.0000000e+00 1.7250000e+01 
6.0000000e+00 0.0000000e+00 1.7500000e+01 
6.0000000e+00 0.0000000e+00 1.7750000e+01 
6.0000000e+00 0.0000000e+00 1.8000000e+01 

CELLS 216 648
2 0 1
2 1 2
2 2 3
2 3 4
2 4 5
2 5 6
2 6 7
2 7 8
2 8 9
2 9 10
2 10 11
2 11 12
2 12 13
2 13 14
2 14 15
2 15 16
2 16 17
2 17 18
2 18 19
2 19 20
2 20 21
2 21 22
2 22 23
2 23 24
2 24 25
2 25 26
2 26 27
2 27 28
2 28 29
2 29 30
2 30 31
2 31 32
2 32 33
2 33 34
2 34 35
2 35 36
2 36 37
2 37 38
2 38 39
2 39 40
2 40 41
2 41 42
2 42 43
2 43 44
2 44 45
2 45 46
2 46 47
2 47 48
2 48 49
2 49 50
2 50 51
2 51 52
2 52 53
2 53 54
2 54 55
2 55 56
2 56 57
2 57 58
2 58 59
2 59 60
2 60 61
2 61 62
2 62 63
2 63 64
2 64 65
2 65 66
2 66 67
2 67 68
2 68 69
2 69 70
2 70 71
2 71 72
2 139 140
2 140 141
2 141 142
2 142 143
2 143 144
2 144 145
2 145 146
2 146 147
2 147 148
2 148 149
2 149 150
2 150 151
2 151 152
2 152 153
2 153 154
2 154 155
2 155 156
2 156 157
2 157 158
2 158 159
2 159 160
2 160 161
2 161 162
2 162 163
2 163 164
2 164 165
2 165 166
2 166 167
2 167 168
2 168 169
2 169 170
2 170 171
2 171 172
2 172 173
2 173 174
2 174 175
2 175 176
2 176 177
2 177 178
2 178 179
2 179 180
2 180 181
2 181 182
2 182 183
2 183 184
2 184 185
2 185 186
2 186 187
2 187 188
2 188 189
2 189 190
2 190 191
2 191 192
2 192 193
2 193 194
2 194 195
2 195 196
2 196 197
2 197 198
2 198 199
2 199 200
2 200 201
2 201 202
2 202 203
2 203 204
2 204 205
2 205 206
2 206 207
2 207 208
2 208 209
2 209 210
2 210 211
2 12 73
2 73 79
2 79 85
2 85 91
2 91 97
2 97 103
2 103 109
2 109 115
2 115 121
2 121 127
2 127 133
2 133 151
2 24 74
2 74 80
2 80 86
2 86 92
2 92 98
2 98 104
2 104 110
2 110 116
2 116 122
2 122 128
2 128 134
2 134 163
2 36 75
2 75 81
2 81 87
2 87 93
2 93 99
2 99 105
2 105 111
2 111 117
2 117 123
2 123 129
2 129 135
2 135 175
2 48 76
2 76 82
2 82 88
2 88 94
2 94 100
2 100 106
2 106 112
2 112 118
2 118 124
2 124 130
2 130 136
2 136 187
2 60 77
2 77 83
2 83 89
2 89 95
2 95 101
2 101 107
2 107 113
2 113 119
2 119 125
2 125 131
2 131 137
2 137 199
2 72 78
2 78 84
2 84 90
2 90 96
2 96 102
2 102 108
2 108 114
2 114 120
2 120 126
2 126 132
2 132 138
2 138 211

CELL_TYPES 216
3
3
3
3
3
3
3
3
3
3
3
3
3
3
3
3
3
3
3
3
3
3
3
3
3
3
3
3
3
3
3
3
3
3
3
3
3
3
3
3
3
3
3
3
3
3
3
3
3
3
3
3
3
3
3
3
3
3
3
3
3
3
3
3
3
3
3
3
3
3
3
3
3
3
3
3
3
3
3
3
3
3
3
3
3
3
3
3
3
3
3
3
3
3
3
3
3
3
3
3
3
3
3
3
3
3
3
3
3
3
3
3
3
3
3
3
3
3
3
3
3
3
3
3
3
3
3
3
3
3
3
3
3
3
3
3
3
3
3
3
3
3
3
3
3
3
3
3
3
3
3
3
3
3
3
3
3
3
3
3
3
3
3
3
3
3
3
3
3
3
3
3
3
3
3
3
3
3
3
3
3
3
3
3
3
3
3
3
3
3
3
3
3
3
3
3
3
3
3
3
3
3
3
3
3
3
3
3
3
3
3
3
3
3
3
3
POINT_DATA 212
FIELD FieldData 3
ADJOINT_DISPLACEMENT 3 212  float
0.0000000e+00 0.0000000e+00 0.0000000e+00 
4.4282025e-04 0.0000000e+00 -2.1202244e-18 
8.6692808e-04 0.0000000e+00 -4.2404488e-18 
1.2536111e-03 0.0000000e+00 -6.3606731e-18 
1.5841568e-03 0.0000000e+00 -8.4808975e-18 
1.8398529e-03 0.0000000e+00 -1.0601122e-17 
2.0019868e-03 0.0000000e+00 -1.2721346e-17 
2.0518464e-03 0.0000000e+00 -1.4841571e-17 
1.9707188e-03 0.0000000e+00 -1.6961795e-17 
1.7398921e-03 0.0000000e+00 -1.9082019e-17 
1.3406535e-03 0.0000000e+00 -2.1202244e-17 
7.5429084e-04 0.0000000e+00 -2.3322468e-17 
-3.7908492e-05 0.0000000e+00 -2.5442693e-17 
-1.0702263e-03 0.0000000e+00 -2.9263192e-17 
-2.2889972e-03 0.0000000e+00 -3.3059388e-17 
-3.5810114e-03 0.0000000e+00 -3.6912955e-17 
-4.8330603e-03 0.0000000e+00 -4.0735585e-17 
-5.9319353e-03 0.0000000e+00 -4.4539256e-17 
-6.7644264e-03 0.0000000e+00 -4.8354117e-17 
-7.2173243e-03 0.0000000e+00 -5.2181763e-17 
-7.1774209e-03 0.0000000e+00 -5.6010887e-17 
-6.5315068e-03 0.0000000e+00 -5.9840634e-17 
-5.1663723e-03 0.0000000e+00 -6.3669144e-17 
-2.9688089e-03 0.0000000e+00 -6.7497634e-17 
1.7439260e-04 0.0000000e+00 -7.1326064e-17 
4.4275336e-03 0.0000000e+00 -7.6779447e-17 
9.5503246e-03 0.0000000e+00 -8.1861056e-17 
1.5049089e-02 0.0000000e+00 -8.6941751e-17 
2.0430150e-02 0.0000000e+00 -9.1716231e-17 
2.5199829e-02 0.0000000e+00 -9.6490215e-17 
2.8864451e-02 0.0000000e+00 -1.0126857e-16 
3.0930338e-02 0.0000000e+00 -1.0598364e-16 
3.0903814e-02 0.0000000e+00 -1.1071105e-16 
2.8291201e-02 0.0000000e+00 -1.1543594e-16 
2.2598822e-02 0.0000000e+00 -1.2016134e-16 
1.3333000e-02 0.0000000e+00 -1.2488719e-16 
5.9202051e-08 0.0000000e+00 -1.2961293e-16 
-1.3332507e-02 0.0000000e+00 -1.3220245e-16 
-2.2597341e-02 0.0000000e+00 -1.3520811e-16 
-2.8288325e-02 0.0000000e+00 -1.3397102e-16 
-3.0899342e-02 0.0000000e+00 -1.3535355e-16 
-3.0924277e-02 0.0000000e+00 -1.3605003e-16 
-2.8857013e-02 0.0000000e+00 -1.3669914e-16 
-2.5191430e-02 0.0000000e+00 -1.3743632e-16 
-2.0421414e-02 0.0000000e+00 -1.3808597e-16 
-1.5040845e-02 0.0000000e+00 -1.3867724e-16 
-9.5436079e-03 0.0000000e+00 -1.3927570e-16 
-4.4235862e-03 0.0000000e+00 -1.3987877e-16 
-1.7466192e-04 0.0000000e+00 -1.4047542e-16 
2.9626170e-03 0.0000000e+00 -1.4104603e-16 
5.1529179e-03 0.0000000e+00 -1.4146905e-16 
6.5101809e-03 0.0000000e+00 -1.4187906e-16 
7.1483469e-03 0.0000000e+00 -1.4230562e-16 
7.1813562e-03 0.0000000e+00 -1.4269481e-16 
6.7231487e-03 0.0000000e+00 -1.4306924e-16 
5.8876653e-03 0.0000000e+00 -1.4344024e-16 
4.7888458e-03 0.0000000e+00 -1.4381214e-16 
3.5406309e-03 0.0000000e+00 -1.4418618e-16 
2.2569608e-03 0.0000000e+00 -1.4456102e-16 
1.0517761e-03 0.0000000e+00 -1.4493536e-16 
3.9016879e-05 0.0000000e+00 -1.4531057e-16 
-7.2661316e-04 0.0000000e+00 -1.4546454e-16 
-1.2809295e-03 0.0000000e+00 -1.4561284e-16 
-1.6457705e-03 0.0000000e+00 -1.4569971e-16 
-1.8429745e-03 0.0000000e+00 -1.4577850e-16 
-1.8943797e-03 0.0000000e+00 -1.4583951e-16 
-1.8218247e-03 0.0000000e+00 -1.4590978e-16 
-1.6471477e-03 0.0000000e+00 -1.4598696e-16 
-1.3921871e-03 0.0000000e+00 -1.4606603e-16 
-1.0787812e-03 0.0000000e+00 -1.4614574e-16 
-7.2876841e-04 0.0000000e+00 -1.4622539e-16 
-3.6398703e-04 0.0000000e+00 -1.4630494e-16 
-6.2753888e-06 0.0000000e+00 -1.4638439e-16 
-3.1590411e-05 0.0000000e+00 1.6524843e-03 
1.4532717e-04 0.0000000e+00 -6.6985544e-03 
4.9335064e-08 0.0000000e+00 4.9306944e-02 
-1.4555160e-04 0.0000000e+00 -6.6893711e-03 
3.2514065e-05 0.0000000e+00 1.6107049e-03 
-5.2294904e-06 0.0000000e+00 -6.3597842e-04 
-2.5272329e-05 0.0000000e+00 3.0045169e-03 
1.1626173e-04 0.0000000e+00 -1.2179190e-02 
3.9468080e-08 0.0000000e+00 1.3510354e-01 
-1.1644128e-04 0.0000000e+00 -1.2162493e-02 
2.6011252e-05 0.0000000e+00 2.9285545e-03 
-4.1835924e-06 0.0000000e+00 -1.1563244e-03 
-1.8954246e-05 0.0000000e+00 4.0560979e-03 
8.7196298e-05 0.0000000e+00 -1.6441906e-02 
2.9601093e-08 0.0000000e+00 2.5738975e-01 
-8.7330962e-05 0.0000000e+00 -1.6419366e-02 
1.9508439e-05 0.0000000e+00 3.9535486e-03 
-3.1376942e-06 0.0000000e+00 -1.5610378e-03 
-1.2636165e-05 0.0000000e+00 4.8072273e-03 
5.8130867e-05 0.0000000e+00 -1.9486705e-02 
1.9734108e-08 0.0000000e+00 4.1616565e-01 
-5.8220641e-05 0.0000000e+00 -1.9459989e-02 
1.3005626e-05 0.0000000e+00 4.6856874e-03 
-2.0917962e-06 0.0000000e+00 -1.8501190e-03 
-6.3180819e-06 0.0000000e+00 5.2579045e-03 
2.9065433e-05 0.0000000e+00 -2.1313583e-02 
9.8671213e-09 0.0000000e+00 6.1143118e-01 
-2.9110321e-05 0.0000000e+00 -2.1284362e-02 
6.5028130e-06 0.0000000e+00 5.1249703e-03 
-1.0458980e-06 0.0000000e+00 -2.0235677e-03 
7.3134830e-14 0.0000000e+00 5.4081306e-03 
1.1724493e-13 0.0000000e+00 -2.1922542e-02 
1.3588307e-13 0.0000000e+00 8.4318638e-01 
1.2498615e-13 0.0000000e+00 -2.1892488e-02 
1.1441076e-13 0.0000000e+00 5.2713980e-03 
1.1053249e-13 0.0000000e+00 -2.0813840e-03 
6.3180823e-06 0.0000000e+00 5.2579045e-03 
-2.9065432e-05 0.0000000e+00 -2.1313583e-02 
-9.8668496e-09 0.0000000e+00 6.1143118e-01 
2.9110321e-05 0.0000000e+00 -2.1284362e-02 
-6.5028130e-06 0.0000000e+00 5.1249703e-03 
1.0458982e-06 0.0000000e+00 -2.0235677e-03 
1.2636165e-05 0.0000000e+00 4.8072273e-03 
-5.8130863e-05 0.0000000e+00 -1.9486705e-02 
-1.9733836e-08 0.0000000e+00 4.1616565e-01 
5.8220641e-05 0.0000000e+00 -1.9459989e-02 
-1.3005626e-05 0.0000000e+00 4.6856874e-03 
2.0917964e-06 0.0000000e+00 -1.8501190e-03 
1.8954246e-05 0.0000000e+00 4.0560979e-03 
-8.7196298e-05 0.0000000e+00 -1.6441906e-02 
-2.9600821e-08 0.0000000e+00 2.5738975e-01 
8.7330962e-05 0.0000000e+00 -1.6419366e-02 
-1.9508439e-05 0.0000000e+00 3.9535486e-03 
3.1376944e-06 0.0000000e+00 -1.5610378e-03 
2.5272329e-05 0.0000000e+00 3.0045169e-03 
-1.1626173e-04 0.0000000e+00 -1.2179190e-02 
-3.9467807e-08 0.0000000e+00 1.3510354e-01 
1.1644128e-04 0.0000000e+00 -1.2162493e-02 
-2.6011252e-05 0.0000000e+00 2.9285545e-03 
4.1835924e-06 0.0000000e+00 -1.1563244e-03 
3.1590411e-05 0.0000000e+00 1.6524843e-03 
-1.4532717e-04 0.0000000e+00 -6.6985544e-03 
-4.9334794e-08 0.0000000e+00 4.9306944e-02 
1.4555160e-04 0.0000000e+00 -6.6893711e-03 
-3.2514065e-05 0.0000000e+00 1.6107049e-03 
5.2294909e-06 0.0000000e+00 -6.3597842e-04 
0.0000000e+00 0.0000000e+00 0.0000000e+00 
-4.4282025e-04 0.0000000e+00 -7.0137389e-18 
-8.6692808e-04 0.0000000e+00 -1.4027388e-17 
-1.2536111e-03 0.0000000e+00 -2.1041162e-17 
-1.5841568e-03 0.0000000e+00 -2.8055094e-17 
-1.8398529e-03 0.0000000e+00 -3.5068961e-17 
-2.0019868e-03 0.0000000e+00 -4.2082797e-17 
-2.0518464e-03 0.0000000e+00 -4.9096567e-17 
-1.9707188e-03 0.0000000e+00 -5.6110679e-17 
-1.7398921e-03 0.0000000e+00 -6.3123456e-17 
-1.3406535e-03 0.0000000e+00 -7.0136049e-17 
-7.5429084e-04 0.0000000e+00 -7.7148628e-17 
3.7908492e-05 0.0000000e+00 -8.4161048e-17 
1.0702263e-03 0.0000000e+00 -8.9432419e-17 
2.2889972e-03 0.0000000e+00 -9.4703849e-17 
3.5810114e-03 0.0000000e+00 -9.9974849e-17 
4.8330603e-03 0.0000000e+00 -1.0524646e-16 
5.9319353e-03 0.0000000e+00 -1.1051703e-16 
6.7644264e-03 0.0000000e+00 -1.1578770e-16 
7.2173243e-03 0.0000000e+00 -1.2105870e-16 
7.1774209e-03 0.0000000e+00 -1.2632946e-16 
6.5315068e-03 0.0000000e+00 -1.3160023e-16 
5.1663723e-03 0.0000000e+00 -1.3687070e-16 
2.9688091e-03 0.0000000e+00 -1.4214134e-16 
-1.7439260e-04 0.0000000e+00 -1.4741130e-16 
-4.4275336e-03 0.0000000e+00 -1.5153225e-16 
-9.5503246e-03 0.0000000e+00 -1.5565502e-16 
-1.5049089e-02 0.0000000e+00 -1.5977961e-16 
-2.0430150e-02 0.0000000e+00 -1.6390322e-16 
-2.5199829e-02 0.0000000e+00 -1.6802880e-16 
-2.8864451e-02 0.0000000e+00 -1.7215520e-16 
-3.0930338e-02 0.0000000e+00 -1.7628222e-16 
-3.0903814e-02 0.0000000e+00 -1.8040894e-16 
-2.8291201e-02 0.0000000e+00 -1.8453526e-16 
-2.2598822e-02 0.0000000e+00 -1.8866145e-16 
-1.3333000e-02 0.0000000e+00 -1.9278764e-16 
-5.9201778e-08 0.0000000e+00 -1.9691376e-16 
1.3332507e-02 0.0000000e+00 -1.9625396e-16 
2.2597341e-02 0.0000000e+00 -1.9559713e-16 
2.8288325e-02 0.0000000e+00 -1.9493586e-16 
3.0899342e-02 0.0000000e+00 -1.9427523e-16 
3.0924277e-02 0.0000000e+00 -1.9361656e-16 
2.8857013e-02 0.0000000e+00 -1.9295909e-16 
2.5191430e-02 0.0000000e+00 -1.9230030e-16 
2.0421414e-02 0.0000000e+00 -1.9164168e-16 
1.5040845e-02 0.0000000e+00 -1.9098245e-16 
9.5436079e-03 0.0000000e+00 -1.9032325e-16 
4.4235862e-03 0.0000000e+00 -1.8966404e-16 
1.7466192e-04 0.0000000e+00 -1.8900483e-16 
-2.9626170e-03 0.0000000e+00 -1.8867664e-16 
-5.1529179e-03 0.0000000e+00 -1.8834896e-16 
-6.5101809e-03 0.0000000e+00 -1.8802241e-16 
-7.1483469e-03 0.0000000e+00 -1.8769537e-16 
-7.1813562e-03 0.0000000e+00 -1.8736941e-16 
-6.7231487e-03 0.0000000e+00 -1.8704291e-16 
-5.8876653e-03 0.0000000e+00 -1.8671629e-16 
-4.7888458e-03 0.0000000e+00 -1.8638952e-16 
-3.5406309e-03 0.0000000e+00 -1.8606278e-16 
-2.2569608e-03 0.0000000e+00 -1.8573607e-16 
-1.0517761e-03 0.0000000e+00 -1.8540938e-16 
-3.9016879e-05 0.0000000e+00 -1.8508269e-16 
7.2661316e-04 0.0000000e+00 -1.8501933e-16 
1.2809295e-03 0.0000000e+00 -1.8495643e-16 
1.6457705e-03 0.0000000e+00 -1.8489316e-16 
1.8429745e-03 0.0000000e+00 -1.8483025e-16 
1.8943797e-03 0.0000000e+00 -1.8476727e-16 
1.8218247e-03 0.0000000e+00 -1.8470440e-16 
1.6471477e-03 0.0000000e+00 -1.8464158e-16 
1.3921871e-03 0.0000000e+00 -1.8457879e-16 
1.0787812e-03 0.0000000e+00 -1.8451603e-16 
7.2876841e-04 0.0000000e+00 -1.8445323e-16 
3.6398703e-04 0.0000000e+00 -1.8439044e-16 
6.2753888e-06 0.0000000e+00 -1.8432764e-16 
ADJOINT_ROTATION 3 212  float
0.0000000e+00 1.7837560e-03 0.0000000e+00 
0.0000000e+00 1.7463311e-03 0.0000000e+00 
0.0000000e+00 1.6340566e-03 0.0000000e+00 
0.0000000e+00 1.4469324e-03 0.0000000e+00 
0.0000000e+00 1.1849586e-03 0.0000000e+00 
0.0000000e+00 8.4813504e-04 0.0000000e+00 
0.0000000e+00 4.3646185e-04 0.0000000e+00 
0.0000000e+00 -5.0061000e-05 0.0000000e+00 
0.0000000e+00 -6.1143353e-04 0.0000000e+00 
0.0000000e+00 -1.2476557e-03 0.0000000e+00 
0.0000000e+00 -1.9587276e-03 0.0000000e+00 
0.0000000e+00 -2.7446491e-03 0.0000000e+00 
0.0000000e+00 -3.6054202e-03 0.0000000e+00 
0.0000000e+00 -4.5776498e-03 0.0000000e+00 
0.0000000e+00 -5.0970428e-03 0.0000000e+00 
0.0000000e+00 -5.1635997e-03 0.0000000e+00 
0.0000000e+00 -4.7773202e-03 0.0000000e+00 
0.0000000e+00 -3.9382041e-03 0.0000000e+00 
0.0000000e+00 -2.6462513e-03 0.0000000e+00 
0.0000000e+00 -9.0146251e-04 0.0000000e+00 
0.0000000e+00 1.2961628e-03 0.0000000e+00 
0.0000000e+00 3.9466247e-03 0.0000000e+00 
0.0000000e+00 7.0499228e-03 0.0000000e+00 
0.0000000e+00 1.0606057e-02 0.0000000e+00 
0.0000000e+00 1.4615028e-02 0.0000000e+00 
0.0000000e+00 1.9080982e-02 0.0000000e+00 
0.0000000e+00 2.1572229e-02 0.0000000e+00 
0.0000000e+00 2.2088768e-02 0.0000000e+00 
0.0000000e+00 2.0630598e-02 0.0000000e+00 
0.0000000e+00 1.7197721e-02 0.0000000e+00 
0.0000000e+00 1.1790136e-02 0.0000000e+00 
0.0000000e+00 4.4078431e-03 0.0000000e+00 
0.0000000e+00 -4.9491576e-03 0.0000000e+00 
0.0000000e+00 -1.6280865e-02 0.0000000e+00 
0.0000000e+00 -2.9587282e-02 0.0000000e+00 
0.0000000e+00 -4.4868406e-02 0.0000000e+00 
0.0000000e+00 -6.2124237e-02 0.0000000e+00 
0.0000000e+00 -4.4865545e-02 0.0000000e+00 
0.0000000e+00 -2.9582381e-02 0.0000000e+00 
0.0000000e+00 -1.6274750e-02 0.0000000e+00 
0.0000000e+00 -4.9426509e-03 0.0000000e+00 
0.0000000e+00 4.4139163e-03 0.0000000e+00 
0.0000000e+00 1.1794951e-02 0.0000000e+00 
0.0000000e+00 1.7200455e-02 0.0000000e+00 
0.0000000e+00 2.0630425e-02 0.0000000e+00 
0.0000000e+00 2.2084866e-02 0.0000000e+00 
0.0000000e+00 2.1563772e-02 0.0000000e+00 
0.0000000e+00 1.9067148e-02 0.0000000e+00 
0.0000000e+00 1.4594992e-02 0.0000000e+00 
0.0000000e+00 1.0579200e-02 0.0000000e+00 
0.0000000e+00 7.0191682e-03 0.0000000e+00 
0.0000000e+00 3.9148983e-03 0.0000000e+00 
0.0000000e+00 1.2663902e-03 0.0000000e+00 
0.0000000e+00 -9.2635670e-04 0.0000000e+00 
0.0000000e+00 -2.6633420e-03 0.0000000e+00 
0.0000000e+00 -3.9445660e-03 0.0000000e+00 
0.0000000e+00 -4.7700289e-03 0.0000000e+00 
0.0000000e+00 -5.1397299e-03 0.0000000e+00 
0.0000000e+00 -5.0536697e-03 0.0000000e+00 
0.0000000e+00 -4.5118486e-03 0.0000000e+00 
0.0000000e+00 -3.5142654e-03 0.0000000e+00 
0.0000000e+00 -2.6253338e-03 0.0000000e+00 
0.0000000e+00 -1.8237558e-03 0.0000000e+00 
0.0000000e+00 -1.1095310e-03 0.0000000e+00 
0.0000000e+00 -4.8265964e-04 0.0000000e+00 
0.0000000e+00 5.6858320e-05 0.0000000e+00 
0.0000000e+00 5.0902291e-04 0.0000000e+00 
0.0000000e+00 8.7383407e-04 0.0000000e+00 
0.0000000e+00 1.1512919e-03 0.0000000e+00 
0.0000000e+00 1.3413964e-03 0.0000000e+00 
0.0000000e+00 1.4441473e-03 0.0000000e+00 
0.0000000e+00 1.4595450e-03 0.0000000e+00 
0.0000000e+00 1.3875893e-03 0.0000000e+00 
0.0000000e+00 -3.0045169e-03 0.0000000e+00 
0.0000000e+00 1.2179190e-02 0.0000000e+00 
0.0000000e+00 -1.3510354e-01 0.0000000e+00 
0.0000000e+00 1.2162493e-02 0.0000000e+00 
0.0000000e+00 -2.9285545e-03 0.0000000e+00 
0.0000000e+00 1.1563244e-03 0.0000000e+00 
0.0000000e+00 -2.4036136e-03 0.0000000e+00 
0.0000000e+00 9.7433524e-03 0.0000000e+00 
0.0000000e+00 -2.0808282e-01 0.0000000e+00 
0.0000000e+00 9.7299945e-03 0.0000000e+00 
0.0000000e+00 -2.3428437e-03 0.0000000e+00 
0.0000000e+00 9.2505949e-04 0.0000000e+00 
0.0000000e+00 -1.8027101e-03 0.0000000e+00 
0.0000000e+00 7.3075141e-03 0.0000000e+00 
0.0000000e+00 -2.8106213e-01 0.0000000e+00 
0.0000000e+00 7.2974958e-03 0.0000000e+00 
0.0000000e+00 -1.7571327e-03 0.0000000e+00 
0.0000000e+00 6.9379463e-04 0.0000000e+00 
0.0000000e+00 -1.2018068e-03 0.0000000e+00 
0.0000000e+00 4.8716762e-03 0.0000000e+00 
0.0000000e+00 -3.5404143e-01 0.0000000e+00 
0.0000000e+00 4.8649972e-03 0.0000000e+00 
0.0000000e+00 -1.1714218e-03 0.0000000e+00 
0.0000000e+00 4.6252974e-04 0.0000000e+00 
0.0000000e+00 -6.0090341e-04 0.0000000e+00 
0.0000000e+00 2.4358381e-03 0.0000000e+00 
0.0000000e+00 -4.2702070e-01 0.0000000e+00 
0.0000000e+00 2.4324986e-03 0.0000000e+00 
0.0000000e+00 -5.8571092e-04 0.0000000e+00 
0.0000000e+00 2.3126487e-04 0.0000000e+00 
0.0000000e+00 -6.9938642e-15 0.0000000e+00 
0.0000000e+00 -5.4951792e-15 0.0000000e+00 
0.0000000e+00 -5.0000000e-01 0.0000000e+00 
0.0000000e+00 1.7318140e-15 0.0000000e+00 
0.0000000e+00 8.9088511e-16 0.0000000e+00 
0.0000000e+00 2.6466397e-16 0.0000000e+00 
0.0000000e+00 6.0090341e-04 0.0000000e+00 
0.0000000e+00 -2.4358381e-03 0.0000000e+00 
0.0000000e+00 4.2702070e-01 0.0000000e+00 
0.0000000e+00 -2.4324986e-03 0.0000000e+00 
0.0000000e+00 5.8571092e-04 0.0000000e+00 
0.0000000e+00 -2.3126487e-04 0.0000000e+00 
0.0000000e+00 1.2018068e-03 0.0000000e+00 
0.0000000e+00 -4.8716762e-03 0.0000000e+00 
0.0000000e+00 3.5404143e-01 0.0000000e+00 
0.0000000e+00 -4.8649972e-03 0.0000000e+00 
0.0000000e+00 1.1714218e-03 0.0000000e+00 
0.0000000e+00 -4.6252974e-04 0.0000000e+00 
0.0000000e+00 1.8027101e-03 0.0000000e+00 
0.0000000e+00 -7.3075141e-03 0.0000000e+00 
0.0000000e+00 2.8106213e-01 0.0000000e+00 
0.0000000e+00 -7.2974958e-03 0.0000000e+00 
0.0000000e+00 1.7571327e-03 0.0000000e+00 
0.0000000e+00 -6.9379463e-04 0.0000000e+00 
0.0000000e+00 2.4036136e-03 0.0000000e+00 
0.0000000e+00 -9.7433524e-03 0.0000000e+00 
0.0000000e+00 2.0808282e-01 0.0000000e+00 
0.0000000e+00 -9.7299945e-03 0.0000000e+00 
0.0000000e+00 2.3428437e-03 0.0000000e+00 
0.0000000e+00 -9.2505949e-04 0.0000000e+00 
0.0000000e+00 3.0045169e-03 0.0000000e+00 
0.0000000e+00 -1.2179190e-02 0.0000000e+00 
0.0000000e+00 1.3510354e-01 0.0000000e+00 
0.0000000e+00 -1.2162493e-02 0.0000000e+00 
0.0000000e+00 2.9285545e-03 0.0000000e+00 
0.0000000e+00 -1.1563244e-03 0.0000000e+00 
0.0000000e+00 -1.7837560e-03 0.0000000e+00 
0.0000000e+00 -1.7463311e-03 0.0000000e+00 
0.0000000e+00 -1.6340566e-03 0.0000000e+00 
0.0000000e+00 -1.4469324e-03 0.0000000e+00 
0.0000000e+00 -1.1849586e-03 0.0000000e+00 
0.0000000e+00 -8.4813504e-04 0.0000000e+00 
0.0000000e+00 -4.3646185e-04 0.0000000e+00 
0.0000000e+00 5.0061000e-05 0.0000000e+00 
0.0000000e+00 6.1143353e-04 0.0000000e+00 
0.0000000e+00 1.2476557e-03 0.0000000e+00 
0.0000000e+00 1.9587276e-03 0.0000000e+00 
0.0000000e+00 2.7446491e-03 0.0000000e+00 
0.0000000e+00 3.6054202e-03 0.0000000e+00 
0.0000000e+00 4.5776498e-03 0.0000000e+00 
0.0000000e+00 5.0970428e-03 0.0000000e+00 
0.0000000e+00 5.1635997e-03 0.0000000e+00 
0.0000000e+00 4.7773202e-03 0.0000000e+00 
0.0000000e+00 3.9382041e-03 0.0000000e+00 
0.0000000e+00 2.6462513e-03 0.0000000e+00 
0.0000000e+00 9.0146251e-04 0.0000000e+00 
0.0000000e+00 -1.2961628e-03 0.0000000e+00 
0.0000000e+00 -3.9466247e-03 0.0000000e+00 
0.0000000e+00 -7.0499228e-03 0.0000000e+00 
0.0000000e+00 -1.0606057e-02 0.0000000e+00 
0.0000000e+00 -1.4615028e-02 0.0000000e+00 
0.0000000e+00 -1.9080982e-02 0.0000000e+00 
0.0000000e+00 -2.1572229e-02 0.0000000e+00 
0.0000000e+00 -2.2088768e-02 0.0000000e+00 
0.0000000e+00 -2.0630598e-02 0.0000000e+00 
0.0000000e+00 -1.7197721e-02 0.0000000e+00 
0.0000000e+00 -1.1790136e-02 0.0000000e+00 
0.0000000e+00 -4.4078431e-03 0.0000000e+00 
0.0000000e+00 4.9491576e-03 0.0000000e+00 
0.0000000e+00 1.6280865e-02 0.0000000e+00 
0.0000000e+00 2.9587282e-02 0.0000000e+00 
0.0000000e+00 4.4868406e-02 0.0000000e+00 
0.0000000e+00 6.2124237e-02 0.0000000e+00 
0.0000000e+00 4.4865545e-02 0.0000000e+00 
0.0000000e+00 2.9582381e-02 0.0000000e+00 
0.0000000e+00 1.6274750e-02 0.0000000e+00 
0.0000000e+00 4.9426509e-03 0.0000000e+00 
0.0000000e+00 -4.4139163e-03 0.0000000e+00 
0.0000000e+00 -1.1794951e-02 0.0000000e+00 
0.0000000e+00 -1.7200455e-02 0.0000000e+00 
0.0000000e+00 -2.0630425e-02 0.0000000e+00 
0.0000000e+00 -2.2084866e-02 0.0000000e+00 
0.0000000e+00 -2.1563772e-02 0.0000000e+00 
0.0000000e+00 -1.9067148e-02 0.0000000e+00 
0.0000000e+00 -1.4594992e-02 0.0000000e+00 
0.0000000e+00 -1.0579200e-02 0.0000000e+00 
0.0000000e+00 -7.0191682e-03 0.0000000e+00 
0.0000000e+00 -3.9148983e-03 0.0000000e+00 
0.0000000e+00 -1.2663902e-03 0.0000000e+00 
0.0000000e+00 9.2635670e-04 0.0000000e+00 
0.0000000e+00 2.6633420e-03 0.0000000e+00 
0.0000000e+00 3.9445660e-03 0.0000000e+00 
0.0000000e+00 4.7700289e-03 0.0000000e+00 
0.0000000e+00 5.1397299e-03 0.0000000e+00 
0.0000000e+00 5.0536697e-03 0.0000000e+00 
0.0000000e+00 4.5118486e-03 0.0000000e+00 
0.0000000e+00 3.5142654e-03 0.0000000e+00 
0.0000000e+00 2.6253338e-03 0.0000000e+00 
0.0000000e+00 1.8237558e-03 0.0000000e+00 
0.0000000e+00 1.1095310e-03 0.0000000e+00 
0.0000000e+00 4.8265964e-04 0.0000000e+00 