# vtk DataFile Version 4.0
vtk output
ASCII
DATASET UNSTRUCTURED_GRID
POINTS 212 float
0.0000000e+00 0.0000000e+00 0.0000000e+00 
0.0000000e+00 0.0000000e+00 2.5000000e-01 
0.0000000e+00 0.0000000e+00 5.0000000e-01 
0.0000000e+00 0.0000000e+00 7.5000000e-01 
0.0000000e+00 0.0000000e+00 1.0000000e+00 
0.0000000e+00 0.0000000e+00 1.2500000e+00 
0.0000000e+00 0.0000000e+00 1.5000000e+00 
0.0000000e+00 0.0000000e+00 1.7500000e+00 
0.0000000e+00 0.0000000e+00 2.0000000e+00 
0.0000000e+00 0.0000000e+00 2.2500000e+00 
0.0000000e+00 0.0000000e+00 2.5000000e+00 
0.0000000e+00 0.0000000e+00 2.7500000e+00 
0.0000000e+00 0.0000000e+00 3.0000000e+00 
0.0000000e+00 0.0000000e+00 3.2500000e+00 
0.0000000e+00 0.0000000e+00 3.5000000e+00 
0.0000000e+00 0.0000000e+00 3.7500000e+00 
0.0000000e+00 0.0000000e+00 4.0000000e+00 
0.0000000e+00 0.0000000e+00 4.2500000e+00 
0.0000000e+00 0.0000000e+00 4.5000000e+00 
0.0000000e+00 0.0000000e+00 4.7500000e+00 
0.0000000e+00 0.0000000e+00 5.0000000e+00 
0.0000000e+00 0.0000000e+00 5.2500000e+00 
0.0000000e+00 0.0000000e+00 5.5000000e+00 
0.0000000e+00 0.0000000e+00 5.7500000e+00 
0.0000000e+00 0.0000000e+00 6.0000000e+00 
0.0000000e+00 0.0000000e+00 6.2500000e+00 
0.0000000e+00 0.0000000e+00 6.5000000e+00 
0.0000000e+00 0.0000000e+00 6.7500000e+00 
0.0000000e+00 0.0000000e+00 7.0000000e+00 
0.0000000e+00 0.0000000e+00 7.2500000e+00 
0.0000000e+00 0.0000000e+00 7.5000000e+00 
0.0000000e+00 0.0000000e+00 7.7500000e+00 
0.0000000e+00 0.0000000e+00 8.0000000e+00 
0.0000000e+00 0.0000000e+00 8.2500000e+00 
0.0000000e+00 0.0000000e+00 8.5000000e+00 
0.0000000e+00 0.0000000e+00 8.7500000e+00 
0.0000000e+00 0.0000000e+00 9.0000000e+00 
0.0000000e+00 0.0000000e+00 9.2500000e+00 
0.0000000e+00 0.0000000e+00 9.5000000e+00 
0.0000000e+00 0.0000000e+00 9.7500000e+00 
0.0000000e+00 0.0000000e+00 1.0000000e+01 
0.0000000e+00 0.0000000e+00 1.0250000e+01 
0.0000000e+00 0.0000000e+00 1.0500000e+01 
0.0000000e+00 0.0000000e+00 1.0750000e+01 
0.0000000e+00 0.0000000e+00 1.1000000e+01 
0.0000000e+00 0.0000000e+00 1.1250000e+01 
0.0000000e+00 0.0000000e+00 1.1500000e+01 
0.0000000e+00 0.0000000e+00 1.1750000e+01 
0.0000000e+00 0.0000000e+00 1.2000000e+01 
0.0000000e+00 0.0000000e+00 1.2250000e+01 
0.0000000e+00 0.0000000e+00 1.2500000e+01 
0.0000000e+00 0.0000000e+00 1.2750000e+01 
0.0000000e+00 0.0000000e+00 1.3000000e+01 
0.0000000e+00 0.0000000e+00 1.3250000e+01 
0.0000000e+00 0.0000000e+00 1.3500000e+01 
0.0000000e+00 0.0000000e+00 1.3750000e+01 
0.0000000e+00 0.0000000e+00 1.4000000e+01 
0.0000000e+00 0.0000000e+00 1.4250000e+01 
0.0000000e+00 0.0000000e+00 1.4500000e+01 
0.0000000e+00 0.0000000e+00 1.4750000e+01 
0.0000000e+00 0.0000000e+00 1.5000000e+01 
0.0000000e+00 0.0000000e+00 1.5250000e+01 
0.0000000e+00 0.0000000e+00 1.5500000e+01 
0.0000000e+00 0.0000000e+00 1.5750000e+01 
0.0000000e+00 0.0000000e+00 1.6000000e+01 
0.0000000e+00 0.0000000e+00 1.6250000e+01 
0.0000000e+00 0.0000000e+00 1.6500000e+01 
0.0000000e+00 0.0000000e+00 1.6750000e+01 
0.0000000e+00 0.0000000e+00 1.7000000e+01 
0.0000000e+00 0.0000000e+00 1.7250000e+01 
0.0000000e+00 0.0000000e+00 1.7500000e+01 
0.0000000e+00 0.0000000e+00 1.7750000e+01 
0.0000000e+00 0.0000000e+00 1.8000000e+01 
5.0000000e-01 0.0000000e+00 3.0000000e+00 
5.0000000e-01 0.0000000e+00 6.0000000e+00 
5.0000000e-01 0.0000000e+00 9.0000000e+00 
5.0000000e-01 0.0000000e+00 1.2000000e+01 
5.0000000e-01 0.0000000e+00 1.5000000e+01 
5.0000000e-01 0.0000000e+00 1.8000000e+01 
1.0000000e+00 0.0000000e+00 3.0000000e+00 
1.0000000e+00 0.0000000e+00 6.0000000e+00 
1.0000000e+00 0.0000000e+00 9.0000000e+00 
1.0000000e+00 0.0000000e+00 1.2000000e+01 
1.0000000e+00 0.0000000e+00 1.5000000e+01 
1.0000000e+00 0.0000000e+00 1.8000000e+01 
1.5000000e+00 0.0000000e+00 3.0000000e+00 
1.5000000e+00 0.0000000e+00 6.0000000e+00 
1.5000000e+00 0.0000000e+00 9.0000000e+00 
1.5000000e+00 0.0000000e+00 1.2000000e+01 
1.5000000e+00 0.0000000e+00 1.5000000e+01 
1.5000000e+00 0.0000000e+00 1.8000000e+01 
2.0000000e+00 0.0000000e+00 3.0000000e+00 
2.0000000e+00 0.0000000e+00 6.0000000e+00 
2.0000000e+00 0.0000000e+00 9.0000000e+00 
2.0000000e+00 0.0000000e+00 1.2000000e+01 
2.0000000e+00 0.0000000e+00 1.5000000e+01 
2.0000000e+00 0.0000000e+00 1.8000000e+01 
2.5000000e+00 0.0000000e+00 3.0000000e+00 
2.5000000e+00 0.0000000e+00 6.0000000e+00 
2.5000000e+00 0.0000000e+00 9.0000000e+00 
2.5000000e+00 0.0000000e+00 1.2000000e+01 
2.5000000e+00 0.0000000e+00 1.5000000e+01 
2.5000000e+00 0.0000000e+00 1.8000000e+01 
3.0000000e+00 0.0000000e+00 3.0000000e+00 
3.0000000e+00 0.0000000e+00 6.0000000e+00 
3.0000000e+00 0.0000000e+00 9.0000000e+00 
3.0000000e+00 0.0000000e+00 1.2000000e+01 
3.0000000e+00 0.0000000e+00 1.5000000e+01 
3.0000000e+00 0.0000000e+00 1.8000000e+01 
3.5000000e+00 0.0000000e+00 3.0000000e+00 
3.5000000e+00 0.0000000e+00 6.0000000e+00 
3.5000000e+00 0.0000000e+00 9.0000000e+00 
3.5000000e+00 0.0000000e+00 1.2000000e+01 
3.5000000e+00 0.0000000e+00 1.5000000e+01 
3.5000000e+00 0.0000000e+00 1.8000000e+01 
4.0000000e+00 0.0000000e+00 3.0000000e+00 
4.0000000e+00 0.0000000e+00 6.0000000e+00 
4.0000000e+00 0.0000000e+00 9.0000000e+00 
4.0000000e+00 0.0000000e+00 1.2000000e+01 
4.0000000e+00 0.0000000e+00 1.5000000e+01 
4.0000000e+00 0.0000000e+00 1.8000000e+01 
4.5000000e+00 0.0000000e+00 3.0000000e+00 
4.5000000e+00 0.0000000e+00 6.0000000e+00 
4.5000000e+00 0.0000000e+00 9.0000000e+00 
4.5000000e+00 0.0000000e+00 1.2000000e+01 
4.5000000e+00 0.0000000e+00 1.5000000e+01 
4.5000000e+00 0.0000000e+00 1.8000000e+01 
5.0000000e+00 0.0000000e+00 3.0000000e+00 
5.0000000e+00 0.0000000e+00 6.0000000e+00 
5.0000000e+00 0.0000000e+00 9.0000000e+00 
5.0000000e+00 0.0000000e+00 1.2000000e+01 
5.0000000e+00 0.0000000e+00 1.5000000e+01 
5.0000000e+00 0.0000000e+00 1.8000000e+01 
5.5000000e+00 0.0000000e+00 3.0000000e+00 
5.5000000e+00 0.0000000e+00 6.0000000e+00 
5.5000000e+00 0.0000000e+00 9.0000000e+00 
5.5000000e+00 0.0000000e+00 1.2000000e+01 
5.5000000e+00 0.0000000e+00 1.5000000e+01 
5.5000000e+00 0.0000000e+00 1.8000000e+01 
6.0000000e+00 0.0000000e+00 0.0000000e+00 
6.0000000e+00 0.0000000e+00 2.5000000e-01 
6.0000000e+00 0.0000000e+00 5.0000000e-01 
6.0000000e+00 0.0000000e+00 7.5000000e-01 
6.0000000e+00 0.0000000e+00 1.0000000e+00 
6.0000000e+00 0.0000000e+00 1.2500000e+00 
6.0000000e+00 0.0000000e+00 1.5000000e+00 
6.0000000e+00 0.0000000e+00 1.7500000e+00 
6.0000000e+00 0.0000000e+00 2.0000000e+00 
6.0000000e+00 0.0000000e+00 2.2500000e+00 
6.0000000e+00 0.0000000e+00 2.5000000e+00 
6.0000000e+00 0.0000000e+00 2.7500000e+00 
6.0000000e+00 0.0000000e+00 3.0000000e+00 
6.0000000e+00 0.0000000e+00 3.2500000e+00 
6.0000000e+00 0.0000000e+00 3.5000000e+00 
6.0000000e+00 0.0000000e+00 3.7500000e+00 
6.0000000e+00 0.0000000e+00 4.0000000e+00 
6.0000000e+00 0.0000000e+00 4.2500000e+00 
6.0000000e+00 0.0000000e+00 4.5000000e+00 
6.0000000e+00 0.0000000e+00 4.7500000e+00 
6.0000000e+00 0.0000000e+00 5.0000000e+00 
6.0000000e+00 0.0000000e+00 5.2500000e+00 
6.0000000e+00 0.0000000e+00 5.5000000e+00 
6.0000000e+00 0.0000000e+00 5.7500000e+00 
6.0000000e+00 0.0000000e+00 6.0000000e+00 
6.0000000e+00 0.0000000e+00 6.2500000e+00 
6.0000000e+00 0.0000000e+00 6.5000000e+00 
6.0000000e+00 0.0000000e+00 6.7500000e+00 
6.0000000e+00 0.0000000e+00 7.0000000e+00 
6.0000000e+00 0.0000000e+00 7.2500000e+00 
6.0000000e+00 0.0000000e+00 7.5000000e+00 
6.0000000e+00 0.0000000e+00 7.7500000e+00 
6.0000000e+00 0.0000000e+00 8.0000000e+00 
6.0000000e+00 0.0000000e+00 8.2500000e+00 
6.0000000e+00 0.0000000e+00 8.5000000e+00 
6.0000000e+00 0.0000000e+00 8.7500000e+00 
6.0000000e+00 0.0000000e+00 9.0000000e+00 
6.0000000e+00 0.0000000e+00 9.2500000e+00 
6.0000000e+00 0.0000000e+00 9.5000000e+00 
6.0000000e+00 0.0000000e+00 9.7500000e+00 
6.0000000e+00 0.0000000e+00 1.0000000e+01 
6.0000000e+00 0.0000000e+00 1.0250000e+01 
6.0000000e+00 0.0000000e+00 1.0500000e+01 
6.0000000e+00 0.0000000e+00 1.0750000e+01 
6.0000000e+00 0.0000000e+00 1.1000000e+01 
6.0000000e+00 0.0000000e+00 1.1250000e+01 
6.0000000e+00 0.0000000e+00 1.1500000e+01 
6.0000000e+00 0.0000000e+00 1.1750000e+01 
6.0000000e+00 0.0000000e+00 1.2000000e+01 
6.0000000e+00 0.0000000e+00 1.2250000e+01 
6.0000000e+00 0.0000000e+00 1.2500000e+01 
6.0000000e+00 0.0000000e+00 1.2750000e+01 
6.0000000e+00 0.0000000e+00 1.3000000e+01 
6.0000000e+00 0.0000000e+00 1.3250000e+01 
6.0000000e+00 0.0000000e+00 1.3500000e+01 
6.0000000e+00 0.0000000e+00 1.3750000e+01 
6.0000000e+00 0.0000000e+00 1.4000000e+01 
6.0000000e+00 0.0000000e+00 1.4250000e+01 
6.0000000e+00 0.0000000e+00 1.4500000e+01 
6.0000000e+00 0.0000000e+00 1.4750000e+01 
6.0000000e+00 0.0000000e+00 1.5000000e+01 
6.0000000e+00 0.0000000e+00 1.5250000e+01 
6.0000000e+00 0.0000000e+00 1.5500000e+01 
6.0000000e+00 0.0000000e+00 1.5750000e+01 
6.0000000e+00 0.0000000e+00 1.6000000e+01 
6.0000000e+00 0.0000000e+00 1.6250000e+01 
6.0000000e+00 0.0000000e+00 1.6500000e+01 
6.0000000e+00 0.0000000e+00 1.6750000e+01 
6.0000000e+00 0.0000000e+00 1.7000000e+01 
6.0000000e+00 0.0000000e+00 1.7250000e+01 
6.0000000e+00 0.0000000e+00 1.7500000e+01 
6.0000000e+00 0.0000000e+00 1.7750000e+01 
6.0000000e+00 0.0000000e+00 1.8000000e+01 

CELLS 216 648
2 0 1
2 1 2
2 2 3
2 3 4
2 4 5
2 5 6
2 6 7
2 7 8
2 8 9
2 9 10
2 10 11
2 11 12
2 12 13
2 13 14
2 14 15
2 15 16
2 16 17
2 17 18
2 18 19
2 19 20
2 20 21
2 21 22
2 22 23
2 23 24
2 24 25
2 25 26
2 26 27
2 27 28
2 28 29
2 29 30
2 30 31
2 31 32
2 32 33
2 33 34
2 34 35
2 35 36
2 36 37
2 37 38
2 38 39
2 39 40
2 40 41
2 41 42
2 42 43
2 43 44
2 44 45
2 45 46
2 46 47
2 47 48
2 48 49
2 49 50
2 50 51
2 51 52
2 52 53
2 53 54
2 54 55
2 55 56
2 56 57
2 57 58
2 58 59
2 59 60
2 60 61
2 61 62
2 62 63
2 63 64
2 64 65
2 65 66
2 66 67
2 67 68
2 68 69
2 69 70
2 70 71
2 71 72
2 139 140
2 140 141
2 141 142
2 142 143
2 143 144
2 144 145
2 145 146
2 146 147
2 147 148
2 148 149
2 149 150
2 150 151
2 151 152
2 152 153
2 153 154
2 154 155
2 155 156
2 156 157
2 157 158
2 158 159
2 159 160
2 160 161
2 161 162
2 162 163
2 163 164
2 164 165
2 165 166
2 166 167
2 167 168
2 168 169
2 169 170
2 170 171
2 171 172
2 172 173
2 173 174
2 174 175
2 175 176
2 176 177
2 177 178
2 178 179
2 179 180
2 180 181
2 181 182
2 182 183
2 183 184
2 184 185
2 185 186
2 186 187
2 187 188
2 188 189
2 189 190
2 190 191
2 191 192
2 192 193
2 193 194
2 194 195
2 195 196
2 196 197
2 197 198
2 198 199
2 199 200
2 200 201
2 201 202
2 202 203
2 203 204
2 204 205
2 205 206
2 206 207
2 207 208
2 208 209
2 209 210
2 210 211
2 12 73
2 73 79
2 79 85
2 85 91
2 91 97
2 97 103
2 103 109
2 109 115
2 115 121
2 121 127
2 127 133
2 133 151
2 24 74
2 74 80
2 80 86
2 86 92
2 92 98
2 98 104
2 104 110
2 110 116
2 116 122
2 122 128
2 128 134
2 134 163
2 36 75
2 75 81
2 81 87
2 87 93
2 93 99
2 99 105
2 105 111
2 111 117
2 117 123
2 123 129
2 129 135
2 135 175
2 48 76
2 76 82
2 82 88
2 88 94
2 94 100
2 100 106
2 106 112
2 112 118
2 118 124
2 124 130
2 130 136
2 136 187
2 60 77
2 77 83
2 83 89
2 89 95
2 95 101
2 101 107
2 107 113
2 113 119
2 119 125
2 125 131
2 131 137
2 137 199
2 72 78
2 78 84
2 84 90
2 90 96
2 96 102
2 102 108
2 108 114
2 114 120
2 120 126
2 126 132
2 132 138
2 138 211

CELL_TYPES 216
3
3
3
3
3
3
3
3
3
3
3
3
3
3
3
3
3
3
3
3
3
3
3
3
3
3
3
3
3
3
3
3
3
3
3
3
3
3
3
3
3
3
3
3
3
3
3
3
3
3
3
3
3
3
3
3
3
3
3
3
3
3
3
3
3
3
3
3
3
3
3
3
3
3
3
3
3
3
3
3
3
3
3
3
3
3
3
3
3
3
3
3
3
3
3
3
3
3
3
3
3
3
3
3
3
3
3
3
3
3
3
3
3
3
3
3
3
3
3
3
3
3
3
3
3
3
3
3
3
3
3
3
3
3
3
3
3
3
3
3
3
3
3
3
3
3
3
3
3
3
3
3
3
3
3
3
3
3
3
3
3
3
3
3
3
3
3
3
3
3
3
3
3
3
3
3
3
3
3
3
3
3
3
3
3
3
3
3
3
3
3
3
3
3
3
3
3
3
3
3
3
3
3
3
3
3
3
3
3
3
3
3
3
3
3
3
POINT_DATA 212
FIELD FieldData 3
ADJOINT_DISPLACEMENT 3 212  float
0.0000000e+00 0.0000000e+00 0.0000000e+00 
-1.3456654e-04 0.0000000e+00 -9.8842233e-16 
-2.7011958e-04 0.0000000e+00 -1.9768447e-15 
-4.0764560e-04 0.0000000e+00 -2.9652669e-15 
-5.4813107e-04 0.0000000e+00 -3.9536893e-15 
-6.9256255e-04 0.0000000e+00 -4.9421116e-15 
-8.4192649e-04 0.0000000e+00 -5.9305338e-15 
-9.9720946e-04 0.0000000e+00 -6.9189564e-15 
-1.1593978e-03 0.0000000e+00 -7.9073787e-15 
-1.3294781e-03 0.0000000e+00 -8.8958009e-15 
-1.5084369e-03 0.0000000e+00 -9.8842231e-15 
-1.6972605e-03 0.0000000e+00 -1.0872645e-14 
-1.8969356e-03 0.0000000e+00 -1.1861068e-14 
-2.1289766e-03 0.0000000e+00 1.8949108e-07 
-2.4102128e-03 0.0000000e+00 3.7898218e-07 
-2.7346041e-03 0.0000000e+00 5.6847330e-07 
-3.0961097e-03 0.0000000e+00 7.5796436e-07 
-3.4886897e-03 0.0000000e+00 9.4745548e-07 
-3.9063031e-03 0.0000000e+00 1.1369466e-06 
-4.3429099e-03 0.0000000e+00 1.3264377e-06 
-4.7924696e-03 0.0000000e+00 1.5159287e-06 
-5.2489415e-03 0.0000000e+00 1.7054198e-06 
-5.7062851e-03 0.0000000e+00 1.8949110e-06 
-6.1584604e-03 0.0000000e+00 2.0844020e-06 
-6.5994267e-03 0.0000000e+00 2.2738932e-06 
-7.0992764e-03 0.0000000e+00 3.2215762e-06 
-7.7500804e-03 0.0000000e+00 4.1692597e-06 
-8.5787689e-03 0.0000000e+00 5.1169427e-06 
-9.6122706e-03 0.0000000e+00 6.0646257e-06 
-1.0877514e-02 0.0000000e+00 7.0123092e-06 
-1.2401430e-02 0.0000000e+00 7.9599922e-06 
-1.4210948e-02 0.0000000e+00 8.9076757e-06 
-1.6332995e-02 0.0000000e+00 9.8553592e-06 
-1.8794503e-02 0.0000000e+00 1.0803042e-05 
-2.1622401e-02 0.0000000e+00 1.1750725e-05 
-2.4843615e-02 0.0000000e+00 1.2698409e-05 
-2.8485078e-02 0.0000000e+00 1.3646091e-05 
-3.2960191e-02 0.0000000e+00 1.8196155e-05 
-3.8585480e-02 0.0000000e+00 2.2746219e-05 
-4.5242552e-02 0.0000000e+00 2.7296282e-05 
-5.2813016e-02 0.0000000e+00 3.1846346e-05 
-6.1178479e-02 0.0000000e+00 3.6396410e-05 
-7.0220552e-02 0.0000000e+00 4.0946474e-05 
-7.9820842e-02 0.0000000e+00 4.5496537e-05 
-8.9860953e-02 0.0000000e+00 5.0046601e-05 
-1.0022250e-01 0.0000000e+00 5.4596665e-05 
-1.1078709e-01 0.0000000e+00 5.9146729e-05 
-1.2143632e-01 0.0000000e+00 6.3696796e-05 
-1.3205183e-01 0.0000000e+00 6.8246860e-05 
-1.4425740e-01 0.0000000e+00 9.0054964e-05 
-1.6009827e-01 0.0000000e+00 1.1186307e-04 
-1.8008806e-01 0.0000000e+00 1.3367117e-04 
-2.0474041e-01 0.0000000e+00 1.5547927e-04 
-2.3456900e-01 0.0000000e+00 1.7728738e-04 
-2.7008745e-01 0.0000000e+00 1.9909548e-04 
-3.1180942e-01 0.0000000e+00 2.2090359e-04 
-3.6024854e-01 0.0000000e+00 2.4271169e-04 
-4.1591850e-01 0.0000000e+00 2.6451980e-04 
-4.7933289e-01 0.0000000e+00 2.8632791e-04 
-5.5100542e-01 0.0000000e+00 3.0813602e-04 
-6.3144970e-01 0.0000000e+00 3.2994410e-04 
-7.1221000e-01 0.0000000e+00 3.0927319e-04 
-7.8475779e-01 0.0000000e+00 2.8860226e-04 
-8.4949774e-01 0.0000000e+00 2.6793132e-04 
-9.0683454e-01 0.0000000e+00 2.4726038e-04 
-9.5717281e-01 0.0000000e+00 2.2658946e-04 
-1.0009172e+00 0.0000000e+00 2.0591854e-04 
-1.0384723e+00 0.0000000e+00 1.8524760e-04 
-1.0702428e+00 0.0000000e+00 1.6457668e-04 
-1.0966333e+00 0.0000000e+00 1.4390574e-04 
-1.1180484e+00 0.0000000e+00 1.2323481e-04 
-1.1348929e+00 0.0000000e+00 1.0256388e-04 
-1.1475713e+00 0.0000000e+00 8.1892947e-05 
-1.8961249e-03 0.0000000e+00 3.2844333e-04 
-6.6032307e-03 0.0000000e+00 6.0394558e-04 
-2.8468313e-02 0.0000000e+00 6.1752573e-03 
-1.3212474e-01 0.0000000e+00 1.5037939e-02 
-6.3143712e-01 0.0000000e+00 2.0515586e-01 
-1.1475246e+00 0.0000000e+00 1.4497357e-02 
-1.8953142e-03 0.0000000e+00 5.0957379e-04 
-6.6070347e-03 0.0000000e+00 7.4566470e-04 
-2.8451545e-02 0.0000000e+00 9.5508927e-03 
-1.3219766e-01 0.0000000e+00 1.9305939e-02 
-6.3142455e-01 0.0000000e+00 -2.4299195e-02 
-1.1474780e+00 0.0000000e+00 1.6733812e-02 
-1.8945035e-03 0.0000000e+00 5.6967017e-04 
-6.6108382e-03 0.0000000e+00 5.3257780e-04 
-2.8434779e-02 0.0000000e+00 1.0640132e-02 
-1.3227057e-01 0.0000000e+00 1.5265607e-02 
-6.3141197e-01 0.0000000e+00 -1.9392627e-01 
-1.1474313e+00 0.0000000e+00 9.6579185e-03 
-1.8936928e-03 0.0000000e+00 5.3501118e-04 
-6.6146422e-03 0.0000000e+00 6.9831622e-05 
-2.8418014e-02 0.0000000e+00 9.9425586e-03 
-1.3234350e-01 0.0000000e+00 5.3103012e-03 
-6.3139939e-01 0.0000000e+00 -3.0961642e-01 
-1.1473845e+00 0.0000000e+00 -3.8636643e-03 
-1.8928821e-03 0.0000000e+00 4.3187567e-04 
-6.6184462e-03 0.0000000e+00 -5.3742720e-04 
-2.8401248e-02 0.0000000e+00 7.9577509e-03 
-1.3241643e-01 0.0000000e+00 -8.1666214e-03 
-6.3138682e-01 0.0000000e+00 -3.7726060e-01 
-1.1473379e+00 0.0000000e+00 -2.0964276e-02 
-1.8920713e-03 0.0000000e+00 2.8654237e-04 
-6.6222497e-03 0.0000000e+00 -1.1840520e-03 
-2.8384481e-02 0.0000000e+00 5.1852902e-03 
-1.3248934e-01 0.0000000e+00 -2.2771802e-02 
-6.3137424e-01 0.0000000e+00 -4.0274990e-01 
-1.1472912e+00 0.0000000e+00 -3.8777255e-02 
-1.8912606e-03 0.0000000e+00 1.2529004e-04 
-6.6260537e-03 0.0000000e+00 -1.7648962e-03 
-2.8367715e-02 0.0000000e+00 2.1247582e-03 
-1.3256226e-01 0.0000000e+00 -3.6111884e-02 
-6.3136166e-01 0.0000000e+00 -3.9197528e-01 
-1.1472446e+00 0.0000000e+00 -5.4435942e-02 
-1.8904499e-03 0.0000000e+00 -2.5602540e-05 
-6.6298572e-03 0.0000000e+00 -2.1748131e-03 
-2.8350949e-02 0.0000000e+00 -7.2426471e-04 
-1.3263518e-01 0.0000000e+00 -4.5793504e-02 
-6.3134909e-01 0.0000000e+00 -3.5082784e-01 
-1.1471978e+00 0.0000000e+00 -6.5073676e-02 
-1.8896392e-03 0.0000000e+00 -1.3985661e-04 
-6.6336612e-03 0.0000000e+00 -2.3086558e-03 
-2.8334184e-02 0.0000000e+00 -2.8621973e-03 
-1.3270810e-01 0.0000000e+00 -4.9423311e-02 
-6.3133651e-01 0.0000000e+00 -2.8519854e-01 
-1.1471511e+00 0.0000000e+00 -6.7823805e-02 
-1.8888285e-03 0.0000000e+00 -1.9119338e-04 
-6.6374652e-03 0.0000000e+00 -2.0612781e-03 
-2.8317418e-02 0.0000000e+00 -3.7894591e-03 
-1.3278103e-01 0.0000000e+00 -4.4607941e-02 
-6.3132393e-01 0.0000000e+00 -2.0097846e-01 
-1.1471045e+00 0.0000000e+00 -5.9819654e-02 
-1.8880178e-03 0.0000000e+00 -1.5333410e-04 
-6.6412687e-03 0.0000000e+00 -1.3275329e-03 
-2.8300650e-02 0.0000000e+00 -3.0064690e-03 
-1.3285394e-01 0.0000000e+00 -2.8954040e-02 
-6.3131136e-01 0.0000000e+00 -1.0405858e-01 
-1.1470578e+00 0.0000000e+00 -3.8194571e-02 
0.0000000e+00 0.0000000e+00 0.0000000e+00 
-1.8077869e-04 0.0000000e+00 9.1664010e-16 
-3.6057088e-04 0.0000000e+00 1.8332802e-15 
-5.3839013e-04 0.0000000e+00 2.7499204e-15 
-7.1324984e-04 0.0000000e+00 3.6665600e-15 
-8.8416360e-04 0.0000000e+00 4.5831996e-15 
-1.0501449e-03 0.0000000e+00 5.4998391e-15 
-1.2102072e-03 0.0000000e+00 6.4164787e-15 
-1.3633640e-03 0.0000000e+00 7.3331183e-15 
-1.5086289e-03 0.0000000e+00 8.2497587e-15 
-1.6450154e-03 0.0000000e+00 9.1663974e-15 
-1.7715370e-03 0.0000000e+00 1.0083035e-14 
-1.8872070e-03 0.0000000e+00 1.0999674e-14 
-2.0099296e-03 0.0000000e+00 -1.8949109e-07 
-2.1622931e-03 0.0000000e+00 -3.7898218e-07 
-2.3503378e-03 0.0000000e+00 -5.6847330e-07 
-2.5801044e-03 0.0000000e+00 -7.5796436e-07 
-2.8576332e-03 0.0000000e+00 -9.4745548e-07 
-3.1889644e-03 0.0000000e+00 -1.1369466e-06 
-3.5801390e-03 0.0000000e+00 -1.3264377e-06 
-4.0371967e-03 0.0000000e+00 -1.5159287e-06 
-4.5661791e-03 0.0000000e+00 -1.7054198e-06 
-5.1731253e-03 0.0000000e+00 -1.8949110e-06 
-5.8640763e-03 0.0000000e+00 -2.0844020e-06 
-6.6450727e-03 0.0000000e+00 -2.2738932e-06 
-7.6037422e-03 0.0000000e+00 -3.2215762e-06 
-8.8057332e-03 0.0000000e+00 -4.1692597e-06 
-1.0224117e-02 0.0000000e+00 -5.1169427e-06 
-1.1831963e-02 0.0000000e+00 -6.0646257e-06 
-1.3602343e-02 0.0000000e+00 -7.0123092e-06 
-1.5508328e-02 0.0000000e+00 -7.9599922e-06 
-1.7522987e-02 0.0000000e+00 -8.9076757e-06 
-1.9619392e-02 0.0000000e+00 -9.8553592e-06 
-2.1770613e-02 0.0000000e+00 -1.0803042e-05 
-2.3949724e-02 0.0000000e+00 -1.1750725e-05 
-2.6129790e-02 0.0000000e+00 -1.2698409e-05 
-2.8283885e-02 0.0000000e+00 -1.3646091e-05 
-3.0747976e-02 0.0000000e+00 -1.8196155e-05 
-3.3954911e-02 0.0000000e+00 -2.2746219e-05 
-3.8023084e-02 0.0000000e+00 -2.7296282e-05 
-4.3070883e-02 0.0000000e+00 -3.1846346e-05 
-4.9216703e-02 0.0000000e+00 -3.6396410e-05 
-5.6578930e-02 0.0000000e+00 -4.0946474e-05 
-6.5275960e-02 0.0000000e+00 -4.5496537e-05 
-7.5426191e-02 0.0000000e+00 -5.0046601e-05 
-8.7147996e-02 0.0000000e+00 -5.4596665e-05 
-1.0055979e-01 0.0000000e+00 -5.9146729e-05 
-1.1577994e-01 0.0000000e+00 -6.3696796e-05 
-1.3292687e-01 0.0000000e+00 -6.8246860e-05 
-1.5396675e-01 0.0000000e+00 -9.0054964e-05 
-1.8044445e-01 0.0000000e+00 -1.1186307e-04 
-2.1184632e-01 0.0000000e+00 -1.3367117e-04 
-2.4765871e-01 0.0000000e+00 -1.5547927e-04 
-2.8736797e-01 0.0000000e+00 -1.7728738e-04 
-3.3046046e-01 0.0000000e+00 -1.9909548e-04 
-3.7642252e-01 0.0000000e+00 -2.2090359e-04 
-4.2474052e-01 0.0000000e+00 -2.4271169e-04 
-4.7490078e-01 0.0000000e+00 -2.6451980e-04 
-5.2638966e-01 0.0000000e+00 -2.8632791e-04 
-5.7869357e-01 0.0000000e+00 -3.0813602e-04 
-6.3129878e-01 0.0000000e+00 -3.2994410e-04 
-6.8382460e-01 0.0000000e+00 -3.0927319e-04 
-7.3596287e-01 0.0000000e+00 -2.8860226e-04 
-7.8730899e-01 0.0000000e+00 -2.6793132e-04 
-8.3745825e-01 0.0000000e+00 -2.4726038e-04 
-8.8600612e-01 0.0000000e+00 -2.2658946e-04 
-9.3254793e-01 0.0000000e+00 -2.0591854e-04 
-9.7667903e-01 0.0000000e+00 -1.8524760e-04 
-1.0179948e+00 0.0000000e+00 -1.6457668e-04 
-1.0560904e+00 0.0000000e+00 -1.4390574e-04 
-1.0905615e+00 0.0000000e+00 -1.2323481e-04 
-1.1210033e+00 0.0000000e+00 -1.0256388e-04 
-1.1470110e+00 0.0000000e+00 -8.1892947e-05 
ADJOINT_ROTATION 3 212  float
0.0000000e+00 -5.3760846e-04 0.0000000e+00 
0.0000000e+00 -5.3958147e-04 0.0000000e+00 
0.0000000e+00 -5.4550043e-04 0.0000000e+00 
0.0000000e+00 -5.5536535e-04 0.0000000e+00 
0.0000000e+00 -5.6917628e-04 0.0000000e+00 
0.0000000e+00 -5.8693317e-04 0.0000000e+00 
0.0000000e+00 -6.0863607e-04 0.0000000e+00 
0.0000000e+00 -6.3428486e-04 0.0000000e+00 
0.0000000e+00 -6.6387968e-04 0.0000000e+00 
0.0000000e+00 -6.9742050e-04 0.0000000e+00 
0.0000000e+00 -7.3490723e-04 0.0000000e+00 
0.0000000e+00 -7.7633996e-04 0.0000000e+00 
0.0000000e+00 -8.2171871e-04 0.0000000e+00 
0.0000000e+00 -1.0305812e-03 0.0000000e+00 
0.0000000e+00 -1.2152819e-03 0.0000000e+00 
0.0000000e+00 -1.3758210e-03 0.0000000e+00 
0.0000000e+00 -1.5121981e-03 0.0000000e+00 
0.0000000e+00 -1.6244136e-03 0.0000000e+00 
0.0000000e+00 -1.7124675e-03 0.0000000e+00 
0.0000000e+00 -1.7763595e-03 0.0000000e+00 
0.0000000e+00 -1.8160898e-03 0.0000000e+00 
0.0000000e+00 -1.8316584e-03 0.0000000e+00 
0.0000000e+00 -1.8230653e-03 0.0000000e+00 
0.0000000e+00 -1.7903105e-03 0.0000000e+00 
0.0000000e+00 -1.7333938e-03 0.0000000e+00 
0.0000000e+00 -2.2833543e-03 0.0000000e+00 
0.0000000e+00 -2.9410317e-03 0.0000000e+00 
0.0000000e+00 -3.7064266e-03 0.0000000e+00 
0.0000000e+00 -4.5795385e-03 0.0000000e+00 
0.0000000e+00 -5.5603678e-03 0.0000000e+00 
0.0000000e+00 -6.6489140e-03 0.0000000e+00 
0.0000000e+00 -7.8451773e-03 0.0000000e+00 
0.0000000e+00 -9.1491584e-03 0.0000000e+00 
0.0000000e+00 -1.0560856e-02 0.0000000e+00 
0.0000000e+00 -1.2080271e-02 0.0000000e+00 
0.0000000e+00 -1.3707403e-02 0.0000000e+00 
0.0000000e+00 -1.5442253e-02 0.0000000e+00 
0.0000000e+00 -2.0279735e-02 0.0000000e+00 
0.0000000e+00 -2.4643650e-02 0.0000000e+00 
0.0000000e+00 -2.8533999e-02 0.0000000e+00 
0.0000000e+00 -3.1950779e-02 0.0000000e+00 
0.0000000e+00 -3.4893997e-02 0.0000000e+00 
0.0000000e+00 -3.7363645e-02 0.0000000e+00 
0.0000000e+00 -3.9359730e-02 0.0000000e+00 
0.0000000e+00 -4.0882245e-02 0.0000000e+00 
0.0000000e+00 -4.1931197e-02 0.0000000e+00 
0.0000000e+00 -4.2506579e-02 0.0000000e+00 
0.0000000e+00 -4.2608395e-02 0.0000000e+00 
0.0000000e+00 -4.2236645e-02 0.0000000e+00 
0.0000000e+00 -5.5750459e-02 0.0000000e+00 
0.0000000e+00 -7.1318865e-02 0.0000000e+00 
0.0000000e+00 -8.8941857e-02 0.0000000e+00 
0.0000000e+00 -1.0861945e-01 0.0000000e+00 
0.0000000e+00 -1.3035163e-01 0.0000000e+00 
0.0000000e+00 -1.5413840e-01 0.0000000e+00 
0.0000000e+00 -1.7997977e-01 0.0000000e+00 
0.0000000e+00 -2.0787573e-01 0.0000000e+00 
0.0000000e+00 -2.3782629e-01 0.0000000e+00 
0.0000000e+00 -2.6983142e-01 0.0000000e+00 
0.0000000e+00 -3.0389118e-01 0.0000000e+00 
0.0000000e+00 -3.4000549e-01 0.0000000e+00 
0.0000000e+00 -3.0634639e-01 0.0000000e+00 
0.0000000e+00 -2.7430582e-01 0.0000000e+00 
0.0000000e+00 -2.4388380e-01 0.0000000e+00 
0.0000000e+00 -2.1508037e-01 0.0000000e+00 
0.0000000e+00 -1.8789549e-01 0.0000000e+00 
0.0000000e+00 -1.6232917e-01 0.0000000e+00 
0.0000000e+00 -1.3838141e-01 0.0000000e+00 
0.0000000e+00 -1.1605222e-01 0.0000000e+00 
0.0000000e+00 -9.5341578e-02 0.0000000e+00 
0.0000000e+00 -7.6249510e-02 0.0000000e+00 
0.0000000e+00 -5.8775995e-02 0.0000000e+00 
0.0000000e+00 -4.2921044e-02 0.0000000e+00 
0.0000000e+00 -5.0081423e-04 0.0000000e+00 
0.0000000e+00 -7.0834189e-04 0.0000000e+00 
0.0000000e+00 -9.3707200e-03 0.0000000e+00 
0.0000000e+00 -1.8439906e-02 0.0000000e+00 
0.0000000e+00 -4.7733453e-01 0.0000000e+00 
0.0000000e+00 -1.5696365e-02 0.0000000e+00 
0.0000000e+00 -2.3246724e-04 0.0000000e+00 
0.0000000e+00 1.0641668e-04 0.0000000e+00 
0.0000000e+00 -4.2983484e-03 0.0000000e+00 
0.0000000e+00 5.7011697e-04 0.0000000e+00 
0.0000000e+00 3.9711848e-01 0.0000000e+00 
0.0000000e+00 5.7949922e-03 0.0000000e+00 
0.0000000e+00 -1.6677817e-05 0.0000000e+00 
0.0000000e+00 7.1088196e-04 0.0000000e+00 
0.0000000e+00 -2.2513869e-04 0.0000000e+00 
0.0000000e+00 1.4793424e-02 0.0000000e+00 
0.0000000e+00 2.8335354e-01 0.0000000e+00 
0.0000000e+00 2.1553030e-02 0.0000000e+00 
0.0000000e+00 1.4655407e-04 0.0000000e+00 
0.0000000e+00 1.1050539e-03 0.0000000e+00 
0.0000000e+00 2.8489090e-03 0.0000000e+00 
0.0000000e+00 2.4230015e-02 0.0000000e+00 
0.0000000e+00 1.8137065e-01 0.0000000e+00 
0.0000000e+00 3.1577747e-02 0.0000000e+00 
0.0000000e+00 2.5722841e-04 0.0000000e+00 
0.0000000e+00 1.2889325e-03 0.0000000e+00 
0.0000000e+00 4.9237949e-03 0.0000000e+00 
0.0000000e+00 2.8879888e-02 0.0000000e+00 
0.0000000e+00 9.1169804e-02 0.0000000e+00 
0.0000000e+00 3.5869144e-02 0.0000000e+00 
0.0000000e+00 3.1534524e-04 0.0000000e+00 
0.0000000e+00 1.2625179e-03 0.0000000e+00 
0.0000000e+00 5.9995195e-03 0.0000000e+00 
0.0000000e+00 2.8743047e-02 0.0000000e+00 
0.0000000e+00 1.2751018e-02 0.0000000e+00 
0.0000000e+00 3.4427222e-02 0.0000000e+00 
0.0000000e+00 3.2090451e-04 0.0000000e+00 
0.0000000e+00 1.0258099e-03 0.0000000e+00 
0.0000000e+00 6.0760817e-03 0.0000000e+00 
0.0000000e+00 2.3819489e-02 0.0000000e+00 
0.0000000e+00 -5.3885724e-02 0.0000000e+00 
0.0000000e+00 2.7251977e-02 0.0000000e+00 
0.0000000e+00 2.7390625e-04 0.0000000e+00 
0.0000000e+00 5.7880854e-04 0.0000000e+00 
0.0000000e+00 5.1534823e-03 0.0000000e+00 
0.0000000e+00 1.4109214e-02 0.0000000e+00 
0.0000000e+00 -1.0874041e-01 0.0000000e+00 
0.0000000e+00 1.4343412e-02 0.0000000e+00 
0.0000000e+00 1.7435043e-04 0.0000000e+00 
0.0000000e+00 -7.8486068e-05 0.0000000e+00 
0.0000000e+00 3.2317215e-03 0.0000000e+00 
0.0000000e+00 -3.8777705e-04 0.0000000e+00 
0.0000000e+00 -1.5181306e-01 0.0000000e+00 
0.0000000e+00 -4.2984732e-03 0.0000000e+00 
0.0000000e+00 2.2237089e-05 0.0000000e+00 
0.0000000e+00 -9.4607403e-04 0.0000000e+00 
0.0000000e+00 3.1079855e-04 0.0000000e+00 
0.0000000e+00 -1.9671485e-02 0.0000000e+00 
0.0000000e+00 -1.8310365e-01 0.0000000e+00 
0.0000000e+00 -2.8673679e-02 0.0000000e+00 
0.0000000e+00 -1.8243380e-04 0.0000000e+00 
0.0000000e+00 -2.0239553e-03 0.0000000e+00 
0.0000000e+00 -3.6092862e-03 0.0000000e+00 
0.0000000e+00 -4.3741908e-02 0.0000000e+00 
0.0000000e+00 -2.0261219e-01 0.0000000e+00 
0.0000000e+00 -5.8782205e-02 0.0000000e+00 
0.0000000e+00 -7.2377245e-04 0.0000000e+00 
0.0000000e+00 -7.2179944e-04 0.0000000e+00 
0.0000000e+00 -7.1588048e-04 0.0000000e+00 
0.0000000e+00 -7.0601556e-04 0.0000000e+00 
0.0000000e+00 -6.9220463e-04 0.0000000e+00 
0.0000000e+00 -6.7444774e-04 0.0000000e+00 
0.0000000e+00 -6.5274490e-04 0.0000000e+00 
0.0000000e+00 -6.2709604e-04 0.0000000e+00 
0.0000000e+00 -5.9750123e-04 0.0000000e+00 
0.0000000e+00 -5.6396041e-04 0.0000000e+00 
0.0000000e+00 -5.2647368e-04 0.0000000e+00 
0.0000000e+00 -4.8504092e-04 0.0000000e+00 
0.0000000e+00 -4.3966222e-04 0.0000000e+00 
0.0000000e+00 -5.4614496e-04 0.0000000e+00 
0.0000000e+00 -6.7678944e-04 0.0000000e+00 
0.0000000e+00 -8.3159568e-04 0.0000000e+00 
0.0000000e+00 -1.0105637e-03 0.0000000e+00 
0.0000000e+00 -1.2136934e-03 0.0000000e+00 
0.0000000e+00 -1.4409848e-03 0.0000000e+00 
0.0000000e+00 -1.6924379e-03 0.0000000e+00 
0.0000000e+00 -1.9680529e-03 0.0000000e+00 
0.0000000e+00 -2.2678296e-03 0.0000000e+00 
0.0000000e+00 -2.5917678e-03 0.0000000e+00 
0.0000000e+00 -2.9398680e-03 0.0000000e+00 
0.0000000e+00 -3.3121298e-03 0.0000000e+00 
0.0000000e+00 -4.3392745e-03 0.0000000e+00 
0.0000000e+00 -5.2587022e-03 0.0000000e+00 
0.0000000e+00 -6.0704127e-03 0.0000000e+00 
0.0000000e+00 -6.7744055e-03 0.0000000e+00 
0.0000000e+00 -7.3706815e-03 0.0000000e+00 
0.0000000e+00 -7.8592403e-03 0.0000000e+00 
0.0000000e+00 -8.2400823e-03 0.0000000e+00 
0.0000000e+00 -8.5132066e-03 0.0000000e+00 
0.0000000e+00 -8.6786142e-03 0.0000000e+00 
0.0000000e+00 -8.7363040e-03 0.0000000e+00 
0.0000000e+00 -8.6862771e-03 0.0000000e+00 
0.0000000e+00 -8.5285325e-03 0.0000000e+00 
0.0000000e+00 -1.1263127e-02 0.0000000e+00 
0.0000000e+00 -1.4471287e-02 0.0000000e+00 
0.0000000e+00 -1.8153014e-02 0.0000000e+00 
0.0000000e+00 -2.2308307e-02 0.0000000e+00 
0.0000000e+00 -2.6937168e-02 0.0000000e+00 
0.0000000e+00 -3.2039594e-02 0.0000000e+00 
0.0000000e+00 -3.7615586e-02 0.0000000e+00 
0.0000000e+00 -4.3665145e-02 0.0000000e+00 
0.0000000e+00 -5.0188273e-02 0.0000000e+00 
0.0000000e+00 -5.7184964e-02 0.0000000e+00 
0.0000000e+00 -6.4655222e-02 0.0000000e+00 
0.0000000e+00 -7.2599046e-02 0.0000000e+00 
0.0000000e+00 -9.5377609e-02 0.0000000e+00 
0.0000000e+00 -1.1610158e-01 0.0000000e+00 
0.0000000e+00 -1.3477096e-01 0.0000000e+00 
0.0000000e+00 -1.5138574e-01 0.0000000e+00 
0.0000000e+00 -1.6594593e-01 0.0000000e+00 
0.0000000e+00 -1.7845152e-01 0.0000000e+00 
0.0000000e+00 -1.8890254e-01 0.0000000e+00 
0.0000000e+00 -1.9729894e-01 0.0000000e+00 
0.0000000e+00 -2.0364077e-01 0.0000000e+00 
0.0000000e+00 -2.0792800e-01 0.0000000e+00 
0.0000000e+00 -2.1016064e-01 0.0000000e+00 
0.0000000e+00 -2.1033868e-01 0.0000000e+00 
0.0000000e+00 -2.0959789e-01 0.0000000e+00 
0.0000000e+00 -2.0723853e-01 0.0000000e+00 