# vtk DataFile Version 4.0
vtk output
ASCII
DATASET UNSTRUCTURED_GRID
POINTS 48 float
0.0000000e+00 0.0000000e+00 0.0000000e+00 
0.0000000e+00 0.0000000e+00 5.0000000e-01 
0.0000000e+00 0.0000000e+00 1.0000000e+00 
0.0000000e+00 0.0000000e+00 1.5000000e+00 
0.0000000e+00 0.0000000e+00 2.0000000e+00 
0.0000000e+00 0.0000000e+00 2.5000000e+00 
0.0000000e+00 0.0000000e+00 3.0000000e+00 
0.0000000e+00 0.0000000e+00 3.5000000e+00 
0.0000000e+00 0.0000000e+00 4.0000000e+00 
0.0000000e+00 0.0000000e+00 4.5000000e+00 
0.0000000e+00 0.0000000e+00 5.0000000e+00 
0.0000000e+00 0.0000000e+00 5.5000000e+00 
0.0000000e+00 0.0000000e+00 6.0000000e+00 
0.0000000e+00 0.0000000e+00 6.5000000e+00 
0.0000000e+00 0.0000000e+00 7.0000000e+00 
0.0000000e+00 0.0000000e+00 7.5000000e+00 
0.0000000e+00 0.0000000e+00 8.0000000e+00 
4.0000000e+00 0.0000000e+00 0.0000000e+00 
4.0000000e+00 0.0000000e+00 5.0000000e-01 
4.0000000e+00 0.0000000e+00 1.0000000e+00 
4.0000000e+00 0.0000000e+00 1.5000000e+00 
4.0000000e+00 0.0000000e+00 2.0000000e+00 
4.0000000e+00 0.0000000e+00 2.5000000e+00 
4.0000000e+00 0.0000000e+00 3.0000000e+00 
4.0000000e+00 0.0000000e+00 3.5000000e+00 
4.0000000e+00 0.0000000e+00 4.0000000e+00 
4.0000000e+00 0.0000000e+00 4.5000000e+00 
4.0000000e+00 0.0000000e+00 5.0000000e+00 
4.0000000e+00 0.0000000e+00 5.5000000e+00 
4.0000000e+00 0.0000000e+00 6.0000000e+00 
4.0000000e+00 0.0000000e+00 6.5000000e+00 
4.0000000e+00 0.0000000e+00 7.0000000e+00 
4.0000000e+00 0.0000000e+00 7.5000000e+00 
4.0000000e+00 0.0000000e+00 8.0000000e+00 
5.0000000e-01 0.0000000e+00 4.0000000e+00 
1.0000000e+00 0.0000000e+00 4.0000000e+00 
1.5000000e+00 0.0000000e+00 4.0000000e+00 
2.0000000e+00 0.0000000e+00 4.0000000e+00 
2.5000000e+00 0.0000000e+00 4.0000000e+00 
3.0000000e+00 0.0000000e+00 4.0000000e+00 
3.5000000e+00 0.0000000e+00 4.0000000e+00 
5.0000000e-01 0.0000000e+00 8.0000000e+00 
1.0000000e+00 0.0000000e+00 8.0000000e+00 
1.5000000e+00 0.0000000e+00 8.0000000e+00 
2.0000000e+00 0.0000000e+00 8.0000000e+00 
2.5000000e+00 0.0000000e+00 8.0000000e+00 
3.0000000e+00 0.0000000e+00 8.0000000e+00 
3.5000000e+00 0.0000000e+00 8.0000000e+00 

CELLS 48 144
2 0 1
2 1 2
2 2 3
2 3 4
2 4 5
2 5 6
2 6 7
2 7 8
2 8 9
2 9 10
2 10 11
2 11 12
2 12 13
2 13 14
2 14 15
2 15 16
2 17 18
2 18 19
2 19 20
2 20 21
2 21 22
2 22 23
2 23 24
2 24 25
2 25 26
2 26 27
2 27 28
2 28 29
2 29 30
2 30 31
2 31 32
2 32 33
2 8 34
2 34 35
2 35 36
2 36 37
2 37 38
2 38 39
2 39 40
2 40 25
2 16 41
2 41 42
2 42 43
2 43 44
2 44 45
2 45 46
2 46 47
2 47 33

CELL_TYPES 48
3
3
3
3
3
3
3
3
3
3
3
3
3
3
3
3
3
3
3
3
3
3
3
3
3
3
3
3
3
3
3
3
3
3
3
3
3
3
3
3
3
3
3
3
3
3
3
3
POINT_DATA 48
FIELD FieldData 3
ADJOINT_DISPLACEMENT 3 48  float
0.0000000e+00 0.0000000e+00 0.0000000e+00 
-7.4172020e-02 0.0000000e+00 1.2599693e-14 
-1.4676562e-01 0.0000000e+00 2.5199386e-14 
-2.1620236e-01 0.0000000e+00 3.7799079e-14 
-2.8090385e-01 0.0000000e+00 5.0398772e-14 
-3.3929166e-01 0.0000000e+00 6.2998468e-14 
-3.8978732e-01 0.0000000e+00 7.5598158e-14 
-4.3081248e-01 0.0000000e+00 8.8197855e-14 
-4.6078867e-01 0.0000000e+00 1.0079754e-13 
-4.8153660e-01 0.0000000e+00 1.0272938e-13 
-4.9651086e-01 0.0000000e+00 1.0456829e-13 
-5.0658369e-01 0.0000000e+00 1.0638560e-13 
-5.1262736e-01 0.0000000e+00 1.0817024e-13 
-5.1551425e-01 0.0000000e+00 1.0996840e-13 
-5.1611650e-01 0.0000000e+00 1.1174051e-13 
-5.1530653e-01 0.0000000e+00 1.1350628e-13 
-5.1395661e-01 0.0000000e+00 1.1527261e-13 
0.0000000e+00 0.0000000e+00 0.0000000e+00 
-4.2582798e-01 0.0000000e+00 -1.3516965e-14 
-8.5323441e-01 0.0000000e+00 -2.7023695e-14 
-7.8379762e-01 0.0000000e+00 -4.0502930e-14 
-7.1909612e-01 0.0000000e+00 -5.3980109e-14 
-6.6070837e-01 0.0000000e+00 -6.7434556e-14 
-6.1021268e-01 0.0000000e+00 -8.0871182e-14 
-5.6918752e-01 0.0000000e+00 -9.4210386e-14 
-5.3921133e-01 0.0000000e+00 -1.0747578e-13 
-5.1846337e-01 0.0000000e+00 -1.0929500e-13 
-5.0348914e-01 0.0000000e+00 -1.1113342e-13 
-4.9341631e-01 0.0000000e+00 -1.1287080e-13 
-4.8737261e-01 0.0000000e+00 -1.1460831e-13 
-4.8448578e-01 0.0000000e+00 -1.1635399e-13 
-4.8388347e-01 0.0000000e+00 -1.1803006e-13 
-4.8469347e-01 0.0000000e+00 -1.1976557e-13 
-4.8604342e-01 0.0000000e+00 -1.2152277e-13 
-4.7059149e-01 0.0000000e+00 2.0934869e-02 
-4.8039433e-01 0.0000000e+00 3.5888348e-02 
-4.9019715e-01 0.0000000e+00 4.4860434e-02 
-5.0000000e-01 0.0000000e+00 4.7851130e-02 
-5.0980282e-01 0.0000000e+00 4.4860434e-02 
-5.1960570e-01 0.0000000e+00 3.5888348e-02 
-5.2940851e-01 0.0000000e+00 2.0934869e-02 
-5.1046741e-01 0.0000000e+00 -1.1630483e-03 
-5.0697827e-01 0.0000000e+00 -1.9937970e-03 
-5.0348914e-01 0.0000000e+00 -2.4922465e-03 
-5.0000000e-01 0.0000000e+00 -2.6583960e-03 
-4.9651086e-01 0.0000000e+00 -2.4922465e-03 
-4.9302170e-01 0.0000000e+00 -1.9937970e-03 
-4.8953256e-01 0.0000000e+00 -1.1630483e-03 
ADJOINT_ROTATION 3 48  float
0.0000000e+00 -1.4887019e-01 0.0000000e+00 
0.0000000e+00 -1.4729176e-01 0.0000000e+00 
0.0000000e+00 -1.4255649e-01 0.0000000e+00 
0.0000000e+00 -1.3466437e-01 0.0000000e+00 
0.0000000e+00 -1.2361542e-01 0.0000000e+00 
0.0000000e+00 -1.0940962e-01 0.0000000e+00 
0.0000000e+00 -9.2046969e-02 0.0000000e+00 
0.0000000e+00 -7.1527474e-02 0.0000000e+00 
0.0000000e+00 -4.7851130e-02 0.0000000e+00 
0.0000000e+00 -3.5431437e-02 0.0000000e+00 
0.0000000e+00 -2.4756314e-02 0.0000000e+00 
0.0000000e+00 -1.5825765e-02 0.0000000e+00 
0.0000000e+00 -8.6397873e-03 0.0000000e+00 
0.0000000e+00 -3.1983829e-03 0.0000000e+00 
0.0000000e+00 4.9844926e-04 0.0000000e+00 
0.0000000e+00 2.4507090e-03 0.0000000e+00 
0.0000000e+00 2.6583960e-03 0.0000000e+00 
0.0000000e+00 -8.5112983e-01 0.0000000e+00 
0.0000000e+00 -8.5270822e-01 0.0000000e+00 
0.0000000e+00 -8.5744351e-01 0.0000000e+00 
0.0000000e+00 1.3466437e-01 0.0000000e+00 
0.0000000e+00 1.2361542e-01 0.0000000e+00 
0.0000000e+00 1.0940962e-01 0.0000000e+00 
0.0000000e+00 9.2046969e-02 0.0000000e+00 
0.0000000e+00 7.1527474e-02 0.0000000e+00 
0.0000000e+00 4.7851130e-02 0.0000000e+00 
0.0000000e+00 3.5431437e-02 0.0000000e+00 
0.0000000e+00 2.4756314e-02 0.0000000e+00 
0.0000000e+00 1.5825765e-02 0.0000000e+00 
0.0000000e+00 8.6397873e-03 0.0000000e+00 
0.0000000e+00 3.1983829e-03 0.0000000e+00 
0.0000000e+00 -4.9844926e-04 0.0000000e+00 
0.0000000e+00 -2.4507090e-03 0.0000000e+00 
0.0000000e+00 -2.6583960e-03 0.0000000e+00 
0.0000000e+00 -3.5888348e-02 0.0000000e+00 
0.0000000e+00 -2.3925565e-02 0.0000000e+00 
0.0000000e+00 -1.1962783e-02 0.0000000e+00 
0.0000000e+00 3.7618444e-14 0.0000000e+00 
0.0000000e+00 1.1962783e-02 0.0000000e+00 
0.0000000e+00 2.3925565e-02 0.0000000e+00 
0.0000000e+00 3.5888348e-02 0.0000000e+00 
0.0000000e+00 1.9937970e-03 0.0000000e+00 
0.0000000e+00 1.3291980e-03 0.0000000e+00 
0.0000000e+00 6.6459901e-04 0.0000000e+00 
0.0000000e+00 5.6848047e-14 0.0000000e+00 
0.0000000e+00 -6.6459901e-04 0.0000000e+00 
0.0000000e+00 -1.3291980e-03 0.0000000e+00 
0.0000000e+00 -1.9937970e-03 0.0000000e+00 
SHAPE_SENSITIVITY 3 48  float
0.0000000e+00 0.0000000e+00 0.0000000e+00 
0.0000000e+00 0.0000000e+00 0.0000000e+00 
0.0000000e+00 0.0000000e+00 0.0000000e+00 
0.0000000e+00 0.0000000e+00 0.0000000e+00 
0.0000000e+00 0.0000000e+00 0.0000000e+00 
0.0000000e+00 0.0000000e+00 0.0000000e+00 
0.0000000e+00 0.0000000e+00 0.0000000e+00 
0.0000000e+00 0.0000000e+00 0.0000000e+00 
0.0000000e+00 0.0000000e+00 0.0000000e+00 
0.0000000e+00 0.0000000e+00 0.0000000e+00 
0.0000000e+00 0.0000000e+00 0.0000000e+00 
0.0000000e+00 0.0000000e+00 0.0000000e+00 
0.0000000e+00 0.0000000e+00 0.0000000e+00 
0.0000000e+00 0.0000000e+00 0.0000000e+00 
0.0000000e+00 0.0000000e+00 0.0000000e+00 
0.0000000e+00 0.0000000e+00 0.0000000e+00 
0.0000000e+00 0.0000000e+00 0.0000000e+00 
0.0000000e+00 0.0000000e+00 0.0000000e+00 
0.0000000e+00 0.0000000e+00 0.0000000e+00 
0.0000000e+00 0.0000000e+00 0.0000000e+00 
0.0000000e+00 0.0000000e+00 0.0000000e+00 
0.0000000e+00 0.0000000e+00 0.0000000e+00 
0.0000000e+00 0.0000000e+00 0.0000000e+00 
0.0000000e+00 0.0000000e+00 0.0000000e+00 
0.0000000e+00 0.0000000e+00 0.0000000e+00 
0.0000000e+00 0.0000000e+00 0.0000000e+00 
0.0000000e+00 0.0000000e+00 0.0000000e+00 
0.0000000e+00 0.0000000e+00 0.0000000e+00 
0.0000000e+00 0.0000000e+00 0.0000000e+00 
0.0000000e+00 0.0000000e+00 0.0000000e+00 
0.0000000e+00 0.0000000e+00 0.0000000e+00 
0.0000000e+00 0.0000000e+00 0.0000000e+00 
0.0000000e+00 0.0000000e+00 0.0000000e+00 
0.0000000e+00 0.0000000e+00 0.0000000e+00 
0.0000000e+00 0.0000000e+00 0.0000000e+00 
0.0000000e+00 0.0000000e+00 0.0000000e+00 
0.0000000e+00 0.0000000e+00 0.0000000e+00 
0.0000000e+00 0.0000000e+00 0.0000000e+00 
0.0000000e+00 0.0000000e+00 0.0000000e+00 
0.0000000e+00 0.0000000e+00 0.0000000e+00 
0.0000000e+00 0.0000000e+00 0.0000000e+00 
0.0000000e+00 0.0000000e+00 0.0000000e+00 
0.0000000e+00 0.0000000e+00 0.0000000e+00 
0.0000000e+00 0.0000000e+00 0.0000000e+00 
0.0000000e+00 0.0000000e+00 0.0000000e+00 
0.0000000e+00 0.0000000e+00 0.0000000e+00 
0.0000000e+00 0.0000000e+00 0.0000000e+00 
0.0000000e+00 0.0000000e+00 0.0000000e+00 
CELL_DATA 48
FIELD FieldData 1
I22_SENSITIVITY 1 48  float
-2.4966716e-03
-1.7476654e-02
-4.7436595e-02
-9.2376560e-02
-1.5229645e-01
-2.2719635e-01
-3.1707624e-01
-4.2193609e-01
2.4541891e-01
1.3659376e-01
5.2116878e-02
-8.0117378e-03
-4.3792091e-02
-5.5224180e-02
-4.2308006e-02
-5.0435695e-03
-2.4966148e-03
-1.7476533e-02
-4.7436621e-02
-9.2376530e-02
-1.5229645e-01
-2.2719637e-01
-3.1707624e-01
-4.2193609e-01
2.4541891e-01
1.3659376e-01
5.2116878e-02
-8.0117388e-03
-4.3792091e-02
-5.5224180e-02
-4.2308006e-02
-5.0435686e-03
-2.9486912e-01
6.4014338e-02
3.0327010e-01
4.2289785e-01
4.2289788e-01
3.0327007e-01
6.4014517e-02
-2.9486912e-01
1.0074263e-02
-9.8637026e-03
-2.3155695e-02
-2.9801685e-02
-2.9801685e-02
-2.3155697e-02
-9.8637166e-03
1.0074254e-02
