# vtk DataFile Version 4.0
vtk output
ASCII
DATASET UNSTRUCTURED_GRID
POINTS 22 float
0.0000000e+00 0.0000000e+00 0.0000000e+00 
1.0000000e-01 0.0000000e+00 0.0000000e+00 
2.0000000e-01 0.0000000e+00 0.0000000e+00 
3.0000001e-01 0.0000000e+00 0.0000000e+00 
4.0000001e-01 0.0000000e+00 0.0000000e+00 
5.0000000e-01 0.0000000e+00 0.0000000e+00 
6.0000002e-01 0.0000000e+00 0.0000000e+00 
6.9999999e-01 0.0000000e+00 0.0000000e+00 
8.0000001e-01 0.0000000e+00 0.0000000e+00 
8.9999998e-01 0.0000000e+00 0.0000000e+00 
1.0000000e+00 0.0000000e+00 0.0000000e+00 
1.0000000e+00 0.0000000e+00 0.0000000e+00 
1.1000000e+00 0.0000000e+00 0.0000000e+00 
1.2000000e+00 0.0000000e+00 0.0000000e+00 
1.3000000e+00 0.0000000e+00 0.0000000e+00 
1.4000000e+00 0.0000000e+00 0.0000000e+00 
1.5000000e+00 0.0000000e+00 0.0000000e+00 
1.6000000e+00 0.0000000e+00 0.0000000e+00 
1.7000000e+00 0.0000000e+00 0.0000000e+00 
1.8000000e+00 0.0000000e+00 0.0000000e+00 
1.9000000e+00 0.0000000e+00 0.0000000e+00 
2.0000000e+00 0.0000000e+00 0.0000000e+00 

CELLS 20 60
2 0 1
2 1 2
2 2 3
2 3 4
2 4 5
2 5 6
2 6 7
2 7 8
2 8 9
2 9 10
2 11 12
2 12 13
2 13 14
2 14 15
2 15 16
2 16 17
2 17 18
2 18 19
2 19 20
2 20 21

CELL_TYPES 20
3
3
3
3
3
3
3
3
3
3
3
3
3
3
3
3
3
3
3
3
POINT_DATA 22
FIELD FieldData 4
DISPLACEMENT 3 22  float
0.0000000e+00 0.0000000e+00 0.0000000e+00 
2.4934273e-04 -2.5168306e-03 0.0000000e+00 
4.9868546e-04 -1.0067322e-02 0.0000000e+00 
7.4802822e-04 -2.2651475e-02 0.0000000e+00 
9.9737092e-04 -4.0269289e-02 0.0000000e+00 
1.2467137e-03 -6.2920764e-02 0.0000000e+00 
1.4960564e-03 -9.0605900e-02 0.0000000e+00 
1.7453992e-03 -1.2332470e-01 0.0000000e+00 
1.9947418e-03 -1.6107716e-01 0.0000000e+00 
2.2440846e-03 -2.0386328e-01 0.0000000e+00 
2.9257848e-17 -2.5157085e-01 0.0000000e+00 
2.9257848e-17 -2.5157085e-01 0.0000000e+00 
-2.2440846e-03 -2.0386328e-01 0.0000000e+00 
-1.9947418e-03 -1.6107716e-01 0.0000000e+00 
-1.7453992e-03 -1.2332470e-01 0.0000000e+00 
-1.4960564e-03 -9.0605900e-02 0.0000000e+00 
-1.2467137e-03 -6.2920764e-02 0.0000000e+00 
-9.9737092e-04 -4.0269289e-02 0.0000000e+00 
-7.4802822e-04 -2.2651475e-02 0.0000000e+00 
-4.9868546e-04 -1.0067322e-02 0.0000000e+00 
-2.4934273e-04 -2.5168306e-03 0.0000000e+00 
0.0000000e+00 0.0000000e+00 0.0000000e+00 
ROTATION 3 22  float
0.0000000e+00 0.0000000e+00 0.0000000e+00 
0.0000000e+00 0.0000000e+00 -5.0336614e-02 
0.0000000e+00 0.0000000e+00 -1.0067323e-01 
0.0000000e+00 0.0000000e+00 -1.5100984e-01 
0.0000000e+00 0.0000000e+00 -2.0134646e-01 
0.0000000e+00 0.0000000e+00 -2.5168306e-01 
0.0000000e+00 0.0000000e+00 -3.0201969e-01 
0.0000000e+00 0.0000000e+00 -3.5235628e-01 
0.0000000e+00 0.0000000e+00 -4.0269291e-01 
0.0000000e+00 0.0000000e+00 -4.5302951e-01 
0.0000000e+00 0.0000000e+00 -5.0000000e-01 
0.0000000e+00 0.0000000e+00 5.0000000e-01 
0.0000000e+00 0.0000000e+00 4.5302951e-01 
0.0000000e+00 0.0000000e+00 4.0269291e-01 
0.0000000e+00 0.0000000e+00 3.5235628e-01 
0.0000000e+00 0.0000000e+00 3.0201969e-01 
0.0000000e+00 0.0000000e+00 2.5168306e-01 
0.0000000e+00 0.0000000e+00 2.0134646e-01 
0.0000000e+00 0.0000000e+00 1.5100984e-01 
0.0000000e+00 0.0000000e+00 1.0067323e-01 
0.0000000e+00 0.0000000e+00 5.0336614e-02 
0.0000000e+00 0.0000000e+00 0.0000000e+00 
REACTION 3 22  float
-1.6731316e+06 -4.2233844e+04 0.0000000e+00 
-1.5135759e+06 -1.2606938e+05 0.0000000e+00 
-3.0315192e+06 -2.4219444e+05 0.0000000e+00 
-4.5536725e+06 -4.0844300e+05 0.0000000e+00 
-6.0720155e+06 -5.8920238e+05 0.0000000e+00 
-7.5693380e+06 -7.4392088e+05 0.0000000e+00 
-9.0201350e+06 -8.3371719e+05 0.0000000e+00 
-1.0393360e+07 -8.2699025e+05 0.0000000e+00 
-1.1656238e+07 -7.0312362e+05 0.0000000e+00 
1.7262171e+06 4.1259762e+06 0.0000000e+00 
5.3756768e+07 3.8991866e+05 0.0000000e+00 
-5.3756768e+07 3.8991866e+05 0.0000000e+00 
-1.7262171e+06 4.1259762e+06 0.0000000e+00 
1.1656238e+07 -7.0312362e+05 0.0000000e+00 
1.0393360e+07 -8.2699025e+05 0.0000000e+00 
9.0201350e+06 -8.3371719e+05 0.0000000e+00 
7.5693380e+06 -7.4392088e+05 0.0000000e+00 
6.0720155e+06 -5.8920238e+05 0.0000000e+00 
4.5536725e+06 -4.0844300e+05 0.0000000e+00 
3.0315192e+06 -2.4219444e+05 0.0000000e+00 
1.5135759e+06 -1.2606938e+05 0.0000000e+00 
1.6731316e+06 -4.2233844e+04 0.0000000e+00 
REACTION_MOMENT 3 22  float
0.0000000e+00 0.0000000e+00 5.1826391e+05 
0.0000000e+00 0.0000000e+00 -2.5367334e+04 
0.0000000e+00 0.0000000e+00 -8.1500047e+04 
0.0000000e+00 0.0000000e+00 -1.9757709e+05 
0.0000000e+00 0.0000000e+00 -3.9976647e+05 
0.0000000e+00 0.0000000e+00 -7.1009756e+05 
0.0000000e+00 0.0000000e+00 -1.1457175e+06 
0.0000000e+00 0.0000000e+00 -1.7185620e+06 
0.0000000e+00 0.0000000e+00 -2.4354175e+06 
0.0000000e+00 0.0000000e+00 -2.7478822e+06 
-0.0000000e+00 -0.0000000e+00 -1.7707230e+06 
0.0000000e+00 0.0000000e+00 1.7707230e+06 
0.0000000e+00 0.0000000e+00 2.7478822e+06 
0.0000000e+00 0.0000000e+00 2.4354175e+06 
0.0000000e+00 0.0000000e+00 1.7185620e+06 
0.0000000e+00 0.0000000e+00 1.1457175e+06 
0.0000000e+00 0.0000000e+00 7.1009756e+05 
0.0000000e+00 0.0000000e+00 3.9976647e+05 
0.0000000e+00 0.0000000e+00 1.9757709e+05 
0.0000000e+00 0.0000000e+00 8.1500047e+04 
0.0000000e+00 0.0000000e+00 2.5367334e+04 
0.0000000e+00 0.0000000e+00 -5.1826391e+05 
CELL_DATA 20
FIELD FieldData 2
MOMENT 3 20  float
0.0000000e+00 0.0000000e+00 5.2248638e+05 
0.0000000e+00 0.0000000e+00 5.2180825e+05 
0.0000000e+00 0.0000000e+00 5.2047656e+05 
0.0000000e+00 0.0000000e+00 5.1853888e+05 
0.0000000e+00 0.0000000e+00 5.1606266e+05 
0.0000000e+00 0.0000000e+00 5.1313116e+05 
0.0000000e+00 0.0000000e+00 5.0983872e+05 
0.0000000e+00 0.0000000e+00 5.0628584e+05 
0.0000000e+00 0.0000000e+00 5.0257456e+05 
0.0000000e+00 0.0000000e+00 4.6936200e+05 
0.0000000e+00 0.0000000e+00 4.6936200e+05 
0.0000000e+00 0.0000000e+00 5.0257456e+05 
0.0000000e+00 0.0000000e+00 5.0628584e+05 
0.0000000e+00 0.0000000e+00 5.0983872e+05 
0.0000000e+00 0.0000000e+00 5.1313116e+05 
0.0000000e+00 0.0000000e+00 5.1606266e+05 
0.0000000e+00 0.0000000e+00 5.1853888e+05 
0.0000000e+00 0.0000000e+00 5.2047656e+05 
0.0000000e+00 0.0000000e+00 5.2180825e+05 
0.0000000e+00 0.0000000e+00 5.2248638e+05 
FORCE 3 20  float
1.6715445e+06 8.4212461e+04 0.0000000e+00 
3.1650668e+06 4.0716362e+05 0.0000000e+00 
6.1186785e+06 1.1817880e+06 0.0000000e+00 
1.0467565e+07 2.6710600e+06 0.0000000e+00 
1.6119385e+07 5.0858385e+06 0.0000000e+00 
2.2959504e+07 8.5731810e+06 0.0000000e+00 
3.0857036e+07 1.3211721e+07 0.0000000e+00 
3.9671132e+07 1.9013744e+07 0.0000000e+00 
4.9256968e+07 2.5932724e+07 0.0000000e+00 
4.8139636e+07 2.3927342e+07 0.0000000e+00 
4.8139636e+07 -2.3927342e+07 0.0000000e+00 
4.9256968e+07 -2.5932724e+07 0.0000000e+00 
3.9671132e+07 -1.9013744e+07 0.0000000e+00 
3.0857036e+07 -1.3211721e+07 0.0000000e+00 
2.2959504e+07 -8.5731810e+06 0.0000000e+00 
1.6119385e+07 -5.0858385e+06 0.0000000e+00 
1.0467565e+07 -2.6710600e+06 0.0000000e+00 
6.1186785e+06 -1.1817880e+06 0.0000000e+00 
3.1650668e+06 -4.0716362e+05 0.0000000e+00 
1.6715445e+06 -8.4212461e+04 0.0000000e+00 
