# vtk DataFile Version 4.0
vtk output
ASCII
DATASET UNSTRUCTURED_GRID
POINTS 212 float
0.0000000e+00 0.0000000e+00 0.0000000e+00 
0.0000000e+00 0.0000000e+00 2.5000000e-01 
0.0000000e+00 0.0000000e+00 5.0000000e-01 
0.0000000e+00 0.0000000e+00 7.5000000e-01 
0.0000000e+00 0.0000000e+00 1.0000000e+00 
0.0000000e+00 0.0000000e+00 1.2500000e+00 
0.0000000e+00 0.0000000e+00 1.5000000e+00 
0.0000000e+00 0.0000000e+00 1.7500000e+00 
0.0000000e+00 0.0000000e+00 2.0000000e+00 
0.0000000e+00 0.0000000e+00 2.2500000e+00 
0.0000000e+00 0.0000000e+00 2.5000000e+00 
0.0000000e+00 0.0000000e+00 2.7500000e+00 
0.0000000e+00 0.0000000e+00 3.0000000e+00 
0.0000000e+00 0.0000000e+00 3.2500000e+00 
0.0000000e+00 0.0000000e+00 3.5000000e+00 
0.0000000e+00 0.0000000e+00 3.7500000e+00 
0.0000000e+00 0.0000000e+00 4.0000000e+00 
0.0000000e+00 0.0000000e+00 4.2500000e+00 
0.0000000e+00 0.0000000e+00 4.5000000e+00 
0.0000000e+00 0.0000000e+00 4.7500000e+00 
0.0000000e+00 0.0000000e+00 5.0000000e+00 
0.0000000e+00 0.0000000e+00 5.2500000e+00 
0.0000000e+00 0.0000000e+00 5.5000000e+00 
0.0000000e+00 0.0000000e+00 5.7500000e+00 
0.0000000e+00 0.0000000e+00 6.0000000e+00 
0.0000000e+00 0.0000000e+00 6.2500000e+00 
0.0000000e+00 0.0000000e+00 6.5000000e+00 
0.0000000e+00 0.0000000e+00 6.7500000e+00 
0.0000000e+00 0.0000000e+00 7.0000000e+00 
0.0000000e+00 0.0000000e+00 7.2500000e+00 
0.0000000e+00 0.0000000e+00 7.5000000e+00 
0.0000000e+00 0.0000000e+00 7.7500000e+00 
0.0000000e+00 0.0000000e+00 8.0000000e+00 
0.0000000e+00 0.0000000e+00 8.2500000e+00 
0.0000000e+00 0.0000000e+00 8.5000000e+00 
0.0000000e+00 0.0000000e+00 8.7500000e+00 
0.0000000e+00 0.0000000e+00 9.0000000e+00 
0.0000000e+00 0.0000000e+00 9.2500000e+00 
0.0000000e+00 0.0000000e+00 9.5000000e+00 
0.0000000e+00 0.0000000e+00 9.7500000e+00 
0.0000000e+00 0.0000000e+00 1.0000000e+01 
0.0000000e+00 0.0000000e+00 1.0250000e+01 
0.0000000e+00 0.0000000e+00 1.0500000e+01 
0.0000000e+00 0.0000000e+00 1.0750000e+01 
0.0000000e+00 0.0000000e+00 1.1000000e+01 
0.0000000e+00 0.0000000e+00 1.1250000e+01 
0.0000000e+00 0.0000000e+00 1.1500000e+01 
0.0000000e+00 0.0000000e+00 1.1750000e+01 
0.0000000e+00 0.0000000e+00 1.2000000e+01 
0.0000000e+00 0.0000000e+00 1.2250000e+01 
0.0000000e+00 0.0000000e+00 1.2500000e+01 
0.0000000e+00 0.0000000e+00 1.2750000e+01 
0.0000000e+00 0.0000000e+00 1.3000000e+01 
0.0000000e+00 0.0000000e+00 1.3250000e+01 
0.0000000e+00 0.0000000e+00 1.3500000e+01 
0.0000000e+00 0.0000000e+00 1.3750000e+01 
0.0000000e+00 0.0000000e+00 1.4000000e+01 
0.0000000e+00 0.0000000e+00 1.4250000e+01 
0.0000000e+00 0.0000000e+00 1.4500000e+01 
0.0000000e+00 0.0000000e+00 1.4750000e+01 
0.0000000e+00 0.0000000e+00 1.5000000e+01 
0.0000000e+00 0.0000000e+00 1.5250000e+01 
0.0000000e+00 0.0000000e+00 1.5500000e+01 
0.0000000e+00 0.0000000e+00 1.5750000e+01 
0.0000000e+00 0.0000000e+00 1.6000000e+01 
0.0000000e+00 0.0000000e+00 1.6250000e+01 
0.0000000e+00 0.0000000e+00 1.6500000e+01 
0.0000000e+00 0.0000000e+00 1.6750000e+01 
0.0000000e+00 0.0000000e+00 1.7000000e+01 
0.0000000e+00 0.0000000e+00 1.7250000e+01 
0.0000000e+00 0.0000000e+00 1.7500000e+01 
0.0000000e+00 0.0000000e+00 1.7750000e+01 
0.0000000e+00 0.0000000e+00 1.8000000e+01 
6.0000000e+00 0.0000000e+00 0.0000000e+00 
6.0000000e+00 0.0000000e+00 2.5000000e-01 
6.0000000e+00 0.0000000e+00 5.0000000e-01 
6.0000000e+00 0.0000000e+00 7.5000000e-01 
6.0000000e+00 0.0000000e+00 1.0000000e+00 
6.0000000e+00 0.0000000e+00 1.2500000e+00 
6.0000000e+00 0.0000000e+00 1.5000000e+00 
6.0000000e+00 0.0000000e+00 1.7500000e+00 
6.0000000e+00 0.0000000e+00 2.0000000e+00 
6.0000000e+00 0.0000000e+00 2.2500000e+00 
6.0000000e+00 0.0000000e+00 2.5000000e+00 
6.0000000e+00 0.0000000e+00 2.7500000e+00 
6.0000000e+00 0.0000000e+00 3.0000000e+00 
6.0000000e+00 0.0000000e+00 3.2500000e+00 
6.0000000e+00 0.0000000e+00 3.5000000e+00 
6.0000000e+00 0.0000000e+00 3.7500000e+00 
6.0000000e+00 0.0000000e+00 4.0000000e+00 
6.0000000e+00 0.0000000e+00 4.2500000e+00 
6.0000000e+00 0.0000000e+00 4.5000000e+00 
6.0000000e+00 0.0000000e+00 4.7500000e+00 
6.0000000e+00 0.0000000e+00 5.0000000e+00 
6.0000000e+00 0.0000000e+00 5.2500000e+00 
6.0000000e+00 0.0000000e+00 5.5000000e+00 
6.0000000e+00 0.0000000e+00 5.7500000e+00 
6.0000000e+00 0.0000000e+00 6.0000000e+00 
6.0000000e+00 0.0000000e+00 6.2500000e+00 
6.0000000e+00 0.0000000e+00 6.5000000e+00 
6.0000000e+00 0.0000000e+00 6.7500000e+00 
6.0000000e+00 0.0000000e+00 7.0000000e+00 
6.0000000e+00 0.0000000e+00 7.2500000e+00 
6.0000000e+00 0.0000000e+00 7.5000000e+00 
6.0000000e+00 0.0000000e+00 7.7500000e+00 
6.0000000e+00 0.0000000e+00 8.0000000e+00 
6.0000000e+00 0.0000000e+00 8.2500000e+00 
6.0000000e+00 0.0000000e+00 8.5000000e+00 
6.0000000e+00 0.0000000e+00 8.7500000e+00 
6.0000000e+00 0.0000000e+00 9.0000000e+00 
6.0000000e+00 0.0000000e+00 9.2500000e+00 
6.0000000e+00 0.0000000e+00 9.5000000e+00 
6.0000000e+00 0.0000000e+00 9.7500000e+00 
6.0000000e+00 0.0000000e+00 1.0000000e+01 
6.0000000e+00 0.0000000e+00 1.0250000e+01 
6.0000000e+00 0.0000000e+00 1.0500000e+01 
6.0000000e+00 0.0000000e+00 1.0750000e+01 
6.0000000e+00 0.0000000e+00 1.1000000e+01 
6.0000000e+00 0.0000000e+00 1.1250000e+01 
6.0000000e+00 0.0000000e+00 1.1500000e+01 
6.0000000e+00 0.0000000e+00 1.1750000e+01 
6.0000000e+00 0.0000000e+00 1.2000000e+01 
6.0000000e+00 0.0000000e+00 1.2250000e+01 
6.0000000e+00 0.0000000e+00 1.2500000e+01 
6.0000000e+00 0.0000000e+00 1.2750000e+01 
6.0000000e+00 0.0000000e+00 1.3000000e+01 
6.0000000e+00 0.0000000e+00 1.3250000e+01 
6.0000000e+00 0.0000000e+00 1.3500000e+01 
6.0000000e+00 0.0000000e+00 1.3750000e+01 
6.0000000e+00 0.0000000e+00 1.4000000e+01 
6.0000000e+00 0.0000000e+00 1.4250000e+01 
6.0000000e+00 0.0000000e+00 1.4500000e+01 
6.0000000e+00 0.0000000e+00 1.4750000e+01 
6.0000000e+00 0.0000000e+00 1.5000000e+01 
6.0000000e+00 0.0000000e+00 1.5250000e+01 
6.0000000e+00 0.0000000e+00 1.5500000e+01 
6.0000000e+00 0.0000000e+00 1.5750000e+01 
6.0000000e+00 0.0000000e+00 1.6000000e+01 
6.0000000e+00 0.0000000e+00 1.6250000e+01 
6.0000000e+00 0.0000000e+00 1.6500000e+01 
6.0000000e+00 0.0000000e+00 1.6750000e+01 
6.0000000e+00 0.0000000e+00 1.7000000e+01 
6.0000000e+00 0.0000000e+00 1.7250000e+01 
6.0000000e+00 0.0000000e+00 1.7500000e+01 
6.0000000e+00 0.0000000e+00 1.7750000e+01 
6.0000000e+00 0.0000000e+00 1.8000000e+01 
5.0000000e-01 0.0000000e+00 3.0000000e+00 
1.0000000e+00 0.0000000e+00 3.0000000e+00 
1.5000000e+00 0.0000000e+00 3.0000000e+00 
2.0000000e+00 0.0000000e+00 3.0000000e+00 
2.5000000e+00 0.0000000e+00 3.0000000e+00 
3.0000000e+00 0.0000000e+00 3.0000000e+00 
3.5000000e+00 0.0000000e+00 3.0000000e+00 
4.0000000e+00 0.0000000e+00 3.0000000e+00 
4.5000000e+00 0.0000000e+00 3.0000000e+00 
5.0000000e+00 0.0000000e+00 3.0000000e+00 
5.5000000e+00 0.0000000e+00 3.0000000e+00 
5.0000000e-01 0.0000000e+00 6.0000000e+00 
1.0000000e+00 0.0000000e+00 6.0000000e+00 
1.5000000e+00 0.0000000e+00 6.0000000e+00 
2.0000000e+00 0.0000000e+00 6.0000000e+00 
2.5000000e+00 0.0000000e+00 6.0000000e+00 
3.0000000e+00 0.0000000e+00 6.0000000e+00 
3.5000000e+00 0.0000000e+00 6.0000000e+00 
4.0000000e+00 0.0000000e+00 6.0000000e+00 
4.5000000e+00 0.0000000e+00 6.0000000e+00 
5.0000000e+00 0.0000000e+00 6.0000000e+00 
5.5000000e+00 0.0000000e+00 6.0000000e+00 
5.0000000e-01 0.0000000e+00 9.0000000e+00 
1.0000000e+00 0.0000000e+00 9.0000000e+00 
1.5000000e+00 0.0000000e+00 9.0000000e+00 
2.0000000e+00 0.0000000e+00 9.0000000e+00 
2.5000000e+00 0.0000000e+00 9.0000000e+00 
3.0000000e+00 0.0000000e+00 9.0000000e+00 
3.5000000e+00 0.0000000e+00 9.0000000e+00 
4.0000000e+00 0.0000000e+00 9.0000000e+00 
4.5000000e+00 0.0000000e+00 9.0000000e+00 
5.0000000e+00 0.0000000e+00 9.0000000e+00 
5.5000000e+00 0.0000000e+00 9.0000000e+00 
5.0000000e-01 0.0000000e+00 1.2000000e+01 
1.0000000e+00 0.0000000e+00 1.2000000e+01 
1.5000000e+00 0.0000000e+00 1.2000000e+01 
2.0000000e+00 0.0000000e+00 1.2000000e+01 
2.5000000e+00 0.0000000e+00 1.2000000e+01 
3.0000000e+00 0.0000000e+00 1.2000000e+01 
3.5000000e+00 0.0000000e+00 1.2000000e+01 
4.0000000e+00 0.0000000e+00 1.2000000e+01 
4.5000000e+00 0.0000000e+00 1.2000000e+01 
5.0000000e+00 0.0000000e+00 1.2000000e+01 
5.5000000e+00 0.0000000e+00 1.2000000e+01 
5.0000000e-01 0.0000000e+00 1.5000000e+01 
1.0000000e+00 0.0000000e+00 1.5000000e+01 
1.5000000e+00 0.0000000e+00 1.5000000e+01 
2.0000000e+00 0.0000000e+00 1.5000000e+01 
2.5000000e+00 0.0000000e+00 1.5000000e+01 
3.0000000e+00 0.0000000e+00 1.5000000e+01 
3.5000000e+00 0.0000000e+00 1.5000000e+01 
4.0000000e+00 0.0000000e+00 1.5000000e+01 
4.5000000e+00 0.0000000e+00 1.5000000e+01 
5.0000000e+00 0.0000000e+00 1.5000000e+01 
5.5000000e+00 0.0000000e+00 1.5000000e+01 
5.0000000e-01 0.0000000e+00 1.8000000e+01 
1.0000000e+00 0.0000000e+00 1.8000000e+01 
1.5000000e+00 0.0000000e+00 1.8000000e+01 
2.0000000e+00 0.0000000e+00 1.8000000e+01 
2.5000000e+00 0.0000000e+00 1.8000000e+01 
3.0000000e+00 0.0000000e+00 1.8000000e+01 
3.5000000e+00 0.0000000e+00 1.8000000e+01 
4.0000000e+00 0.0000000e+00 1.8000000e+01 
4.5000000e+00 0.0000000e+00 1.8000000e+01 
5.0000000e+00 0.0000000e+00 1.8000000e+01 
5.5000000e+00 0.0000000e+00 1.8000000e+01 

CELLS 216 648
2 0 1
2 1 2
2 2 3
2 3 4
2 4 5
2 5 6
2 6 7
2 7 8
2 8 9
2 9 10
2 10 11
2 11 12
2 12 13
2 13 14
2 14 15
2 15 16
2 16 17
2 17 18
2 18 19
2 19 20
2 20 21
2 21 22
2 22 23
2 23 24
2 24 25
2 25 26
2 26 27
2 27 28
2 28 29
2 29 30
2 30 31
2 31 32
2 32 33
2 33 34
2 34 35
2 35 36
2 36 37
2 37 38
2 38 39
2 39 40
2 40 41
2 41 42
2 42 43
2 43 44
2 44 45
2 45 46
2 46 47
2 47 48
2 48 49
2 49 50
2 50 51
2 51 52
2 52 53
2 53 54
2 54 55
2 55 56
2 56 57
2 57 58
2 58 59
2 59 60
2 60 61
2 61 62
2 62 63
2 63 64
2 64 65
2 65 66
2 66 67
2 67 68
2 68 69
2 69 70
2 70 71
2 71 72
2 73 74
2 74 75
2 75 76
2 76 77
2 77 78
2 78 79
2 79 80
2 80 81
2 81 82
2 82 83
2 83 84
2 84 85
2 85 86
2 86 87
2 87 88
2 88 89
2 89 90
2 90 91
2 91 92
2 92 93
2 93 94
2 94 95
2 95 96
2 96 97
2 97 98
2 98 99
2 99 100
2 100 101
2 101 102
2 102 103
2 103 104
2 104 105
2 105 106
2 106 107
2 107 108
2 108 109
2 109 110
2 110 111
2 111 112
2 112 113
2 113 114
2 114 115
2 115 116
2 116 117
2 117 118
2 118 119
2 119 120
2 120 121
2 121 122
2 122 123
2 123 124
2 124 125
2 125 126
2 126 127
2 127 128
2 128 129
2 129 130
2 130 131
2 131 132
2 132 133
2 133 134
2 134 135
2 135 136
2 136 137
2 137 138
2 138 139
2 139 140
2 140 141
2 141 142
2 142 143
2 143 144
2 144 145
2 12 146
2 146 147
2 147 148
2 148 149
2 149 150
2 150 151
2 151 152
2 152 153
2 153 154
2 154 155
2 155 156
2 156 85
2 24 157
2 157 158
2 158 159
2 159 160
2 160 161
2 161 162
2 162 163
2 163 164
2 164 165
2 165 166
2 166 167
2 167 97
2 36 168
2 168 169
2 169 170
2 170 171
2 171 172
2 172 173
2 173 174
2 174 175
2 175 176
2 176 177
2 177 178
2 178 109
2 48 179
2 179 180
2 180 181
2 181 182
2 182 183
2 183 184
2 184 185
2 185 186
2 186 187
2 187 188
2 188 189
2 189 121
2 60 190
2 190 191
2 191 192
2 192 193
2 193 194
2 194 195
2 195 196
2 196 197
2 197 198
2 198 199
2 199 200
2 200 133
2 72 201
2 201 202
2 202 203
2 203 204
2 204 205
2 205 206
2 206 207
2 207 208
2 208 209
2 209 210
2 210 211
2 211 145

CELL_TYPES 216
3
3
3
3
3
3
3
3
3
3
3
3
3
3
3
3
3
3
3
3
3
3
3
3
3
3
3
3
3
3
3
3
3
3
3
3
3
3
3
3
3
3
3
3
3
3
3
3
3
3
3
3
3
3
3
3
3
3
3
3
3
3
3
3
3
3
3
3
3
3
3
3
3
3
3
3
3
3
3
3
3
3
3
3
3
3
3
3
3
3
3
3
3
3
3
3
3
3
3
3
3
3
3
3
3
3
3
3
3
3
3
3
3
3
3
3
3
3
3
3
3
3
3
3
3
3
3
3
3
3
3
3
3
3
3
3
3
3
3
3
3
3
3
3
3
3
3
3
3
3
3
3
3
3
3
3
3
3
3
3
3
3
3
3
3
3
3
3
3
3
3
3
3
3
3
3
3
3
3
3
3
3
3
3
3
3
3
3
3
3
3
3
3
3
3
3
3
3
3
3
3
3
3
3
3
3
3
3
3
3
3
3
3
3
3
3
POINT_DATA 212
FIELD FieldData 7
DISPLACEMENT 3 212  float
0.0000000e+00 0.0000000e+00 0.0000000e+00 
-1.0919754e-04 0.0000000e+00 -4.4628609e-07 
-2.1381406e-04 0.0000000e+00 -8.9257219e-07 
-3.0926857e-04 0.0000000e+00 -1.3388583e-06 
-3.9098007e-04 0.0000000e+00 -1.7851444e-06 
-4.5436755e-04 0.0000000e+00 -2.2314305e-06 
-4.9484998e-04 0.0000000e+00 -2.6777166e-06 
-5.0784636e-04 0.0000000e+00 -3.1240027e-06 
-4.8877572e-04 0.0000000e+00 -3.5702888e-06 
-4.3305702e-04 0.0000000e+00 -4.0165746e-06 
-3.3610925e-04 0.0000000e+00 -4.4628609e-06 
-1.9335144e-04 0.0000000e+00 -4.9091468e-06 
-2.0254093e-07 0.0000000e+00 -5.3554331e-06 
1.7360966e-04 0.0000000e+00 -5.7273382e-06 
2.6539009e-04 0.0000000e+00 -6.0992434e-06 
2.9026874e-04 0.0000000e+00 -6.4711485e-06 
2.6337567e-04 0.0000000e+00 -6.8430531e-06 
1.9984083e-04 0.0000000e+00 -7.2149583e-06 
1.1479426e-04 0.0000000e+00 -7.5868634e-06 
2.3365987e-05 0.0000000e+00 -7.9587689e-06 
-5.9313988e-05 0.0000000e+00 -8.3306741e-06 
-1.1811565e-04 0.0000000e+00 -8.7025783e-06 
-1.3790900e-04 0.0000000e+00 -9.0744834e-06 
-1.0356399e-04 0.0000000e+00 -9.4463885e-06 
4.9370911e-08 0.0000000e+00 -9.8182936e-06 
1.0837473e-04 0.0000000e+00 -1.0115818e-05 
1.5514149e-04 0.0000000e+00 -1.0413342e-05 
1.5290825e-04 0.0000000e+00 -1.0710866e-05 
1.1423363e-04 0.0000000e+00 -1.1008390e-05 
5.1676230e-05 0.0000000e+00 -1.1305914e-05 
-2.2205324e-05 0.0000000e+00 -1.1603438e-05 
-9.4852425e-05 0.0000000e+00 -1.1900962e-05 
-1.5370647e-04 0.0000000e+00 -1.2198487e-05 
-1.8620882e-04 0.0000000e+00 -1.2496011e-05 
-1.7980090e-04 0.0000000e+00 -1.2793535e-05 
-1.2192407e-04 0.0000000e+00 -1.3091058e-05 
-1.9731194e-08 0.0000000e+00 -1.3388582e-05 
1.2000144e-04 0.0000000e+00 -1.3611726e-05 
1.7291389e-04 0.0000000e+00 -1.3834869e-05 
1.7230389e-04 0.0000000e+00 -1.4058011e-05 
1.3175771e-04 0.0000000e+00 -1.4281155e-05 
6.4861633e-05 0.0000000e+00 -1.4504298e-05 
-1.4798058e-05 0.0000000e+00 -1.4727440e-05 
-9.3635084e-05 0.0000000e+00 -1.4950584e-05 
-1.5806317e-04 0.0000000e+00 -1.5173727e-05 
-1.9449604e-04 0.0000000e+00 -1.5396870e-05 
-1.8934740e-04 0.0000000e+00 -1.5620013e-05 
-1.2903099e-04 0.0000000e+00 -1.5843156e-05 
3.9483680e-08 0.0000000e+00 -1.6066298e-05 
1.3287831e-04 0.0000000e+00 -1.6215061e-05 
2.0312885e-04 0.0000000e+00 -1.6363823e-05 
2.2232092e-04 0.0000000e+00 -1.6512586e-05 
2.0198435e-04 0.0000000e+00 -1.6661348e-05 
1.5364902e-04 0.0000000e+00 -1.6810109e-05 
8.8844725e-05 0.0000000e+00 -1.6958871e-05 
1.9101326e-05 0.0000000e+00 -1.7107634e-05 
-4.4051350e-05 0.0000000e+00 -1.7256396e-05 
-8.9083464e-05 0.0000000e+00 -1.7405157e-05 
-1.0446518e-04 0.0000000e+00 -1.7553919e-05 
-7.8666650e-05 0.0000000e+00 -1.7702681e-05 
-1.5805423e-07 0.0000000e+00 -1.7851444e-05 
6.3263666e-05 0.0000000e+00 -1.7925824e-05 
4.9289541e-05 0.0000000e+00 -1.8000206e-05 
-2.2318594e-05 0.0000000e+00 -1.8074586e-05 
-1.3179891e-04 0.0000000e+00 -1.8148967e-05 
-2.5938958e-04 0.0000000e+00 -1.8223349e-05 
-3.8532878e-04 0.0000000e+00 -1.8297729e-05 
-4.8985466e-04 0.0000000e+00 -1.8372111e-05 
-5.5320543e-04 0.0000000e+00 -1.8446492e-05 
-5.5561925e-04 0.0000000e+00 -1.8520872e-05 
-4.7733425e-04 0.0000000e+00 -1.8595254e-05 
-2.9858862e-04 0.0000000e+00 -1.8669634e-05 
3.7942712e-07 0.0000000e+00 -1.8744016e-05 
0.0000000e+00 0.0000000e+00 0.0000000e+00 
1.0919754e-04 0.0000000e+00 -4.4628609e-07 
2.1381406e-04 0.0000000e+00 -8.9257219e-07 
3.0926857e-04 0.0000000e+00 -1.3388583e-06 
3.9098007e-04 0.0000000e+00 -1.7851444e-06 
4.5436755e-04 0.0000000e+00 -2.2314305e-06 
4.9484998e-04 0.0000000e+00 -2.6777166e-06 
5.0784636e-04 0.0000000e+00 -3.1240027e-06 
4.8877572e-04 0.0000000e+00 -3.5702888e-06 
4.3305702e-04 0.0000000e+00 -4.0165746e-06 
3.3610925e-04 0.0000000e+00 -4.4628609e-06 
1.9335144e-04 0.0000000e+00 -4.9091468e-06 
2.0254093e-07 0.0000000e+00 -5.3554331e-06 
-1.7360966e-04 0.0000000e+00 -5.7273382e-06 
-2.6539009e-04 0.0000000e+00 -6.0992434e-06 
-2.9026874e-04 0.0000000e+00 -6.4711485e-06 
-2.6337567e-04 0.0000000e+00 -6.8430531e-06 
-1.9984083e-04 0.0000000e+00 -7.2149583e-06 
-1.1479426e-04 0.0000000e+00 -7.5868634e-06 
-2.3365987e-05 0.0000000e+00 -7.9587689e-06 
5.9313988e-05 0.0000000e+00 -8.3306741e-06 
1.1811565e-04 0.0000000e+00 -8.7025783e-06 
1.3790900e-04 0.0000000e+00 -9.0744834e-06 
1.0356399e-04 0.0000000e+00 -9.4463885e-06 
-4.9370900e-08 0.0000000e+00 -9.8182936e-06 
-1.0837473e-04 0.0000000e+00 -1.0115818e-05 
-1.5514149e-04 0.0000000e+00 -1.0413342e-05 
-1.5290825e-04 0.0000000e+00 -1.0710866e-05 
-1.1423363e-04 0.0000000e+00 -1.1008390e-05 
-5.1676230e-05 0.0000000e+00 -1.1305914e-05 
2.2205324e-05 0.0000000e+00 -1.1603438e-05 
9.4852425e-05 0.0000000e+00 -1.1900962e-05 
1.5370647e-04 0.0000000e+00 -1.2198487e-05 
1.8620882e-04 0.0000000e+00 -1.2496011e-05 
1.7980090e-04 0.0000000e+00 -1.2793535e-05 
1.2192407e-04 0.0000000e+00 -1.3091058e-05 
1.9731205e-08 0.0000000e+00 -1.3388582e-05 
-1.2000144e-04 0.0000000e+00 -1.3611726e-05 
-1.7291389e-04 0.0000000e+00 -1.3834869e-05 
-1.7230389e-04 0.0000000e+00 -1.4058011e-05 
-1.3175771e-04 0.0000000e+00 -1.4281155e-05 
-6.4861633e-05 0.0000000e+00 -1.4504298e-05 
1.4798058e-05 0.0000000e+00 -1.4727440e-05 
9.3635084e-05 0.0000000e+00 -1.4950584e-05 
1.5806317e-04 0.0000000e+00 -1.5173727e-05 
1.9449604e-04 0.0000000e+00 -1.5396870e-05 
1.8934740e-04 0.0000000e+00 -1.5620013e-05 
1.2903099e-04 0.0000000e+00 -1.5843156e-05 
-3.9483666e-08 0.0000000e+00 -1.6066298e-05 
-1.3287831e-04 0.0000000e+00 -1.6215061e-05 
-2.0312885e-04 0.0000000e+00 -1.6363823e-05 
-2.2232092e-04 0.0000000e+00 -1.6512586e-05 
-2.0198435e-04 0.0000000e+00 -1.6661348e-05 
-1.5364902e-04 0.0000000e+00 -1.6810109e-05 
-8.8844725e-05 0.0000000e+00 -1.6958871e-05 
-1.9101326e-05 0.0000000e+00 -1.7107634e-05 
4.4051350e-05 0.0000000e+00 -1.7256396e-05 
8.9083464e-05 0.0000000e+00 -1.7405157e-05 
1.0446518e-04 0.0000000e+00 -1.7553919e-05 
7.8666650e-05 0.0000000e+00 -1.7702681e-05 
1.5805425e-07 0.0000000e+00 -1.7851444e-05 
-6.3263666e-05 0.0000000e+00 -1.7925824e-05 
-4.9289541e-05 0.0000000e+00 -1.8000206e-05 
2.2318594e-05 0.0000000e+00 -1.8074586e-05 
1.3179891e-04 0.0000000e+00 -1.8148967e-05 
2.5938958e-04 0.0000000e+00 -1.8223349e-05 
3.8532878e-04 0.0000000e+00 -1.8297729e-05 
4.8985466e-04 0.0000000e+00 -1.8372111e-05 
5.5320543e-04 0.0000000e+00 -1.8446492e-05 
5.5561925e-04 0.0000000e+00 -1.8520872e-05 
4.7733425e-04 0.0000000e+00 -1.8595254e-05 
2.9858862e-04 0.0000000e+00 -1.8669634e-05 
-3.7942712e-07 0.0000000e+00 -1.8744016e-05 
-1.6878411e-07 0.0000000e+00 -6.9691788e-04 
-1.3502728e-07 0.0000000e+00 -1.6918629e-03 
-1.0127047e-07 0.0000000e+00 -2.7327179e-03 
-6.7513639e-08 0.0000000e+00 -3.6192262e-03 
-3.3756820e-08 0.0000000e+00 -4.2083473e-03 
2.9044419e-15 0.0000000e+00 -4.4142571e-03 
3.3756823e-08 0.0000000e+00 -4.2083473e-03 
6.7513646e-08 0.0000000e+00 -3.6192262e-03 
1.0127047e-07 0.0000000e+00 -2.7327179e-03 
1.3502729e-07 0.0000000e+00 -1.6918629e-03 
1.6878411e-07 0.0000000e+00 -6.9691788e-04 
4.1142425e-08 0.0000000e+00 -5.6098308e-04 
3.2913942e-08 0.0000000e+00 -1.4410573e-03 
2.4685457e-08 0.0000000e+00 -2.3925682e-03 
1.6456973e-08 0.0000000e+00 -3.2152594e-03 
8.2284890e-09 0.0000000e+00 -3.7660901e-03 
4.5917173e-15 0.0000000e+00 -3.9592362e-03 
-8.2284801e-09 0.0000000e+00 -3.7660901e-03 
-1.6456964e-08 0.0000000e+00 -3.2152594e-03 
-2.4685448e-08 0.0000000e+00 -2.3925682e-03 
-3.2913931e-08 0.0000000e+00 -1.4410573e-03 
-4.1142417e-08 0.0000000e+00 -5.6098308e-04 
-1.6442661e-08 0.0000000e+00 -5.9171132e-04 
-1.3154128e-08 0.0000000e+00 -1.4940057e-03 
-9.8655937e-09 0.0000000e+00 -2.4627990e-03 
-6.5770607e-09 0.0000000e+00 -3.2978347e-03 
-3.2885275e-09 0.0000000e+00 -3.8560722e-03 
5.8105173e-15 0.0000000e+00 -4.0516872e-03 
3.2885392e-09 0.0000000e+00 -3.8560722e-03 
6.5770722e-09 0.0000000e+00 -3.2978347e-03 
9.8656061e-09 0.0000000e+00 -2.4627990e-03 
1.3154139e-08 0.0000000e+00 -1.4940057e-03 
1.6442673e-08 0.0000000e+00 -5.9171132e-04 
3.2903070e-08 0.0000000e+00 -6.1248761e-04 
2.6322457e-08 0.0000000e+00 -1.5295899e-03 
1.9741844e-08 0.0000000e+00 -2.5099004e-03 
1.3161232e-08 0.0000000e+00 -3.3531627e-03 
6.5806196e-09 0.0000000e+00 -3.9163362e-03 
6.9583392e-15 0.0000000e+00 -4.1135969e-03 
-6.5806054e-09 0.0000000e+00 -3.9163362e-03 
-1.3161218e-08 0.0000000e+00 -3.3531627e-03 
-1.9741830e-08 0.0000000e+00 -2.5099004e-03 
-2.6322443e-08 0.0000000e+00 -1.5295899e-03 
-3.2903056e-08 0.0000000e+00 -6.1248761e-04 
-1.3171186e-07 0.0000000e+00 -5.0561229e-04 
-1.0536949e-07 0.0000000e+00 -1.3338106e-03 
-7.9027110e-08 0.0000000e+00 -2.2449736e-03 
-5.2684740e-08 0.0000000e+00 -3.0388448e-03 
-2.6342365e-08 0.0000000e+00 -3.5723834e-03 
8.1181730e-15 0.0000000e+00 -3.7597658e-03 
2.6342382e-08 0.0000000e+00 -3.5723834e-03 
5.2684754e-08 0.0000000e+00 -3.0388448e-03 
7.9027132e-08 0.0000000e+00 -2.2449736e-03 
1.0536950e-07 0.0000000e+00 -1.3338106e-03 
1.3171187e-07 0.0000000e+00 -5.0561229e-04 
3.1618927e-07 0.0000000e+00 -9.7759755e-04 
2.5295142e-07 0.0000000e+00 -2.1912353e-03 
1.8971356e-07 0.0000000e+00 -3.4021845e-03 
1.2647571e-07 0.0000000e+00 -4.4101886e-03 
6.3237863e-08 0.0000000e+00 -5.0722072e-03 
8.6394532e-15 0.0000000e+00 -5.3024162e-03 
-6.3237842e-08 0.0000000e+00 -5.0722072e-03 
-1.2647570e-07 0.0000000e+00 -4.4101886e-03 
-1.8971355e-07 0.0000000e+00 -3.4021845e-03 
-2.5295139e-07 0.0000000e+00 -2.1912353e-03 
-3.1618924e-07 0.0000000e+00 -9.7759755e-04 
ROTATION 3 212  float
0.0000000e+00 -4.3984415e-04 0.0000000e+00 
0.0000000e+00 -4.3068212e-04 0.0000000e+00 
0.0000000e+00 -4.0319609e-04 0.0000000e+00 
0.0000000e+00 -3.5738602e-04 0.0000000e+00 
0.0000000e+00 -2.9325194e-04 0.0000000e+00 
0.0000000e+00 -2.1079382e-04 0.0000000e+00 
0.0000000e+00 -1.1001167e-04 0.0000000e+00 
0.0000000e+00 9.0944995e-06 0.0000000e+00 
0.0000000e+00 1.4652469e-04 0.0000000e+00 
0.0000000e+00 3.0227893e-04 0.0000000e+00 
0.0000000e+00 4.7635718e-04 0.0000000e+00 
0.0000000e+00 6.6875946e-04 0.0000000e+00 
0.0000000e+00 8.7948574e-04 0.0000000e+00 
0.0000000e+00 5.2109861e-04 0.0000000e+00 
0.0000000e+00 2.2323150e-04 0.0000000e+00 
0.0000000e+00 -1.4115545e-05 0.0000000e+00 
0.0000000e+00 -1.9094253e-04 0.0000000e+00 
0.0000000e+00 -3.0724946e-04 0.0000000e+00 
0.0000000e+00 -3.6303635e-04 0.0000000e+00 
0.0000000e+00 -3.5830316e-04 0.0000000e+00 
0.0000000e+00 -2.9304996e-04 0.0000000e+00 
0.0000000e+00 -1.6727667e-04 0.0000000e+00 
0.0000000e+00 1.9016657e-05 0.0000000e+00 
0.0000000e+00 2.6583005e-04 0.0000000e+00 
0.0000000e+00 5.7316350e-04 0.0000000e+00 
0.0000000e+00 3.0181182e-04 0.0000000e+00 
0.0000000e+00 8.0694619e-05 0.0000000e+00 
0.0000000e+00 -9.0188136e-05 0.0000000e+00 
0.0000000e+00 -2.1083644e-04 0.0000000e+00 
0.0000000e+00 -2.8125031e-04 0.0000000e+00 
0.0000000e+00 -3.0142971e-04 0.0000000e+00 
0.0000000e+00 -2.7137468e-04 0.0000000e+00 
0.0000000e+00 -1.9108520e-04 0.0000000e+00 
0.0000000e+00 -6.0561277e-05 0.0000000e+00 
0.0000000e+00 1.2019710e-04 0.0000000e+00 
0.0000000e+00 3.5118993e-04 0.0000000e+00 
0.0000000e+00 6.3241721e-04 0.0000000e+00 
0.0000000e+00 3.3680972e-04 0.0000000e+00 
0.0000000e+00 9.5547359e-05 0.0000000e+00 
0.0000000e+00 -9.1369890e-05 0.0000000e+00 
0.0000000e+00 -2.2394203e-04 0.0000000e+00 
0.0000000e+00 -3.0216904e-04 0.0000000e+00 
0.0000000e+00 -3.2605094e-04 0.0000000e+00 
0.0000000e+00 -2.9558773e-04 0.0000000e+00 
0.0000000e+00 -2.1077941e-04 0.0000000e+00 
0.0000000e+00 -7.1625975e-05 0.0000000e+00 
0.0000000e+00 1.2187257e-04 0.0000000e+00 
0.0000000e+00 3.6971623e-04 0.0000000e+00 
0.0000000e+00 6.7190500e-04 0.0000000e+00 
0.0000000e+00 3.9849215e-04 0.0000000e+00 
0.0000000e+00 1.7119864e-04 0.0000000e+00 
0.0000000e+00 -9.9755280e-06 0.0000000e+00 
0.0000000e+00 -1.4503035e-04 0.0000000e+00 
0.0000000e+00 -2.3396582e-04 0.0000000e+00 
0.0000000e+00 -2.7678194e-04 0.0000000e+00 
0.0000000e+00 -2.7347871e-04 0.0000000e+00 
0.0000000e+00 -2.2405613e-04 0.0000000e+00 
0.0000000e+00 -1.2851421e-04 0.0000000e+00 
0.0000000e+00 1.3147063e-05 0.0000000e+00 
0.0000000e+00 2.0092769e-04 0.0000000e+00 
0.0000000e+00 4.3482767e-04 0.0000000e+00 
0.0000000e+00 8.5720640e-05 0.0000000e+00 
0.0000000e+00 -1.8433906e-04 0.0000000e+00 
0.0000000e+00 -3.7535146e-04 0.0000000e+00 
0.0000000e+00 -4.8731655e-04 0.0000000e+00 
0.0000000e+00 -5.2023429e-04 0.0000000e+00 
0.0000000e+00 -4.7410475e-04 0.0000000e+00 
0.0000000e+00 -3.4892786e-04 0.0000000e+00 
0.0000000e+00 -1.4470368e-04 0.0000000e+00 
0.0000000e+00 1.3856783e-04 0.0000000e+00 
0.0000000e+00 5.0088664e-04 0.0000000e+00 
0.0000000e+00 9.4225281e-04 0.0000000e+00 
0.0000000e+00 1.4626662e-03 0.0000000e+00 
0.0000000e+00 4.3984415e-04 0.0000000e+00 
0.0000000e+00 4.3068212e-04 0.0000000e+00 
0.0000000e+00 4.0319609e-04 0.0000000e+00 
0.0000000e+00 3.5738602e-04 0.0000000e+00 
0.0000000e+00 2.9325194e-04 0.0000000e+00 
0.0000000e+00 2.1079382e-04 0.0000000e+00 
0.0000000e+00 1.1001167e-04 0.0000000e+00 
0.0000000e+00 -9.0944995e-06 0.0000000e+00 
0.0000000e+00 -1.4652469e-04 0.0000000e+00 
0.0000000e+00 -3.0227893e-04 0.0000000e+00 
0.0000000e+00 -4.7635718e-04 0.0000000e+00 
0.0000000e+00 -6.6875946e-04 0.0000000e+00 
0.0000000e+00 -8.7948574e-04 0.0000000e+00 
0.0000000e+00 -5.2109861e-04 0.0000000e+00 
0.0000000e+00 -2.2323150e-04 0.0000000e+00 
0.0000000e+00 1.4115545e-05 0.0000000e+00 
0.0000000e+00 1.9094253e-04 0.0000000e+00 
0.0000000e+00 3.0724946e-04 0.0000000e+00 
0.0000000e+00 3.6303635e-04 0.0000000e+00 
0.0000000e+00 3.5830316e-04 0.0000000e+00 
0.0000000e+00 2.9304996e-04 0.0000000e+00 
0.0000000e+00 1.6727667e-04 0.0000000e+00 
0.0000000e+00 -1.9016657e-05 0.0000000e+00 
0.0000000e+00 -2.6583005e-04 0.0000000e+00 
0.0000000e+00 -5.7316350e-04 0.0000000e+00 
0.0000000e+00 -3.0181182e-04 0.0000000e+00 
0.0000000e+00 -8.0694619e-05 0.0000000e+00 
0.0000000e+00 9.0188136e-05 0.0000000e+00 
0.0000000e+00 2.1083644e-04 0.0000000e+00 
0.0000000e+00 2.8125031e-04 0.0000000e+00 
0.0000000e+00 3.0142971e-04 0.0000000e+00 
0.0000000e+00 2.7137468e-04 0.0000000e+00 
0.0000000e+00 1.9108520e-04 0.0000000e+00 
0.0000000e+00 6.0561277e-05 0.0000000e+00 
0.0000000e+00 -1.2019710e-04 0.0000000e+00 
0.0000000e+00 -3.5118993e-04 0.0000000e+00 
0.0000000e+00 -6.3241721e-04 0.0000000e+00 
0.0000000e+00 -3.3680972e-04 0.0000000e+00 
0.0000000e+00 -9.5547359e-05 0.0000000e+00 
0.0000000e+00 9.1369890e-05 0.0000000e+00 
0.0000000e+00 2.2394203e-04 0.0000000e+00 
0.0000000e+00 3.0216904e-04 0.0000000e+00 
0.0000000e+00 3.2605094e-04 0.0000000e+00 
0.0000000e+00 2.9558773e-04 0.0000000e+00 
0.0000000e+00 2.1077941e-04 0.0000000e+00 
0.0000000e+00 7.1625975e-05 0.0000000e+00 
0.0000000e+00 -1.2187257e-04 0.0000000e+00 
0.0000000e+00 -3.6971623e-04 0.0000000e+00 
0.0000000e+00 -6.7190500e-04 0.0000000e+00 
0.0000000e+00 -3.9849215e-04 0.0000000e+00 
0.0000000e+00 -1.7119864e-04 0.0000000e+00 
0.0000000e+00 9.9755280e-06 0.0000000e+00 
0.0000000e+00 1.4503035e-04 0.0000000e+00 
0.0000000e+00 2.3396582e-04 0.0000000e+00 
0.0000000e+00 2.7678194e-04 0.0000000e+00 
0.0000000e+00 2.7347871e-04 0.0000000e+00 
0.0000000e+00 2.2405613e-04 0.0000000e+00 
0.0000000e+00 1.2851421e-04 0.0000000e+00 
0.0000000e+00 -1.3147063e-05 0.0000000e+00 
0.0000000e+00 -2.0092769e-04 0.0000000e+00 
0.0000000e+00 -4.3482767e-04 0.0000000e+00 
0.0000000e+00 -8.5720640e-05 0.0000000e+00 
0.0000000e+00 1.8433906e-04 0.0000000e+00 
0.0000000e+00 3.7535146e-04 0.0000000e+00 
0.0000000e+00 4.8731655e-04 0.0000000e+00 
0.0000000e+00 5.2023429e-04 0.0000000e+00 
0.0000000e+00 4.7410475e-04 0.0000000e+00 
0.0000000e+00 3.4892786e-04 0.0000000e+00 
0.0000000e+00 1.4470368e-04 0.0000000e+00 
0.0000000e+00 -1.3856783e-04 0.0000000e+00 
0.0000000e+00 -5.0088664e-04 0.0000000e+00 
0.0000000e+00 -9.4225281e-04 0.0000000e+00 
0.0000000e+00 -1.4626662e-03 0.0000000e+00 
0.0000000e+00 1.7818678e-03 0.0000000e+00 
0.0000000e+00 2.1120883e-03 0.0000000e+00 
0.0000000e+00 1.9845793e-03 0.0000000e+00 
0.0000000e+00 1.5137735e-03 0.0000000e+00 
0.0000000e+00 8.1410288e-04 0.0000000e+00 
0.0000000e+00 -2.5162686e-16 0.0000000e+00 
0.0000000e+00 -8.1410288e-04 0.0000000e+00 
0.0000000e+00 -1.5137735e-03 0.0000000e+00 
0.0000000e+00 -1.9845793e-03 0.0000000e+00 
0.0000000e+00 -2.1120883e-03 0.0000000e+00 
0.0000000e+00 -1.7818678e-03 0.0000000e+00 
0.0000000e+00 1.5265993e-03 0.0000000e+00 
0.0000000e+00 1.9078734e-03 0.0000000e+00 
0.0000000e+00 1.8314183e-03 0.0000000e+00 
0.0000000e+00 1.4116660e-03 0.0000000e+00 
0.0000000e+00 7.6304917e-04 0.0000000e+00 
0.0000000e+00 -2.0312049e-16 0.0000000e+00 
0.0000000e+00 -7.6304917e-04 0.0000000e+00 
0.0000000e+00 -1.4116660e-03 0.0000000e+00 
0.0000000e+00 -1.8314183e-03 0.0000000e+00 
0.0000000e+00 -1.9078734e-03 0.0000000e+00 
0.0000000e+00 -1.5265993e-03 0.0000000e+00 
0.0000000e+00 1.5759773e-03 0.0000000e+00 
0.0000000e+00 1.9473758e-03 0.0000000e+00 
0.0000000e+00 1.8610450e-03 0.0000000e+00 
0.0000000e+00 1.4314173e-03 0.0000000e+00 
0.0000000e+00 7.7292480e-04 0.0000000e+00 
0.0000000e+00 -1.9099389e-16 0.0000000e+00 
0.0000000e+00 -7.7292480e-04 0.0000000e+00 
0.0000000e+00 -1.4314173e-03 0.0000000e+00 
0.0000000e+00 -1.8610450e-03 0.0000000e+00 
0.0000000e+00 -1.9473758e-03 0.0000000e+00 
0.0000000e+00 -1.5759773e-03 0.0000000e+00 
0.0000000e+00 1.6088838e-03 0.0000000e+00 
0.0000000e+00 1.9737012e-03 0.0000000e+00 
0.0000000e+00 1.8807889e-03 0.0000000e+00 
0.0000000e+00 1.4445799e-03 0.0000000e+00 
0.0000000e+00 7.7950611e-04 0.0000000e+00 
0.0000000e+00 -1.3036091e-16 0.0000000e+00 
0.0000000e+00 -7.7950611e-04 0.0000000e+00 
0.0000000e+00 -1.4445799e-03 0.0000000e+00 
0.0000000e+00 -1.8807889e-03 0.0000000e+00 
0.0000000e+00 -1.9737012e-03 0.0000000e+00 
0.0000000e+00 -1.6088838e-03 0.0000000e+00 
0.0000000e+00 1.4113194e-03 0.0000000e+00 
0.0000000e+00 1.8156496e-03 0.0000000e+00 
0.0000000e+00 1.7622503e-03 0.0000000e+00 
0.0000000e+00 1.3655541e-03 0.0000000e+00 
0.0000000e+00 7.3999318e-04 0.0000000e+00 
0.0000000e+00 -1.5764575e-16 0.0000000e+00 
0.0000000e+00 -7.3999318e-04 0.0000000e+00 
0.0000000e+00 -1.3655541e-03 0.0000000e+00 
0.0000000e+00 -1.7622503e-03 0.0000000e+00 
0.0000000e+00 -1.8156496e-03 0.0000000e+00 
0.0000000e+00 -1.4113194e-03 0.0000000e+00 
0.0000000e+00 2.2678515e-03 0.0000000e+00 
0.0000000e+00 2.5008752e-03 0.0000000e+00 
0.0000000e+00 2.2761696e-03 0.0000000e+00 