# vtk DataFile Version 4.0
vtk output
ASCII
DATASET UNSTRUCTURED_GRID
POINTS 60 float
0.0000000e+00 0.0000000e+00 0.0000000e+00 
0.0000000e+00 2.0000000e-01 0.0000000e+00 
0.0000000e+00 4.0000001e-01 0.0000000e+00 
0.0000000e+00 6.0000002e-01 0.0000000e+00 
0.0000000e+00 8.0000001e-01 0.0000000e+00 
0.0000000e+00 1.0000000e+00 0.0000000e+00 
0.0000000e+00 1.2000000e+00 0.0000000e+00 
0.0000000e+00 1.4000000e+00 0.0000000e+00 
0.0000000e+00 1.6000000e+00 0.0000000e+00 
0.0000000e+00 1.8000000e+00 0.0000000e+00 
0.0000000e+00 2.0000000e+00 0.0000000e+00 
0.0000000e+00 2.2000000e+00 0.0000000e+00 
0.0000000e+00 2.4000001e+00 0.0000000e+00 
0.0000000e+00 2.5999999e+00 0.0000000e+00 
0.0000000e+00 2.8000000e+00 0.0000000e+00 
0.0000000e+00 3.0000000e+00 0.0000000e+00 
0.0000000e+00 3.2000000e+00 0.0000000e+00 
0.0000000e+00 3.4000001e+00 0.0000000e+00 
0.0000000e+00 3.5999999e+00 0.0000000e+00 
0.0000000e+00 3.8000000e+00 0.0000000e+00 
0.0000000e+00 4.0000000e+00 0.0000000e+00 
2.0000000e-01 4.0000000e+00 0.0000000e+00 
4.0000001e-01 4.0000000e+00 0.0000000e+00 
6.0000002e-01 4.0000000e+00 0.0000000e+00 
8.0000001e-01 4.0000000e+00 0.0000000e+00 
1.0000000e+00 4.0000000e+00 0.0000000e+00 
1.2000000e+00 4.0000000e+00 0.0000000e+00 
1.4000000e+00 4.0000000e+00 0.0000000e+00 
1.6000000e+00 4.0000000e+00 0.0000000e+00 
1.8000000e+00 4.0000000e+00 0.0000000e+00 
2.0000000e+00 4.0000000e+00 0.0000000e+00 
2.0000000e+00 3.8000000e+00 0.0000000e+00 
2.0000000e+00 3.5999999e+00 0.0000000e+00 
2.0000000e+00 3.4000001e+00 0.0000000e+00 
2.0000000e+00 3.2000000e+00 0.0000000e+00 
2.0000000e+00 3.0000000e+00 0.0000000e+00 
2.0000000e+00 2.8000000e+00 0.0000000e+00 
2.0000000e+00 2.5999999e+00 0.0000000e+00 
2.0000000e+00 2.4000001e+00 0.0000000e+00 
2.0000000e+00 2.2000000e+00 0.0000000e+00 
2.0000000e+00 2.0000000e+00 0.0000000e+00 
2.0000000e+00 1.8000000e+00 0.0000000e+00 
2.0000000e+00 1.6000000e+00 0.0000000e+00 
2.0000000e+00 1.4000000e+00 0.0000000e+00 
2.0000000e+00 1.2000000e+00 0.0000000e+00 
2.0000000e+00 1.0000000e+00 0.0000000e+00 
2.0000000e+00 8.0000001e-01 0.0000000e+00 
2.0000000e+00 6.0000002e-01 0.0000000e+00 
2.0000000e+00 4.0000001e-01 0.0000000e+00 
2.0000000e+00 2.0000000e-01 0.0000000e+00 
2.0000000e+00 0.0000000e+00 0.0000000e+00 
2.0000000e-01 2.0000000e+00 0.0000000e+00 
4.0000001e-01 2.0000000e+00 0.0000000e+00 
6.0000002e-01 2.0000000e+00 0.0000000e+00 
8.0000001e-01 2.0000000e+00 0.0000000e+00 
1.0000000e+00 2.0000000e+00 0.0000000e+00 
1.2000000e+00 2.0000000e+00 0.0000000e+00 
1.4000000e+00 2.0000000e+00 0.0000000e+00 
1.6000000e+00 2.0000000e+00 0.0000000e+00 
1.8000000e+00 2.0000000e+00 0.0000000e+00 

CELLS 60 180
2 0 1
2 1 2
2 2 3
2 3 4
2 4 5
2 5 6
2 6 7
2 7 8
2 8 9
2 9 10
2 10 11
2 11 12
2 12 13
2 13 14
2 14 15
2 15 16
2 16 17
2 17 18
2 18 19
2 19 20
2 20 21
2 21 22
2 22 23
2 23 24
2 24 25
2 25 26
2 26 27
2 27 28
2 28 29
2 29 30
2 30 31
2 31 32
2 32 33
2 33 34
2 34 35
2 35 36
2 36 37
2 37 38
2 38 39
2 39 40
2 40 41
2 41 42
2 42 43
2 43 44
2 44 45
2 45 46
2 46 47
2 47 48
2 48 49
2 49 50
2 10 51
2 51 52
2 52 53
2 53 54
2 54 55
2 55 56
2 56 57
2 57 58
2 58 59
2 59 40

CELL_TYPES 60
3
3
3
3
3
3
3
3
3
3
3
3
3
3
3
3
3
3
3
3
3
3
3
3
3
3
3
3
3
3
3
3
3
3
3
3
3
3
3
3
3
3
3
3
3
3
3
3
3
3
3
3
3
3
3
3
3
3
3
3
POINT_DATA 60
FIELD FieldData 6
DISPLACEMENT 3 60  float
0.0000000e+00 0.0000000e+00 0.0000000e+00 
-8.1559929e-06 -6.6368011e-06 0.0000000e+00 
-2.9009450e-05 -1.3273602e-05 0.0000000e+00 
-5.7138597e-05 -1.9910403e-05 0.0000000e+00 
-8.7121647e-05 -2.6547204e-05 0.0000000e+00 
-1.1353683e-04 -3.3184006e-05 0.0000000e+00 
-1.3096236e-04 -3.9820807e-05 0.0000000e+00 
-1.3397647e-04 -4.6457608e-05 0.0000000e+00 
-1.1715736e-04 -5.3094409e-05 0.0000000e+00 
-7.5083270e-05 -5.9731210e-05 0.0000000e+00 
-2.3324121e-06 -6.6368011e-05 0.0000000e+00 
5.4434571e-05 -6.9686408e-05 0.0000000e+00 
5.5697328e-05 -7.3004812e-05 0.0000000e+00 
1.7588074e-05 -7.6323209e-05 0.0000000e+00 
-4.3760974e-05 -7.9641613e-05 0.0000000e+00 
-1.1221760e-04 -8.2960010e-05 0.0000000e+00 
-1.7164959e-04 -8.6278415e-05 0.0000000e+00 
-2.0592473e-04 -8.9596811e-05 0.0000000e+00 
-1.9891080e-04 -9.2915216e-05 0.0000000e+00 
-1.3447560e-04 -9.6233613e-05 0.0000000e+00 
3.5131131e-06 -9.9552017e-05 0.0000000e+00 
2.8104905e-06 -3.1310917e-04 0.0000000e+00 
2.1078679e-06 -5.5032026e-04 0.0000000e+00 
1.4052453e-06 -7.5785205e-04 0.0000000e+00 
7.0262263e-07 -8.9760916e-04 0.0000000e+00 
-7.6338666e-17 -9.4673457e-04 0.0000000e+00 
-7.0262263e-07 -8.9760916e-04 0.0000000e+00 
-1.4052453e-06 -7.5785205e-04 0.0000000e+00 
-2.1078679e-06 -5.5032026e-04 0.0000000e+00 
-2.8104905e-06 -3.1310917e-04 0.0000000e+00 
-3.5131131e-06 -9.9552017e-05 0.0000000e+00 
1.3447560e-04 -9.6233613e-05 0.0000000e+00 
1.9891080e-04 -9.2915216e-05 0.0000000e+00 
2.0592473e-04 -8.9596811e-05 0.0000000e+00 
1.7164959e-04 -8.6278415e-05 0.0000000e+00 
1.1221760e-04 -8.2960010e-05 0.0000000e+00 
4.3760974e-05 -7.9641613e-05 0.0000000e+00 
-1.7588074e-05 -7.6323209e-05 0.0000000e+00 
-5.5697328e-05 -7.3004812e-05 0.0000000e+00 
-5.4434571e-05 -6.9686408e-05 0.0000000e+00 
2.3324121e-06 -6.6368011e-05 0.0000000e+00 
7.5083270e-05 -5.9731210e-05 0.0000000e+00 
1.1715736e-04 -5.3094409e-05 0.0000000e+00 
1.3397647e-04 -4.6457608e-05 0.0000000e+00 
1.3096236e-04 -3.9820807e-05 0.0000000e+00 
1.1353683e-04 -3.3184006e-05 0.0000000e+00 
8.7121647e-05 -2.6547204e-05 0.0000000e+00 
5.7138597e-05 -1.9910403e-05 0.0000000e+00 
2.9009450e-05 -1.3273602e-05 0.0000000e+00 
8.1559929e-06 -6.6368011e-06 0.0000000e+00 
0.0000000e+00 0.0000000e+00 0.0000000e+00 
-1.8659297e-06 -1.9870343e-04 0.0000000e+00 
-1.3994472e-06 -3.7274210e-04 0.0000000e+00 
-9.3296484e-07 -5.3515064e-04 0.0000000e+00 
-4.6648242e-07 -6.4783392e-04 0.0000000e+00 
-8.2921012e-17 -6.8793463e-04 0.0000000e+00 
4.6648242e-07 -6.4783392e-04 0.0000000e+00 
9.3296484e-07 -5.3515064e-04 0.0000000e+00 
1.3994472e-06 -3.7274210e-04 0.0000000e+00 
1.8659297e-06 -1.9870343e-04 0.0000000e+00 
REACTION 3 60  float
7.1125732e+02 2.0000191e+04 0.0000000e+00 
-6.0594201e-01 -2.7301207e+00 0.0000000e+00 
-3.4700602e-01 -2.6592674e+00 0.0000000e+00 
-8.8387728e-02 -8.0512863e-01 0.0000000e+00 
1.7011595e-01 1.5034063e+00 0.0000000e+00 
4.2882812e-01 2.9374492e+00 0.0000000e+00 
6.8784016e-01 2.1681108e+00 0.0000000e+00 
9.4665980e-01 -2.1334975e+00 0.0000000e+00 
1.2038585e+00 -1.1296264e+01 0.0000000e+00 
1.4567204e+00 -2.6649075e+01 0.0000000e+00 
-1.2807126e+02 1.5223562e+01 0.0000000e+00 
-1.3200685e+00 2.4854246e+01 0.0000000e+00 
-9.3847775e-01 -1.0513062e+01 0.0000000e+00 
-5.5054146e-01 -1.7168245e+01 0.0000000e+00 
-1.6750158e-01 -6.8757586e+00 0.0000000e+00 
2.1275936e-01 8.5999432e+00 0.0000000e+00 
5.9644574e-01 1.7494411e+01 0.0000000e+00 
9.8457372e-01 8.0431929e+00 0.0000000e+00 
1.3636957e+00 -3.1518169e+01 0.0000000e+00 
1.6966286e+00 -1.1295407e+02 0.0000000e+00 
-3.3725931e+02 1.4394577e+02 0.0000000e+00 
-8.1636635e+01 -4.7499575e-02 0.0000000e+00 
9.6329826e+01 3.0416258e-02 0.0000000e+00 
1.7423427e+02 1.7759341e-01 0.0000000e+00 
1.2711895e+02 3.7777776e-01 0.0000000e+00 
-0.0000000e+00 4.7240657e-01 0.0000000e+00 
-1.2711895e+02 3.7765265e-01 0.0000000e+00 
-1.7423427e+02 1.7771854e-01 0.0000000e+00 
-9.6329826e+01 3.0489977e-02 0.0000000e+00 
8.1636635e+01 -4.7573294e-02 0.0000000e+00 
3.3725931e+02 1.4394577e+02 0.0000000e+00 
-1.6966292e+00 -1.1295407e+02 0.0000000e+00 
-1.3636956e+00 -3.1518169e+01 0.0000000e+00 
-9.8457342e-01 8.0431929e+00 0.0000000e+00 
-5.9644580e-01 1.7494411e+01 0.0000000e+00 
-2.1275936e-01 8.5999432e+00 0.0000000e+00 
1.6750138e-01 -6.8757586e+00 0.0000000e+00 
5.5054146e-01 -1.7168245e+01 0.0000000e+00 
9.3847811e-01 -1.0513062e+01 0.0000000e+00 
1.3200678e+00 2.4854246e+01 0.0000000e+00 
1.2807126e+02 1.5223562e+01 0.0000000e+00 
-1.4567208e+00 -2.6649075e+01 0.0000000e+00 
-1.2038585e+00 -1.1296264e+01 0.0000000e+00 
-9.4665945e-01 -2.1334975e+00 0.0000000e+00 
-6.8784046e-01 2.1681108e+00 0.0000000e+00 
-4.2882839e-01 2.9374492e+00 0.0000000e+00 
-1.7011566e-01 1.5034063e+00 0.0000000e+00 
8.8388428e-02 -8.0512863e-01 0.0000000e+00 
3.4700489e-01 -2.6592674e+00 0.0000000e+00 
6.0594243e-01 -2.7301207e+00 0.0000000e+00 
-7.1125732e+02 2.0000191e+04 0.0000000e+00 
-9.6120132e+01 2.2337940e-01 0.0000000e+00 
2.7447542e+01 -4.7795858e-02 0.0000000e+00 
1.0068365e+02 -2.2094898e-01 0.0000000e+00 
8.2054733e+01 -2.6341355e-01 0.0000000e+00 
-0.0000000e+00 -2.6018968e-01 0.0000000e+00 
-8.2054733e+01 -2.6341355e-01 0.0000000e+00 
-1.0068365e+02 -2.2094898e-01 0.0000000e+00 
-2.7447542e+01 -4.7795858e-02 0.0000000e+00 
9.6120132e+01 2.2337940e-01 0.0000000e+00 
ROTATION 3 60  float
0.0000000e+00 0.0000000e+00 0.0000000e+00 
0.0000000e+00 0.0000000e+00 7.7041776e-05 
0.0000000e+00 0.0000000e+00 1.2697466e-04 
0.0000000e+00 0.0000000e+00 1.4979864e-04 
0.0000000e+00 0.0000000e+00 1.4551374e-04 
0.0000000e+00 0.0000000e+00 1.1411993e-04 
0.0000000e+00 0.0000000e+00 5.5617238e-05 
0.0000000e+00 0.0000000e+00 -2.9994355e-05 
0.0000000e+00 0.0000000e+00 -1.4271484e-04 
0.0000000e+00 0.0000000e+00 -2.8254424e-04 
0.0000000e+00 0.0000000e+00 -4.4948250e-04 
0.0000000e+00 0.0000000e+00 -1.3163083e-04 
0.0000000e+00 0.0000000e+00 1.0555975e-04 
0.0000000e+00 0.0000000e+00 2.6208928e-04 
0.0000000e+00 0.0000000e+00 3.3795770e-04 
0.0000000e+00 0.0000000e+00 3.3316505e-04 
0.0000000e+00 0.0000000e+00 2.4771134e-04 
0.0000000e+00 0.0000000e+00 8.1596540e-05 
0.0000000e+00 0.0000000e+00 -1.6517933e-04 
0.0000000e+00 0.0000000e+00 -4.9261627e-04 
0.0000000e+00 0.0000000e+00 -9.0071431e-04 
0.0000000e+00 0.0000000e+00 -1.1777143e-03 
0.0000000e+00 0.0000000e+00 -1.1499524e-03 
0.0000000e+00 0.0000000e+00 -8.9361909e-04 
0.0000000e+00 0.0000000e+00 -4.8490477e-04 
0.0000000e+00 0.0000000e+00 -1.4782899e-17 
0.0000000e+00 0.0000000e+00 4.8490477e-04 
0.0000000e+00 0.0000000e+00 8.9361909e-04 
0.0000000e+00 0.0000000e+00 1.1499524e-03 
0.0000000e+00 0.0000000e+00 1.1777143e-03 
0.0000000e+00 0.0000000e+00 9.0071431e-04 
0.0000000e+00 0.0000000e+00 4.9261627e-04 
0.0000000e+00 0.0000000e+00 1.6517933e-04 
0.0000000e+00 0.0000000e+00 -8.1596540e-05 
0.0000000e+00 0.0000000e+00 -2.4771134e-04 
0.0000000e+00 0.0000000e+00 -3.3316505e-04 
0.0000000e+00 0.0000000e+00 -3.3795770e-04 
0.0000000e+00 0.0000000e+00 -2.6208928e-04 
0.0000000e+00 0.0000000e+00 -1.0555975e-04 
0.0000000e+00 0.0000000e+00 1.3163083e-04 
0.0000000e+00 0.0000000e+00 4.4948250e-04 
0.0000000e+00 0.0000000e+00 2.8254424e-04 
0.0000000e+00 0.0000000e+00 1.4271484e-04 
0.0000000e+00 0.0000000e+00 2.9994355e-05 
0.0000000e+00 0.0000000e+00 -5.5617238e-05 
0.0000000e+00 0.0000000e+00 -1.1411993e-04 
0.0000000e+00 0.0000000e+00 -1.4551374e-04 
0.0000000e+00 0.0000000e+00 -1.4979864e-04 
0.0000000e+00 0.0000000e+00 -1.2697466e-04 
0.0000000e+00 0.0000000e+00 -7.7041776e-05 
0.0000000e+00 0.0000000e+00 0.0000000e+00 
0.0000000e+00 0.0000000e+00 -8.1672886e-04 
0.0000000e+00 0.0000000e+00 -8.7921333e-04 
0.0000000e+00 0.0000000e+00 -7.1312633e-04 
0.0000000e+00 0.0000000e+00 -3.9465842e-04 
0.0000000e+00 0.0000000e+00 -1.1826319e-17 
0.0000000e+00 0.0000000e+00 3.9465842e-04 
0.0000000e+00 0.0000000e+00 7.1312633e-04 
0.0000000e+00 0.0000000e+00 8.7921333e-04 
0.0000000e+00 0.0000000e+00 8.1672886e-04 
REACTION_MOMENT 3 60  float
0.0000000e+00 0.0000000e+00 -4.7566202e+02 
0.0000000e+00 0.0000000e+00 -1.5884261e-01 
0.0000000e+00 0.0000000e+00 -2.6320741e-01 
0.0000000e+00 0.0000000e+00 -3.1090081e-01 
0.0000000e+00 0.0000000e+00 -3.0194762e-01 
0.0000000e+00 0.0000000e+00 -2.3634255e-01 
0.0000000e+00 0.0000000e+00 -1.1405599e-01 
0.0000000e+00 0.0000000e+00 6.4922228e-02 
0.0000000e+00 0.0000000e+00 3.0050167e-01 
0.0000000e+00 0.0000000e+00 5.9237236e-01 
0.0000000e+00 0.0000000e+00 5.2739930e-01 
0.0000000e+00 0.0000000e+00 1.4072144e-01 
0.0000000e+00 0.0000000e+00 -1.0698473e-01 
0.0000000e+00 0.0000000e+00 -2.7028948e-01 
0.0000000e+00 0.0000000e+00 -3.4922090e-01 
0.0000000e+00 0.0000000e+00 -3.4424067e-01 
0.0000000e+00 0.0000000e+00 -2.5531095e-01 
0.0000000e+00 0.0000000e+00 -8.1953391e-02 
0.0000000e+00 0.0000000e+00 1.7569998e-01 
0.0000000e+00 0.0000000e+00 5.1486397e-01 
0.0000000e+00 0.0000000e+00 4.9012771e-01 
0.0000000e+00 0.0000000e+00 2.2624917e-01 
0.0000000e+00 0.0000000e+00 2.2225097e-01 
0.0000000e+00 0.0000000e+00 1.8111368e-01 
0.0000000e+00 0.0000000e+00 1.0328611e-01 
0.0000000e+00 0.0000000e+00 -1.6279955e-10 
0.0000000e+00 0.0000000e+00 -1.0329862e-01 
0.0000000e+00 0.0000000e+00 -1.8112618e-01 
0.0000000e+00 0.0000000e+00 -2.2224359e-01 
0.0000000e+00 0.0000000e+00 -2.2624180e-01 
0.0000000e+00 0.0000000e+00 -4.9012768e-01 
0.0000000e+00 0.0000000e+00 -5.1486397e-01 
0.0000000e+00 0.0000000e+00 -1.7570002e-01 
0.0000000e+00 0.0000000e+00 8.1953391e-02 
0.0000000e+00 0.0000000e+00 2.5531095e-01 
0.0000000e+00 0.0000000e+00 3.4424070e-01 
0.0000000e+00 0.0000000e+00 3.4922090e-01 
0.0000000e+00 0.0000000e+00 2.7028945e-01 
0.0000000e+00 0.0000000e+00 1.0698474e-01 
0.0000000e+00 0.0000000e+00 -1.4072146e-01 
0.0000000e+00 0.0000000e+00 -5.2739930e-01 
0.0000000e+00 0.0000000e+00 -5.9237230e-01 
0.0000000e+00 0.0000000e+00 -3.0050170e-01 
0.0000000e+00 0.0000000e+00 -6.4922206e-02 
0.0000000e+00 0.0000000e+00 1.1405602e-01 
0.0000000e+00 0.0000000e+00 2.3634252e-01 
0.0000000e+00 0.0000000e+00 3.0194759e-01 
0.0000000e+00 0.0000000e+00 3.1090087e-01 
0.0000000e+00 0.0000000e+00 2.6320744e-01 
0.0000000e+00 0.0000000e+00 1.5884258e-01 
0.0000000e+00 0.0000000e+00 4.7566202e+02 
0.0000000e+00 0.0000000e+00 -1.2876911e-01 
0.0000000e+00 0.0000000e+00 -1.4106745e-01 
0.0000000e+00 0.0000000e+00 -1.1152169e-01 
0.0000000e+00 0.0000000e+00 -5.9320148e-02 
0.0000000e+00 0.0000000e+00 -1.1459633e-10 
0.0000000e+00 0.0000000e+00 5.9320148e-02 
0.0000000e+00 0.0000000e+00 1.1152169e-01 
0.0000000e+00 0.0000000e+00 1.4106745e-01 
0.0000000e+00 0.0000000e+00 1.2876911e-01 
FORCE 3 60  float
-2.0000162e+04 7.1207300e+02 0.0000000e+00 
-1.9998775e+04 7.1240479e+02 0.0000000e+00 
-1.9996045e+04 7.1292664e+02 0.0000000e+00 
-1.9994297e+04 7.1316510e+02 0.0000000e+00 
-1.9994648e+04 7.1312030e+02 0.0000000e+00 
-1.9996891e+04 7.1279230e+02 0.0000000e+00 
-1.9999486e+04 7.1218085e+02 0.0000000e+00 
-1.9999564e+04 7.1128595e+02 0.0000000e+00 
-1.9992930e+04 7.1010803e+02 0.0000000e+00 
-1.9974057e+04 7.0864874e+02 0.0000000e+00 
-9.4662041e+03 -2.0586157e+03 0.0000000e+00 
-9.9880205e+03 2.1166531e+03 0.0000000e+00 
-9.9946885e+03 2.1178911e+03 0.0000000e+00 
-9.9805166e+03 2.1187078e+03 0.0000000e+00 
-9.9683340e+03 2.1191025e+03 0.0000000e+00 
-9.9692061e+03 2.1190776e+03 0.0000000e+00 
-9.9824346e+03 2.1186328e+03 0.0000000e+00 
-9.9955547e+03 2.1177661e+03 0.0000000e+00 
-9.9843398e+03 2.1164783e+03 0.0000000e+00 
-9.9127969e+03 2.1147837e+03 0.0000000e+00 
-5.8152119e+03 -3.4436667e+03 0.0000000e+00 
-1.7336038e+03 -8.0011328e+03 0.0000000e+00 
-1.7431613e+03 -6.0011123e+03 0.0000000e+00 
-1.8815464e+03 -4.0009043e+03 0.0000000e+00 
-2.0346945e+03 -2.0005148e+03 0.0000000e+00 
-2.0991792e+03 5.6132876e-13 0.0000000e+00 
-2.0346945e+03 2.0005148e+03 0.0000000e+00 
-1.8815464e+03 4.0009043e+03 0.0000000e+00 
-1.7431613e+03 6.0011123e+03 0.0000000e+00 
-1.7336038e+03 8.0011328e+03 0.0000000e+00 
-5.8152119e+03 3.4436667e+03 0.0000000e+00 
-9.9127969e+03 -2.1147837e+03 0.0000000e+00 
-9.9843398e+03 -2.1164783e+03 0.0000000e+00 
-9.9955547e+03 -2.1177661e+03 0.0000000e+00 
-9.9824346e+03 -2.1186328e+03 0.0000000e+00 
-9.9692061e+03 -2.1190776e+03 0.0000000e+00 
-9.9683340e+03 -2.1191025e+03 0.0000000e+00 
-9.9805166e+03 -2.1187078e+03 0.0000000e+00 
-9.9946885e+03 -2.1178911e+03 0.0000000e+00 
-9.9880205e+03 -2.1166531e+03 0.0000000e+00 
-9.4662041e+03 2.0586157e+03 0.0000000e+00 
-1.9974057e+04 -7.0864874e+02 0.0000000e+00 
-1.9992930e+04 -7.1010803e+02 0.0000000e+00 
-1.9999564e+04 -7.1128595e+02 0.0000000e+00 
-1.9999486e+04 -7.1218085e+02 0.0000000e+00 
-1.9996891e+04 -7.1279230e+02 0.0000000e+00 
-1.9994648e+04 -7.1312030e+02 0.0000000e+00 
-1.9994297e+04 -7.1316510e+02 0.0000000e+00 
-1.9996045e+04 -7.1292664e+02 0.0000000e+00 
-1.9998775e+04 -7.1240479e+02 0.0000000e+00 
-2.0000162e+04 -7.1207300e+02 0.0000000e+00 
1.5858048e+03 -7.9993535e+03 0.0000000e+00 
1.6191936e+03 -5.9992930e+03 0.0000000e+00 
1.5529275e+03 -3.9994404e+03 0.0000000e+00 
1.4596284e+03 -1.9997018e+03 0.0000000e+00 
1.4178562e+03 2.2737368e-13 0.0000000e+00 
1.4596284e+03 1.9997018e+03 0.0000000e+00 
1.5529275e+03 3.9994404e+03 0.0000000e+00 
1.6191936e+03 5.9992930e+03 0.0000000e+00 
1.5858048e+03 7.9993535e+03 0.0000000e+00 
MOMENT 3 60  float
0.0000000e+00 0.0000000e+00 -4.1977792e+02 
0.0000000e+00 0.0000000e+00 -3.3330551e+02 
0.0000000e+00 0.0000000e+00 -1.9098508e+02 
0.0000000e+00 0.0000000e+00 -4.8664650e+01 
0.0000000e+00 0.0000000e+00 9.3655785e+01 
0.0000000e+00 0.0000000e+00 2.3597621e+02 
0.0000000e+00 0.0000000e+00 3.7829666e+02 
0.0000000e+00 0.0000000e+00 5.2061707e+02 
0.0000000e+00 0.0000000e+00 6.6293750e+02 
0.0000000e+00 0.0000000e+00 8.0525793e+02 
0.0000000e+00 0.0000000e+00 4.3303897e+02 
0.0000000e+00 0.0000000e+00 -1.4569795e+03 
0.0000000e+00 0.0000000e+00 -1.0335106e+03 
0.0000000e+00 0.0000000e+00 -6.1004187e+02 
0.0000000e+00 0.0000000e+00 -1.8657312e+02 
0.0000000e+00 0.0000000e+00 2.3689565e+02 
0.0000000e+00 0.0000000e+00 6.6036438e+02 
0.0000000e+00 0.0000000e+00 1.0838333e+03 
0.0000000e+00 0.0000000e+00 1.5073020e+03 
0.0000000e+00 0.0000000e+00 1.9307708e+03 
0.0000000e+00 0.0000000e+00 1.9179396e+03 
0.0000000e+00 0.0000000e+00 6.3273242e+02 
0.0000000e+00 0.0000000e+00 -7.6726575e+02 
0.0000000e+00 0.0000000e+00 -1.7672648e+03 
0.0000000e+00 0.0000000e+00 -2.3672644e+03 
0.0000000e+00 0.0000000e+00 -2.5672644e+03 
0.0000000e+00 0.0000000e+00 -2.3672644e+03 
0.0000000e+00 0.0000000e+00 -1.7672648e+03 
0.0000000e+00 0.0000000e+00 -7.6726575e+02 
0.0000000e+00 0.0000000e+00 6.3273242e+02 
0.0000000e+00 0.0000000e+00 1.9179396e+03 
0.0000000e+00 0.0000000e+00 1.9307708e+03 
0.0000000e+00 0.0000000e+00 1.5073020e+03 
0.0000000e+00 0.0000000e+00 1.0838333e+03 
0.0000000e+00 0.0000000e+00 6.6036438e+02 
0.0000000e+00 0.0000000e+00 2.3689565e+02 
0.0000000e+00 0.0000000e+00 -1.8657312e+02 
0.0000000e+00 0.0000000e+00 -6.1004187e+02 
0.0000000e+00 0.0000000e+00 -1.0335106e+03 
0.0000000e+00 0.0000000e+00 -1.4569795e+03 
0.0000000e+00 0.0000000e+00 4.3303897e+02 
0.0000000e+00 0.0000000e+00 8.0525793e+02 
0.0000000e+00 0.0000000e+00 6.6293750e+02 
0.0000000e+00 0.0000000e+00 5.2061707e+02 
0.0000000e+00 0.0000000e+00 3.7829666e+02 
0.0000000e+00 0.0000000e+00 2.3597621e+02 
0.0000000e+00 0.0000000e+00 9.3655785e+01 
0.0000000e+00 0.0000000e+00 -4.8664650e+01 
0.0000000e+00 0.0000000e+00 -1.9098508e+02 
0.0000000e+00 0.0000000e+00 -3.3330551e+02 
0.0000000e+00 0.0000000e+00 -4.1977792e+02 
0.0000000e+00 0.0000000e+00 1.1065273e+03 
0.0000000e+00 0.0000000e+00 -2.9347321e+02 
0.0000000e+00 0.0000000e+00 -1.2934738e+03 
0.0000000e+00 0.0000000e+00 -1.8934742e+03 
0.0000000e+00 0.0000000e+00 -2.0934744e+03 
0.0000000e+00 0.0000000e+00 -1.8934742e+03 
0.0000000e+00 0.0000000e+00 -1.2934738e+03 
0.0000000e+00 0.0000000e+00 -2.9347321e+02 
0.0000000e+00 0.0000000e+00 1.1065273e+03 
CELL_DATA 60
FIELD FieldData 2
FORCE 3 60  float
-2.0000162e+04 7.1207300e+02 0.0000000e+00 
-1.9997387e+04 7.1273657e+02 0.0000000e+00 
-1.9994701e+04 7.1311670e+02 0.0000000e+00 
-1.9993891e+04 7.1321350e+02 0.0000000e+00 
-1.9995406e+04 7.1302716e+02 0.0000000e+00 
-1.9998375e+04 7.1255743e+02 0.0000000e+00 
-2.0000596e+04 7.1180420e+02 0.0000000e+00 
-1.9998533e+04 7.1076764e+02 0.0000000e+00 
-1.9987326e+04 7.0944843e+02 0.0000000e+00 
-1.9960785e+04 7.0784900e+02 0.0000000e+00 
-9.9758877e+03 2.1159290e+03 0.0000000e+00 
-1.0000154e+04 2.1173772e+03 0.0000000e+00 
-9.9892236e+03 2.1184053e+03 0.0000000e+00 
-9.9718096e+03 2.1190103e+03 0.0000000e+00 
-9.9648584e+03 2.1191946e+03 0.0000000e+00 
-9.9735537e+03 2.1189604e+03 0.0000000e+00 
-9.9913154e+03 2.1183052e+03 0.0000000e+00 
-9.9997949e+03 2.1172268e+03 0.0000000e+00 
-9.9688848e+03 2.1157295e+03 0.0000000e+00 
-9.8567100e+03 2.1138376e+03 0.0000000e+00 
-1.7737682e+03 -9.0010967e+03 0.0000000e+00 
-1.6934392e+03 -7.0011689e+03 0.0000000e+00 
-1.7928833e+03 -5.0010552e+03 0.0000000e+00 
-1.9702096e+03 -3.0007532e+03 0.0000000e+00 
-2.0991792e+03 -1.0002759e+03 0.0000000e+00 
-2.0991792e+03 1.0002759e+03 0.0000000e+00 
-1.9702096e+03 3.0007534e+03 0.0000000e+00 
-1.7928833e+03 5.0010552e+03 0.0000000e+00 
-1.6934392e+03 7.0011689e+03 0.0000000e+00 
-1.7737682e+03 9.0010967e+03 0.0000000e+00 
-9.8567100e+03 -2.1138376e+03 0.0000000e+00 
-9.9688848e+03 -2.1157295e+03 0.0000000e+00 
-9.9997949e+03 -2.1172268e+03 0.0000000e+00 
-9.9913154e+03 -2.1183052e+03 0.0000000e+00 
-9.9735537e+03 -2.1189604e+03 0.0000000e+00 
-9.9648584e+03 -2.1191946e+03 0.0000000e+00 
-9.9718096e+03 -2.1190103e+03 0.0000000e+00 
-9.9892236e+03 -2.1184053e+03 0.0000000e+00 
-1.0000154e+04 -2.1173772e+03 0.0000000e+00 
-9.9758877e+03 -2.1159290e+03 0.0000000e+00 
-1.9960785e+04 -7.0784900e+02 0.0000000e+00 
-1.9987326e+04 -7.0944843e+02 0.0000000e+00 
-1.9998533e+04 -7.1076764e+02 0.0000000e+00 
-2.0000596e+04 -7.1180420e+02 0.0000000e+00 
-1.9998375e+04 -7.1255743e+02 0.0000000e+00 
-1.9995406e+04 -7.1302716e+02 0.0000000e+00 
-1.9993891e+04 -7.1321350e+02 0.0000000e+00 
-1.9994701e+04 -7.1311670e+02 0.0000000e+00 
-1.9997387e+04 -7.1273657e+02 0.0000000e+00 
-2.0000162e+04 -7.1207300e+02 0.0000000e+00 
1.5376765e+03 -8.9994463e+03 0.0000000e+00 
1.6339330e+03 -6.9992607e+03 0.0000000e+00 
1.6044543e+03 -4.9993257e+03 0.0000000e+00 
1.5014006e+03 -2.9995552e+03 0.0000000e+00 
1.4178562e+03 -9.9984821e+02 0.0000000e+00 
1.4178562e+03 9.9984821e+02 0.0000000e+00 
1.5014006e+03 2.9995552e+03 0.0000000e+00 
1.6044543e+03 4.9993257e+03 0.0000000e+00 
1.6339330e+03 6.9992607e+03 0.0000000e+00 
1.5376765e+03 8.9994463e+03 0.0000000e+00 
MOMENT 3 60  float
0.0000000e+00 0.0000000e+00 -4.0445706e+02 
0.0000000e+00 0.0000000e+00 -2.6213968e+02 
0.0000000e+00 0.0000000e+00 -1.1982230e+02 
0.0000000e+00 0.0000000e+00 2.2495085e+01 
0.0000000e+00 0.0000000e+00 1.6481247e+02 
0.0000000e+00 0.0000000e+00 3.0712985e+02 
0.0000000e+00 0.0000000e+00 4.4944724e+02 
0.0000000e+00 0.0000000e+00 5.9176465e+02 
0.0000000e+00 0.0000000e+00 7.3408203e+02 
0.0000000e+00 0.0000000e+00 8.7639941e+02 
0.0000000e+00 0.0000000e+00 -1.6686960e+03 
0.0000000e+00 0.0000000e+00 -1.2452317e+03 
0.0000000e+00 0.0000000e+00 -8.2176752e+02 
0.0000000e+00 0.0000000e+00 -3.9830325e+02 
0.0000000e+00 0.0000000e+00 2.5160994e+01 
0.0000000e+00 0.0000000e+00 4.4862524e+02 
0.0000000e+00 0.0000000e+00 8.7208948e+02 
0.0000000e+00 0.0000000e+00 1.2955537e+03 
0.0000000e+00 0.0000000e+00 1.7190181e+03 
0.0000000e+00 0.0000000e+00 2.1424827e+03 
0.0000000e+00 0.0000000e+00 1.4542461e+03 
0.0000000e+00 0.0000000e+00 -1.4574965e+02 
0.0000000e+00 0.0000000e+00 -1.3457463e+03 
0.0000000e+00 0.0000000e+00 -2.1457437e+03 
0.0000000e+00 0.0000000e+00 -2.5457419e+03 
0.0000000e+00 0.0000000e+00 -2.5457419e+03 
0.0000000e+00 0.0000000e+00 -2.1457437e+03 
0.0000000e+00 0.0000000e+00 -1.3457463e+03 
0.0000000e+00 0.0000000e+00 -1.4574965e+02 
0.0000000e+00 0.0000000e+00 1.4542461e+03 
0.0000000e+00 0.0000000e+00 2.1424827e+03 
0.0000000e+00 0.0000000e+00 1.7190181e+03 
0.0000000e+00 0.0000000e+00 1.2955537e+03 
0.0000000e+00 0.0000000e+00 8.7208948e+02 
0.0000000e+00 0.0000000e+00 4.4862524e+02 
0.0000000e+00 0.0000000e+00 2.5160994e+01 
0.0000000e+00 0.0000000e+00 -3.9830325e+02 
0.0000000e+00 0.0000000e+00 -8.2176752e+02 
0.0000000e+00 0.0000000e+00 -1.2452317e+03 
0.0000000e+00 0.0000000e+00 -1.6686960e+03 
0.0000000e+00 0.0000000e+00 8.7639941e+02 
0.0000000e+00 0.0000000e+00 7.3408203e+02 
0.0000000e+00 0.0000000e+00 5.9176465e+02 
0.0000000e+00 0.0000000e+00 4.4944724e+02 
0.0000000e+00 0.0000000e+00 3.0712985e+02 
0.0000000e+00 0.0000000e+00 1.6481247e+02 
0.0000000e+00 0.0000000e+00 2.2495085e+01 
0.0000000e+00 0.0000000e+00 -1.1982230e+02 
0.0000000e+00 0.0000000e+00 -2.6213968e+02 
0.0000000e+00 0.0000000e+00 -4.0445706e+02 
0.0000000e+00 0.0000000e+00 1.9280479e+03 
0.0000000e+00 0.0000000e+00 3.2804419e+02 
0.0000000e+00 0.0000000e+00 -8.7195874e+02 
0.0000000e+00 0.0000000e+00 -1.6719604e+03 
0.0000000e+00 0.0000000e+00 -2.0719612e+03 
0.0000000e+00 0.0000000e+00 -2.0719612e+03 
0.0000000e+00 0.0000000e+00 -1.6719604e+03 
0.0000000e+00 0.0000000e+00 -8.7195874e+02 
0.0000000e+00 0.0000000e+00 3.2804419e+02 
0.0000000e+00 0.0000000e+00 1.9280479e+03 
