# vtk DataFile Version 4.0
vtk output
ASCII
DATASET UNSTRUCTURED_GRID
POINTS 212 float
0.0000000e+00 0.0000000e+00 0.0000000e+00 
0.0000000e+00 0.0000000e+00 2.5000000e-01 
0.0000000e+00 0.0000000e+00 5.0000000e-01 
0.0000000e+00 0.0000000e+00 7.5000000e-01 
0.0000000e+00 0.0000000e+00 1.0000000e+00 
0.0000000e+00 0.0000000e+00 1.2500000e+00 
0.0000000e+00 0.0000000e+00 1.5000000e+00 
0.0000000e+00 0.0000000e+00 1.7500000e+00 
0.0000000e+00 0.0000000e+00 2.0000000e+00 
0.0000000e+00 0.0000000e+00 2.2500000e+00 
0.0000000e+00 0.0000000e+00 2.5000000e+00 
0.0000000e+00 0.0000000e+00 2.7500000e+00 
0.0000000e+00 0.0000000e+00 3.0000000e+00 
0.0000000e+00 0.0000000e+00 3.2500000e+00 
0.0000000e+00 0.0000000e+00 3.5000000e+00 
0.0000000e+00 0.0000000e+00 3.7500000e+00 
0.0000000e+00 0.0000000e+00 4.0000000e+00 
0.0000000e+00 0.0000000e+00 4.2500000e+00 
0.0000000e+00 0.0000000e+00 4.5000000e+00 
0.0000000e+00 0.0000000e+00 4.7500000e+00 
0.0000000e+00 0.0000000e+00 5.0000000e+00 
0.0000000e+00 0.0000000e+00 5.2500000e+00 
0.0000000e+00 0.0000000e+00 5.5000000e+00 
0.0000000e+00 0.0000000e+00 5.7500000e+00 
0.0000000e+00 0.0000000e+00 6.0000000e+00 
0.0000000e+00 0.0000000e+00 6.2500000e+00 
0.0000000e+00 0.0000000e+00 6.5000000e+00 
0.0000000e+00 0.0000000e+00 6.7500000e+00 
0.0000000e+00 0.0000000e+00 7.0000000e+00 
0.0000000e+00 0.0000000e+00 7.2500000e+00 
0.0000000e+00 0.0000000e+00 7.5000000e+00 
0.0000000e+00 0.0000000e+00 7.7500000e+00 
0.0000000e+00 0.0000000e+00 8.0000000e+00 
0.0000000e+00 0.0000000e+00 8.2500000e+00 
0.0000000e+00 0.0000000e+00 8.5000000e+00 
0.0000000e+00 0.0000000e+00 8.7500000e+00 
0.0000000e+00 0.0000000e+00 9.0000000e+00 
0.0000000e+00 0.0000000e+00 9.2500000e+00 
0.0000000e+00 0.0000000e+00 9.5000000e+00 
0.0000000e+00 0.0000000e+00 9.7500000e+00 
0.0000000e+00 0.0000000e+00 1.0000000e+01 
0.0000000e+00 0.0000000e+00 1.0250000e+01 
0.0000000e+00 0.0000000e+00 1.0500000e+01 
0.0000000e+00 0.0000000e+00 1.0750000e+01 
0.0000000e+00 0.0000000e+00 1.1000000e+01 
0.0000000e+00 0.0000000e+00 1.1250000e+01 
0.0000000e+00 0.0000000e+00 1.1500000e+01 
0.0000000e+00 0.0000000e+00 1.1750000e+01 
0.0000000e+00 0.0000000e+00 1.2000000e+01 
0.0000000e+00 0.0000000e+00 1.2250000e+01 
0.0000000e+00 0.0000000e+00 1.2500000e+01 
0.0000000e+00 0.0000000e+00 1.2750000e+01 
0.0000000e+00 0.0000000e+00 1.3000000e+01 
0.0000000e+00 0.0000000e+00 1.3250000e+01 
0.0000000e+00 0.0000000e+00 1.3500000e+01 
0.0000000e+00 0.0000000e+00 1.3750000e+01 
0.0000000e+00 0.0000000e+00 1.4000000e+01 
0.0000000e+00 0.0000000e+00 1.4250000e+01 
0.0000000e+00 0.0000000e+00 1.4500000e+01 
0.0000000e+00 0.0000000e+00 1.4750000e+01 
0.0000000e+00 0.0000000e+00 1.5000000e+01 
0.0000000e+00 0.0000000e+00 1.5250000e+01 
0.0000000e+00 0.0000000e+00 1.5500000e+01 
0.0000000e+00 0.0000000e+00 1.5750000e+01 
0.0000000e+00 0.0000000e+00 1.6000000e+01 
0.0000000e+00 0.0000000e+00 1.6250000e+01 
0.0000000e+00 0.0000000e+00 1.6500000e+01 
0.0000000e+00 0.0000000e+00 1.6750000e+01 
0.0000000e+00 0.0000000e+00 1.7000000e+01 
0.0000000e+00 0.0000000e+00 1.7250000e+01 
0.0000000e+00 0.0000000e+00 1.7500000e+01 
0.0000000e+00 0.0000000e+00 1.7750000e+01 
0.0000000e+00 0.0000000e+00 1.8000000e+01 
5.0000000e-01 0.0000000e+00 3.0000000e+00 
5.0000000e-01 0.0000000e+00 6.0000000e+00 
5.0000000e-01 0.0000000e+00 9.0000000e+00 
5.0000000e-01 0.0000000e+00 1.2000000e+01 
5.0000000e-01 0.0000000e+00 1.5000000e+01 
5.0000000e-01 0.0000000e+00 1.8000000e+01 
1.0000000e+00 0.0000000e+00 3.0000000e+00 
1.0000000e+00 0.0000000e+00 6.0000000e+00 
1.0000000e+00 0.0000000e+00 9.0000000e+00 
1.0000000e+00 0.0000000e+00 1.2000000e+01 
1.0000000e+00 0.0000000e+00 1.5000000e+01 
1.0000000e+00 0.0000000e+00 1.8000000e+01 
1.5000000e+00 0.0000000e+00 3.0000000e+00 
1.5000000e+00 0.0000000e+00 6.0000000e+00 
1.5000000e+00 0.0000000e+00 9.0000000e+00 
1.5000000e+00 0.0000000e+00 1.2000000e+01 
1.5000000e+00 0.0000000e+00 1.5000000e+01 
1.5000000e+00 0.0000000e+00 1.8000000e+01 
2.0000000e+00 0.0000000e+00 3.0000000e+00 
2.0000000e+00 0.0000000e+00 6.0000000e+00 
2.0000000e+00 0.0000000e+00 9.0000000e+00 
2.0000000e+00 0.0000000e+00 1.2000000e+01 
2.0000000e+00 0.0000000e+00 1.5000000e+01 
2.0000000e+00 0.0000000e+00 1.8000000e+01 
2.5000000e+00 0.0000000e+00 3.0000000e+00 
2.5000000e+00 0.0000000e+00 6.0000000e+00 
2.5000000e+00 0.0000000e+00 9.0000000e+00 
2.5000000e+00 0.0000000e+00 1.2000000e+01 
2.5000000e+00 0.0000000e+00 1.5000000e+01 
2.5000000e+00 0.0000000e+00 1.8000000e+01 
3.0000000e+00 0.0000000e+00 3.0000000e+00 
3.0000000e+00 0.0000000e+00 6.0000000e+00 
3.0000000e+00 0.0000000e+00 9.0000000e+00 
3.0000000e+00 0.0000000e+00 1.2000000e+01 
3.0000000e+00 0.0000000e+00 1.5000000e+01 
3.0000000e+00 0.0000000e+00 1.8000000e+01 
3.5000000e+00 0.0000000e+00 3.0000000e+00 
3.5000000e+00 0.0000000e+00 6.0000000e+00 
3.5000000e+00 0.0000000e+00 9.0000000e+00 
3.5000000e+00 0.0000000e+00 1.2000000e+01 
3.5000000e+00 0.0000000e+00 1.5000000e+01 
3.5000000e+00 0.0000000e+00 1.8000000e+01 
4.0000000e+00 0.0000000e+00 3.0000000e+00 
4.0000000e+00 0.0000000e+00 6.0000000e+00 
4.0000000e+00 0.0000000e+00 9.0000000e+00 
4.0000000e+00 0.0000000e+00 1.2000000e+01 
4.0000000e+00 0.0000000e+00 1.5000000e+01 
4.0000000e+00 0.0000000e+00 1.8000000e+01 
4.5000000e+00 0.0000000e+00 3.0000000e+00 
4.5000000e+00 0.0000000e+00 6.0000000e+00 
4.5000000e+00 0.0000000e+00 9.0000000e+00 
4.5000000e+00 0.0000000e+00 1.2000000e+01 
4.5000000e+00 0.0000000e+00 1.5000000e+01 
4.5000000e+00 0.0000000e+00 1.8000000e+01 
5.0000000e+00 0.0000000e+00 3.0000000e+00 
5.0000000e+00 0.0000000e+00 6.0000000e+00 
5.0000000e+00 0.0000000e+00 9.0000000e+00 
5.0000000e+00 0.0000000e+00 1.2000000e+01 
5.0000000e+00 0.0000000e+00 1.5000000e+01 
5.0000000e+00 0.0000000e+00 1.8000000e+01 
5.5000000e+00 0.0000000e+00 3.0000000e+00 
5.5000000e+00 0.0000000e+00 6.0000000e+00 
5.5000000e+00 0.0000000e+00 9.0000000e+00 
5.5000000e+00 0.0000000e+00 1.2000000e+01 
5.5000000e+00 0.0000000e+00 1.5000000e+01 
5.5000000e+00 0.0000000e+00 1.8000000e+01 
6.0000000e+00 0.0000000e+00 0.0000000e+00 
6.0000000e+00 0.0000000e+00 2.5000000e-01 
6.0000000e+00 0.0000000e+00 5.0000000e-01 
6.0000000e+00 0.0000000e+00 7.5000000e-01 
6.0000000e+00 0.0000000e+00 1.0000000e+00 
6.0000000e+00 0.0000000e+00 1.2500000e+00 
6.0000000e+00 0.0000000e+00 1.5000000e+00 
6.0000000e+00 0.0000000e+00 1.7500000e+00 
6.0000000e+00 0.0000000e+00 2.0000000e+00 
6.0000000e+00 0.0000000e+00 2.2500000e+00 
6.0000000e+00 0.0000000e+00 2.5000000e+00 
6.0000000e+00 0.0000000e+00 2.7500000e+00 
6.0000000e+00 0.0000000e+00 3.0000000e+00 
6.0000000e+00 0.0000000e+00 3.2500000e+00 
6.0000000e+00 0.0000000e+00 3.5000000e+00 
6.0000000e+00 0.0000000e+00 3.7500000e+00 
6.0000000e+00 0.0000000e+00 4.0000000e+00 
6.0000000e+00 0.0000000e+00 4.2500000e+00 
6.0000000e+00 0.0000000e+00 4.5000000e+00 
6.0000000e+00 0.0000000e+00 4.7500000e+00 
6.0000000e+00 0.0000000e+00 5.0000000e+00 
6.0000000e+00 0.0000000e+00 5.2500000e+00 
6.0000000e+00 0.0000000e+00 5.5000000e+00 
6.0000000e+00 0.0000000e+00 5.7500000e+00 
6.0000000e+00 0.0000000e+00 6.0000000e+00 
6.0000000e+00 0.0000000e+00 6.2500000e+00 
6.0000000e+00 0.0000000e+00 6.5000000e+00 
6.0000000e+00 0.0000000e+00 6.7500000e+00 
6.0000000e+00 0.0000000e+00 7.0000000e+00 
6.0000000e+00 0.0000000e+00 7.2500000e+00 
6.0000000e+00 0.0000000e+00 7.5000000e+00 
6.0000000e+00 0.0000000e+00 7.7500000e+00 
6.0000000e+00 0.0000000e+00 8.0000000e+00 
6.0000000e+00 0.0000000e+00 8.2500000e+00 
6.0000000e+00 0.0000000e+00 8.5000000e+00 
6.0000000e+00 0.0000000e+00 8.7500000e+00 
6.0000000e+00 0.0000000e+00 9.0000000e+00 
6.0000000e+00 0.0000000e+00 9.2500000e+00 
6.0000000e+00 0.0000000e+00 9.5000000e+00 
6.0000000e+00 0.0000000e+00 9.7500000e+00 
6.0000000e+00 0.0000000e+00 1.0000000e+01 
6.0000000e+00 0.0000000e+00 1.0250000e+01 
6.0000000e+00 0.0000000e+00 1.0500000e+01 
6.0000000e+00 0.0000000e+00 1.0750000e+01 
6.0000000e+00 0.0000000e+00 1.1000000e+01 
6.0000000e+00 0.0000000e+00 1.1250000e+01 
6.0000000e+00 0.0000000e+00 1.1500000e+01 
6.0000000e+00 0.0000000e+00 1.1750000e+01 
6.0000000e+00 0.0000000e+00 1.2000000e+01 
6.0000000e+00 0.0000000e+00 1.2250000e+01 
6.0000000e+00 0.0000000e+00 1.2500000e+01 
6.0000000e+00 0.0000000e+00 1.2750000e+01 
6.0000000e+00 0.0000000e+00 1.3000000e+01 
6.0000000e+00 0.0000000e+00 1.3250000e+01 
6.0000000e+00 0.0000000e+00 1.3500000e+01 
6.0000000e+00 0.0000000e+00 1.3750000e+01 
6.0000000e+00 0.0000000e+00 1.4000000e+01 
6.0000000e+00 0.0000000e+00 1.4250000e+01 
6.0000000e+00 0.0000000e+00 1.4500000e+01 
6.0000000e+00 0.0000000e+00 1.4750000e+01 
6.0000000e+00 0.0000000e+00 1.5000000e+01 
6.0000000e+00 0.0000000e+00 1.5250000e+01 
6.0000000e+00 0.0000000e+00 1.5500000e+01 
6.0000000e+00 0.0000000e+00 1.5750000e+01 
6.0000000e+00 0.0000000e+00 1.6000000e+01 
6.0000000e+00 0.0000000e+00 1.6250000e+01 
6.0000000e+00 0.0000000e+00 1.6500000e+01 
6.0000000e+00 0.0000000e+00 1.6750000e+01 
6.0000000e+00 0.0000000e+00 1.7000000e+01 
6.0000000e+00 0.0000000e+00 1.7250000e+01 
6.0000000e+00 0.0000000e+00 1.7500000e+01 
6.0000000e+00 0.0000000e+00 1.7750000e+01 
6.0000000e+00 0.0000000e+00 1.8000000e+01 

CELLS 216 648
2 0 1
2 1 2
2 2 3
2 3 4
2 4 5
2 5 6
2 6 7
2 7 8
2 8 9
2 9 10
2 10 11
2 11 12
2 12 13
2 13 14
2 14 15
2 15 16
2 16 17
2 17 18
2 18 19
2 19 20
2 20 21
2 21 22
2 22 23
2 23 24
2 24 25
2 25 26
2 26 27
2 27 28
2 28 29
2 29 30
2 30 31
2 31 32
2 32 33
2 33 34
2 34 35
2 35 36
2 36 37
2 37 38
2 38 39
2 39 40
2 40 41
2 41 42
2 42 43
2 43 44
2 44 45
2 45 46
2 46 47
2 47 48
2 48 49
2 49 50
2 50 51
2 51 52
2 52 53
2 53 54
2 54 55
2 55 56
2 56 57
2 57 58
2 58 59
2 59 60
2 60 61
2 61 62
2 62 63
2 63 64
2 64 65
2 65 66
2 66 67
2 67 68
2 68 69
2 69 70
2 70 71
2 71 72
2 139 140
2 140 141
2 141 142
2 142 143
2 143 144
2 144 145
2 145 146
2 146 147
2 147 148
2 148 149
2 149 150
2 150 151
2 151 152
2 152 153
2 153 154
2 154 155
2 155 156
2 156 157
2 157 158
2 158 159
2 159 160
2 160 161
2 161 162
2 162 163
2 163 164
2 164 165
2 165 166
2 166 167
2 167 168
2 168 169
2 169 170
2 170 171
2 171 172
2 172 173
2 173 174
2 174 175
2 175 176
2 176 177
2 177 178
2 178 179
2 179 180
2 180 181
2 181 182
2 182 183
2 183 184
2 184 185
2 185 186
2 186 187
2 187 188
2 188 189
2 189 190
2 190 191
2 191 192
2 192 193
2 193 194
2 194 195
2 195 196
2 196 197
2 197 198
2 198 199
2 199 200
2 200 201
2 201 202
2 202 203
2 203 204
2 204 205
2 205 206
2 206 207
2 207 208
2 208 209
2 209 210
2 210 211
2 12 73
2 73 79
2 79 85
2 85 91
2 91 97
2 97 103
2 103 109
2 109 115
2 115 121
2 121 127
2 127 133
2 133 151
2 24 74
2 74 80
2 80 86
2 86 92
2 92 98
2 98 104
2 104 110
2 110 116
2 116 122
2 122 128
2 128 134
2 134 163
2 36 75
2 75 81
2 81 87
2 87 93
2 93 99
2 99 105
2 105 111
2 111 117
2 117 123
2 123 129
2 129 135
2 135 175
2 48 76
2 76 82
2 82 88
2 88 94
2 94 100
2 100 106
2 106 112
2 112 118
2 118 124
2 124 130
2 130 136
2 136 187
2 60 77
2 77 83
2 83 89
2 89 95
2 95 101
2 101 107
2 107 113
2 113 119
2 119 125
2 125 131
2 131 137
2 137 199
2 72 78
2 78 84
2 84 90
2 90 96
2 96 102
2 102 108
2 108 114
2 114 120
2 120 126
2 126 132
2 132 138
2 138 211

CELL_TYPES 216
3
3
3
3
3
3
3
3
3
3
3
3
3
3
3
3
3
3
3
3
3
3
3
3
3
3
3
3
3
3
3
3
3
3
3
3
3
3
3
3
3
3
3
3
3
3
3
3
3
3
3
3
3
3
3
3
3
3
3
3
3
3
3
3
3
3
3
3
3
3
3
3
3
3
3
3
3
3
3
3
3
3
3
3
3
3
3
3
3
3
3
3
3
3
3
3
3
3
3
3
3
3
3
3
3
3
3
3
3
3
3
3
3
3
3
3
3
3
3
3
3
3
3
3
3
3
3
3
3
3
3
3
3
3
3
3
3
3
3
3
3
3
3
3
3
3
3
3
3
3
3
3
3
3
3
3
3
3
3
3
3
3
3
3
3
3
3
3
3
3
3
3
3
3
3
3
3
3
3
3
3
3
3
3
3
3
3
3
3
3
3
3
3
3
3
3
3
3
3
3
3
3
3
3
3
3
3
3
3
3
3
3
3
3
3
3
POINT_DATA 212
FIELD FieldData 8
DISPLACEMENT 3 212  float
0.0000000e+00 0.0000000e+00 0.0000000e+00 
-3.8322589e-05 0.0000000e+00 -8.3276673e-06 
-7.5044518e-05 0.0000000e+00 -1.6597967e-05 
-1.0856514e-04 0.0000000e+00 -2.4810897e-05 
-1.3728377e-04 0.0000000e+00 -3.2966462e-05 
-1.5959979e-04 0.0000000e+00 -4.1064657e-05 
-1.7391251e-04 0.0000000e+00 -4.9105482e-05 
-1.7862128e-04 0.0000000e+00 -5.7088942e-05 
-1.7212545e-04 0.0000000e+00 -6.5015032e-05 
-1.5282436e-04 0.0000000e+00 -7.2883755e-05 
-1.1911734e-04 0.0000000e+00 -8.0695107e-05 
-6.9403737e-05 0.0000000e+00 -8.8449095e-05 
-2.0829048e-06 0.0000000e+00 -9.6145712e-05 
5.8562640e-05 0.0000000e+00 -1.0308065e-04 
9.0689529e-05 0.0000000e+00 -1.0995823e-04 
9.9557161e-05 0.0000000e+00 -1.1677844e-04 
9.0424925e-05 0.0000000e+00 -1.2354128e-04 
6.8552217e-05 0.0000000e+00 -1.3024674e-04 
3.9198429e-05 0.0000000e+00 -1.3689484e-04 
7.6229599e-06 0.0000000e+00 -1.4348558e-04 
-2.0914798e-05 0.0000000e+00 -1.5001894e-04 
-4.1155454e-05 0.0000000e+00 -1.5649493e-04 
-4.7839607e-05 0.0000000e+00 -1.6291357e-04 
-3.5707864e-05 0.0000000e+00 -1.6927483e-04 
4.9916378e-07 0.0000000e+00 -1.7557872e-04 
3.8290927e-05 0.0000000e+00 -1.8112094e-04 
5.4592332e-05 0.0000000e+00 -1.8660579e-04 
5.3785963e-05 0.0000000e+00 -1.9203327e-04 
4.0254403e-05 0.0000000e+00 -1.9740338e-04 
1.8380244e-05 0.0000000e+00 -2.0271612e-04 
-7.4539312e-06 0.0000000e+00 -2.0797151e-04 
-3.2865537e-05 0.0000000e+00 -2.1316951e-04 
-5.3471987e-05 0.0000000e+00 -2.1831015e-04 
-6.4890693e-05 0.0000000e+00 -2.2339342e-04 
-6.2739076e-05 0.0000000e+00 -2.2841932e-04 
-4.2634547e-05 0.0000000e+00 -2.3338785e-04 
-1.9451669e-07 0.0000000e+00 -2.3829902e-04 
4.1628016e-05 0.0000000e+00 -2.4244851e-04 
6.0107839e-05 0.0000000e+00 -2.4654064e-04 
5.9969218e-05 0.0000000e+00 -2.5057539e-04 
4.5936416e-05 0.0000000e+00 -2.5455278e-04 
2.2733704e-05 0.0000000e+00 -2.5847281e-04 
-4.9146574e-06 0.0000000e+00 -2.6233544e-04 
-3.2284403e-05 0.0000000e+00 -2.6614073e-04 
-5.4651267e-05 0.0000000e+00 -2.6988864e-04 
-6.7290981e-05 0.0000000e+00 -2.7357921e-04 
-6.5479289e-05 0.0000000e+00 -2.7721238e-04 
-4.4491921e-05 0.0000000e+00 -2.8078820e-04 
3.9539376e-07 0.0000000e+00 -2.8430662e-04 
4.6537938e-05 0.0000000e+00 -2.8706339e-04 
7.0827977e-05 0.0000000e+00 -2.8976280e-04 
7.7295255e-05 0.0000000e+00 -2.9240482e-04 
6.9969494e-05 0.0000000e+00 -2.9498947e-04 
5.2880441e-05 0.0000000e+00 -2.9751679e-04 
3.0057821e-05 0.0000000e+00 -2.9998671e-04 
5.5313703e-06 0.0000000e+00 -3.0239925e-04 
-1.6669177e-05 0.0000000e+00 -3.0475445e-04 
-3.2514086e-05 0.0000000e+00 -3.0705228e-04 
-3.7973619e-05 0.0000000e+00 -3.0929272e-04 
-2.9018049e-05 0.0000000e+00 -3.1147580e-04 
-1.6176377e-06 0.0000000e+00 -3.1360151e-04 
2.0625792e-05 0.0000000e+00 -3.1496555e-04 
1.6004726e-05 0.0000000e+00 -3.1627223e-04 
-8.6096279e-06 0.0000000e+00 -3.1752154e-04 
-4.6346067e-05 0.0000000e+00 -3.1871349e-04 
-9.0333393e-05 0.0000000e+00 -3.1984804e-04 
-1.3370039e-04 0.0000000e+00 -3.2092526e-04 
-1.6957587e-04 0.0000000e+00 -3.2194509e-04 
-1.9108862e-04 0.0000000e+00 -3.2290755e-04 
-1.9136744e-04 0.0000000e+00 -3.2381265e-04 
-1.6354112e-04 0.0000000e+00 -3.2466036e-04 
-1.0073846e-04 0.0000000e+00 -3.2545073e-04 
3.9117499e-06 0.0000000e+00 -3.2618371e-04 
-1.7357539e-06 0.0000000e+00 -3.3648251e-04 
4.1596979e-07 0.0000000e+00 -3.6703850e-04 
-1.6209724e-07 0.0000000e+00 -4.3905532e-04 
3.2949481e-07 0.0000000e+00 -4.9119251e-04 
-1.3480314e-06 0.0000000e+00 -4.8300312e-04 
3.2597916e-06 0.0000000e+00 -6.6039886e-04 
-1.3886031e-06 0.0000000e+00 -6.8158028e-04 
3.3277584e-07 0.0000000e+00 -6.7214592e-04 
-1.2967779e-07 0.0000000e+00 -7.5176905e-04 
2.6359584e-07 0.0000000e+00 -8.0892129e-04 
-1.0784252e-06 0.0000000e+00 -7.7006296e-04 
2.6078333e-06 0.0000000e+00 -1.0823061e-03 
-1.0414524e-06 0.0000000e+00 -1.0423638e-03 
2.4958189e-07 0.0000000e+00 -1.0018259e-03 
-9.7258344e-08 0.0000000e+00 -1.0873650e-03 
1.9769688e-07 0.0000000e+00 -1.1484179e-03 
-8.0881887e-07 0.0000000e+00 -1.0857059e-03 
1.9558749e-06 0.0000000e+00 -1.5028305e-03 
-6.9430155e-07 0.0000000e+00 -1.3495525e-03 
1.6638792e-07 0.0000000e+00 -1.2867978e-03 
-6.4838893e-08 0.0000000e+00 -1.3765626e-03 
1.3179792e-07 0.0000000e+00 -1.4404017e-03 
-5.3921258e-07 0.0000000e+00 -1.3606515e-03 
1.3039166e-06 0.0000000e+00 -1.8526912e-03 
-3.4715077e-07 0.0000000e+00 -1.5536603e-03 
8.3193960e-08 0.0000000e+00 -1.4775754e-03 
-3.2419447e-08 0.0000000e+00 -1.5698756e-03 
6.5898959e-08 0.0000000e+00 -1.6353864e-03 
-2.6960629e-07 0.0000000e+00 -1.5454132e-03 
6.5195832e-07 0.0000000e+00 -2.0824021e-03 
9.7696026e-17 0.0000000e+00 -1.6249953e-03 
1.5059759e-16 0.0000000e+00 -1.5444671e-03 
1.5447059e-16 0.0000000e+00 -1.6376124e-03 
1.0139133e-16 0.0000000e+00 -1.7036804e-03 
7.6118500e-18 0.0000000e+00 -1.6102995e-03 
-2.1419380e-17 0.0000000e+00 -2.1622714e-03 
3.4715077e-07 0.0000000e+00 -1.5536603e-03 
-8.3193960e-08 0.0000000e+00 -1.4775754e-03 
3.2419447e-08 0.0000000e+00 -1.5698756e-03 
-6.5898959e-08 0.0000000e+00 -1.6353864e-03 
2.6960629e-07 0.0000000e+00 -1.5454132e-03 
-6.5195832e-07 0.0000000e+00 -2.0824021e-03 
6.9430155e-07 0.0000000e+00 -1.3495525e-03 
-1.6638792e-07 0.0000000e+00 -1.2867978e-03 
6.4838893e-08 0.0000000e+00 -1.3765626e-03 
-1.3179792e-07 0.0000000e+00 -1.4404017e-03 
5.3921258e-07 0.0000000e+00 -1.3606515e-03 
-1.3039166e-06 0.0000000e+00 -1.8526912e-03 
1.0414524e-06 0.0000000e+00 -1.0423638e-03 
-2.4958189e-07 0.0000000e+00 -1.0018259e-03 
9.7258344e-08 0.0000000e+00 -1.0873650e-03 
-1.9769688e-07 0.0000000e+00 -1.1484179e-03 
8.0881887e-07 0.0000000e+00 -1.0857059e-03 
-1.9558749e-06 0.0000000e+00 -1.5028305e-03 
1.3886031e-06 0.0000000e+00 -6.8158028e-04 
-3.3277584e-07 0.0000000e+00 -6.7214592e-04 
1.2967779e-07 0.0000000e+00 -7.5176905e-04 
-2.6359584e-07 0.0000000e+00 -8.0892129e-04 
1.0784252e-06 0.0000000e+00 -7.7006296e-04 
-2.6078333e-06 0.0000000e+00 -1.0823061e-03 
1.7357539e-06 0.0000000e+00 -3.3648251e-04 
-4.1596979e-07 0.0000000e+00 -3.6703850e-04 
1.6209724e-07 0.0000000e+00 -4.3905532e-04 
-3.2949481e-07 0.0000000e+00 -4.9119251e-04 
1.3480314e-06 0.0000000e+00 -4.8300312e-04 
-3.2597916e-06 0.0000000e+00 -6.6039886e-04 
0.0000000e+00 0.0000000e+00 0.0000000e+00 
3.8322589e-05 0.0000000e+00 -8.3276673e-06 
7.5044518e-05 0.0000000e+00 -1.6597967e-05 
1.0856514e-04 0.0000000e+00 -2.4810897e-05 
1.3728377e-04 0.0000000e+00 -3.2966462e-05 
1.5959979e-04 0.0000000e+00 -4.1064657e-05 
1.7391251e-04 0.0000000e+00 -4.9105482e-05 
1.7862128e-04 0.0000000e+00 -5.7088942e-05 
1.7212545e-04 0.0000000e+00 -6.5015032e-05 
1.5282436e-04 0.0000000e+00 -7.2883755e-05 
1.1911734e-04 0.0000000e+00 -8.0695107e-05 
6.9403737e-05 0.0000000e+00 -8.8449095e-05 
2.0829048e-06 0.0000000e+00 -9.6145712e-05 
-5.8562640e-05 0.0000000e+00 -1.0308065e-04 
-9.0689529e-05 0.0000000e+00 -1.0995823e-04 
-9.9557161e-05 0.0000000e+00 -1.1677844e-04 
-9.0424925e-05 0.0000000e+00 -1.2354128e-04 
-6.8552217e-05 0.0000000e+00 -1.3024674e-04 
-3.9198429e-05 0.0000000e+00 -1.3689484e-04 
-7.6229599e-06 0.0000000e+00 -1.4348558e-04 
2.0914798e-05 0.0000000e+00 -1.5001894e-04 
4.1155454e-05 0.0000000e+00 -1.5649493e-04 
4.7839607e-05 0.0000000e+00 -1.6291357e-04 
3.5707864e-05 0.0000000e+00 -1.6927483e-04 
-4.9916378e-07 0.0000000e+00 -1.7557872e-04 
-3.8290927e-05 0.0000000e+00 -1.8112094e-04 
-5.4592332e-05 0.0000000e+00 -1.8660579e-04 
-5.3785963e-05 0.0000000e+00 -1.9203327e-04 
-4.0254403e-05 0.0000000e+00 -1.9740338e-04 
-1.8380244e-05 0.0000000e+00 -2.0271612e-04 
7.4539312e-06 0.0000000e+00 -2.0797151e-04 
3.2865537e-05 0.0000000e+00 -2.1316951e-04 
5.3471987e-05 0.0000000e+00 -2.1831015e-04 
6.4890693e-05 0.0000000e+00 -2.2339342e-04 
6.2739076e-05 0.0000000e+00 -2.2841932e-04 
4.2634547e-05 0.0000000e+00 -2.3338785e-04 
1.9451669e-07 0.0000000e+00 -2.3829902e-04 
-4.1628016e-05 0.0000000e+00 -2.4244851e-04 
-6.0107839e-05 0.0000000e+00 -2.4654064e-04 
-5.9969218e-05 0.0000000e+00 -2.5057539e-04 
-4.5936416e-05 0.0000000e+00 -2.5455278e-04 
-2.2733704e-05 0.0000000e+00 -2.5847281e-04 
4.9146574e-06 0.0000000e+00 -2.6233544e-04 
3.2284403e-05 0.0000000e+00 -2.6614073e-04 
5.4651267e-05 0.0000000e+00 -2.6988864e-04 
6.7290981e-05 0.0000000e+00 -2.7357921e-04 
6.5479289e-05 0.0000000e+00 -2.7721238e-04 
4.4491921e-05 0.0000000e+00 -2.8078820e-04 
-3.9539376e-07 0.0000000e+00 -2.8430662e-04 
-4.6537938e-05 0.0000000e+00 -2.8706339e-04 
-7.0827977e-05 0.0000000e+00 -2.8976280e-04 
-7.7295255e-05 0.0000000e+00 -2.9240482e-04 
-6.9969494e-05 0.0000000e+00 -2.9498947e-04 
-5.2880441e-05 0.0000000e+00 -2.9751679e-04 
-3.0057821e-05 0.0000000e+00 -2.9998671e-04 
-5.5313703e-06 0.0000000e+00 -3.0239925e-04 
1.6669177e-05 0.0000000e+00 -3.0475445e-04 
3.2514086e-05 0.0000000e+00 -3.0705228e-04 
3.7973619e-05 0.0000000e+00 -3.0929272e-04 
2.9018049e-05 0.0000000e+00 -3.1147580e-04 
1.6176377e-06 0.0000000e+00 -3.1360151e-04 
-2.0625792e-05 0.0000000e+00 -3.1496555e-04 
-1.6004726e-05 0.0000000e+00 -3.1627223e-04 
8.6096279e-06 0.0000000e+00 -3.1752154e-04 
4.6346067e-05 0.0000000e+00 -3.1871349e-04 
9.0333393e-05 0.0000000e+00 -3.1984804e-04 
1.3370039e-04 0.0000000e+00 -3.2092526e-04 
1.6957587e-04 0.0000000e+00 -3.2194509e-04 
1.9108862e-04 0.0000000e+00 -3.2290755e-04 
1.9136744e-04 0.0000000e+00 -3.2381265e-04 
1.6354112e-04 0.0000000e+00 -3.2466036e-04 
1.0073846e-04 0.0000000e+00 -3.2545073e-04 
-3.9117499e-06 0.0000000e+00 -3.2618371e-04 
ROTATION 3 212  float
0.0000000e+00 -1.5435746e-04 0.0000000e+00 
0.0000000e+00 -1.5115614e-04 0.0000000e+00 
0.0000000e+00 -1.4155220e-04 0.0000000e+00 
0.0000000e+00 -1.2554562e-04 0.0000000e+00 
0.0000000e+00 -1.0313641e-04 0.0000000e+00 
0.0000000e+00 -7.4324569e-05 0.0000000e+00 
0.0000000e+00 -3.9110091e-05 0.0000000e+00 
0.0000000e+00 2.5070144e-06 0.0000000e+00 
0.0000000e+00 5.0526753e-05 0.0000000e+00 
0.0000000e+00 1.0494913e-04 0.0000000e+00 
0.0000000e+00 1.6577412e-04 0.0000000e+00 
0.0000000e+00 2.3300176e-04 0.0000000e+00 
0.0000000e+00 3.0663202e-04 0.0000000e+00 
0.0000000e+00 1.8203861e-04 0.0000000e+00 
0.0000000e+00 7.8482779e-05 0.0000000e+00 
0.0000000e+00 -4.0354766e-06 0.0000000e+00 
0.0000000e+00 -6.5516157e-05 0.0000000e+00 
0.0000000e+00 -1.0595925e-04 0.0000000e+00 
0.0000000e+00 -1.2536478e-04 0.0000000e+00 
0.0000000e+00 -1.2373272e-04 0.0000000e+00 
0.0000000e+00 -1.0106309e-04 0.0000000e+00 
0.0000000e+00 -5.7355879e-05 0.0000000e+00 
0.0000000e+00 7.3889109e-06 0.0000000e+00 
0.0000000e+00 9.3171278e-05 0.0000000e+00 
0.0000000e+00 1.9999122e-04 0.0000000e+00 
0.0000000e+00 1.0526461e-04 0.0000000e+00 
0.0000000e+00 2.8068345e-05 0.0000000e+00 
0.0000000e+00 -3.1597578e-05 0.0000000e+00 
0.0000000e+00 -7.3733157e-05 0.0000000e+00 
0.0000000e+00 -9.8338394e-05 0.0000000e+00 
0.0000000e+00 -1.0541329e-04 0.0000000e+00 
0.0000000e+00 -9.4957839e-05 0.0000000e+00 
0.0000000e+00 -6.6972039e-05 0.0000000e+00 
0.0000000e+00 -2.1455906e-05 0.0000000e+00 
0.0000000e+00 4.1590574e-05 0.0000000e+00 
0.0000000e+00 1.2216740e-04 0.0000000e+00 
0.0000000e+00 2.2027457e-04 0.0000000e+00 
0.0000000e+00 1.1745520e-04 0.0000000e+00 
0.0000000e+00 3.3532895e-05 0.0000000e+00 
0.0000000e+00 -3.1492353e-05 0.0000000e+00 
0.0000000e+00 -7.7620534e-05 0.0000000e+00 
0.0000000e+00 -1.0485166e-04 0.0000000e+00 
0.0000000e+00 -1.1318573e-04 0.0000000e+00 
0.0000000e+00 -1.0262273e-04 0.0000000e+00 
0.0000000e+00 -7.3162671e-05 0.0000000e+00 
0.0000000e+00 -2.4805557e-05 0.0000000e+00 
0.0000000e+00 4.2448621e-05 0.0000000e+00 
0.0000000e+00 1.2859986e-04 0.0000000e+00 
0.0000000e+00 2.3364816e-04 0.0000000e+00 
0.0000000e+00 1.3817869e-04 0.0000000e+00 
0.0000000e+00 5.8828147e-05 0.0000000e+00 
0.0000000e+00 -4.4034541e-06 0.0000000e+00 
0.0000000e+00 -5.1516115e-05 0.0000000e+00 
0.0000000e+00 -8.2509840e-05 0.0000000e+00 
0.0000000e+00 -9.7384633e-05 0.0000000e+00 
0.0000000e+00 -9.6140480e-05 0.0000000e+00 
0.0000000e+00 -7.8777397e-05 0.0000000e+00 
0.0000000e+00 -4.5295379e-05 0.0000000e+00 
0.0000000e+00 4.3055807e-06 0.0000000e+00 
0.0000000e+00 7.0025475e-05 0.0000000e+00 
0.0000000e+00 1.5186431e-04 0.0000000e+00 
0.0000000e+00 3.0663927e-05 0.0000000e+00 
0.0000000e+00 -6.3051644e-05 0.0000000e+00 
0.0000000e+00 -1.2928239e-04 0.0000000e+00 
0.0000000e+00 -1.6802833e-04 0.0000000e+00 
0.0000000e+00 -1.7928945e-04 0.0000000e+00 
0.0000000e+00 -1.6306576e-04 0.0000000e+00 
0.0000000e+00 -1.1935725e-04 0.0000000e+00 
0.0000000e+00 -4.8163929e-05 0.0000000e+00 
0.0000000e+00 5.0514209e-05 0.0000000e+00 
0.0000000e+00 1.7667716e-04 0.0000000e+00 
0.0000000e+00 3.3032493e-04 0.0000000e+00 
0.0000000e+00 5.1145750e-04 0.0000000e+00 
0.0000000e+00 6.1842531e-04 0.0000000e+00 
0.0000000e+00 5.2955799e-04 0.0000000e+00 
0.0000000e+00 5.4646080e-04 0.0000000e+00 
0.0000000e+00 5.5760547e-04 0.0000000e+00 
0.0000000e+00 4.8945221e-04 0.0000000e+00 
0.0000000e+00 7.8911323e-04 0.0000000e+00 
0.0000000e+00 7.3227391e-04 0.0000000e+00 
0.0000000e+00 6.6118006e-04 0.0000000e+00 
0.0000000e+00 6.7470229e-04 0.0000000e+00 
0.0000000e+00 6.8361801e-04 0.0000000e+00 
0.0000000e+00 6.2909548e-04 0.0000000e+00 
0.0000000e+00 8.6882425e-04 0.0000000e+00 
0.0000000e+00 6.8776676e-04 0.0000000e+00 
0.0000000e+00 6.3444633e-04 0.0000000e+00 
0.0000000e+00 6.4458803e-04 0.0000000e+00 
0.0000000e+00 6.5127481e-04 0.0000000e+00 
0.0000000e+00 6.1038288e-04 0.0000000e+00 
0.0000000e+00 7.9017947e-04 0.0000000e+00 
0.0000000e+00 5.2449276e-04 0.0000000e+00 
0.0000000e+00 4.8894581e-04 0.0000000e+00 
0.0000000e+00 4.9570692e-04 0.0000000e+00 
0.0000000e+00 5.0016481e-04 0.0000000e+00 
0.0000000e+00 4.7290351e-04 0.0000000e+00 
0.0000000e+00 5.9276790e-04 0.0000000e+00 
0.0000000e+00 2.8204086e-04 0.0000000e+00 
0.0000000e+00 2.6426738e-04 0.0000000e+00 
0.0000000e+00 2.6764793e-04 0.0000000e+00 
0.0000000e+00 2.6987685e-04 0.0000000e+00 
0.0000000e+00 2.5624622e-04 0.0000000e+00 
0.0000000e+00 3.1617843e-04 0.0000000e+00 
0.0000000e+00 -1.1787248e-17 0.0000000e+00 
0.0000000e+00 8.1604031e-18 0.0000000e+00 
0.0000000e+00 3.6268458e-18 0.0000000e+00 
0.0000000e+00 2.0854363e-17 0.0000000e+00 
0.0000000e+00 1.2693960e-17 0.0000000e+00 
0.0000000e+00 6.7376194e-18 0.0000000e+00 
0.0000000e+00 -2.8204086e-04 0.0000000e+00 
0.0000000e+00 -2.6426738e-04 0.0000000e+00 
0.0000000e+00 -2.6764793e-04 0.0000000e+00 
0.0000000e+00 -2.6987685e-04 0.0000000e+00 
0.0000000e+00 -2.5624622e-04 0.0000000e+00 
0.0000000e+00 -3.1617843e-04 0.0000000e+00 
0.0000000e+00 -5.2449276e-04 0.0000000e+00 
0.0000000e+00 -4.8894581e-04 0.0000000e+00 
0.0000000e+00 -4.9570692e-04 0.0000000e+00 
0.0000000e+00 -5.0016481e-04 0.0000000e+00 
0.0000000e+00 -4.7290351e-04 0.0000000e+00 
0.0000000e+00 -5.9276790e-04 0.0000000e+00 
0.0000000e+00 -6.8776676e-04 0.0000000e+00 
0.0000000e+00 -6.3444633e-04 0.0000000e+00 
0.0000000e+00 -6.4458803e-04 0.0000000e+00 
0.0000000e+00 -6.5127481e-04 0.0000000e+00 
0.0000000e+00 -6.1038288e-04 0.0000000e+00 
0.0000000e+00 -7.9017947e-04 0.0000000e+00 
0.0000000e+00 -7.3227391e-04 0.0000000e+00 
0.0000000e+00 -6.6118006e-04 0.0000000e+00 
0.0000000e+00 -6.7470229e-04 0.0000000e+00 
0.0000000e+00 -6.8361801e-04 0.0000000e+00 
0.0000000e+00 -6.2909548e-04 0.0000000e+00 
0.0000000e+00 -8.6882425e-04 0.0000000e+00 
0.0000000e+00 -6.1842531e-04 0.0000000e+00 
0.0000000e+00 -5.2955799e-04 0.0000000e+00 
0.0000000e+00 -5.4646080e-04 0.0000000e+00 
0.0000000e+00 -5.5760547e-04 0.0000000e+00 
0.0000000e+00 -4.8945221e-04 0.0000000e+00 
0.0000000e+00 -7.8911323e-04 0.0000000e+00 
0.0000000e+00 1.5435746e-04 0.0000000e+00 
0.0000000e+00 1.5115614e-04 0.0000000e+00 
0.0000000e+00 1.4155220e-04 0.0000000e+00 
0.0000000e+00 1.2554562e-04 0.0000000e+00 
0.0000000e+00 1.0313641e-04 0.0000000e+00 
0.0000000e+00 7.4324569e-05 0.0000000e+00 
0.0000000e+00 3.9110091e-05 0.0000000e+00 
0.0000000e+00 -2.5070144e-06 0.0000000e+00 
0.0000000e+00 -5.0526753e-05 0.0000000e+00 
0.0000000e+00 -1.0494913e-04 0.0000000e+00 
0.0000000e+00 -1.6577412e-04 0.0000000e+00 
0.0000000e+00 -2.3300176e-04 0.0000000e+00 
0.0000000e+00 -3.0663202e-04 0.0000000e+00 
0.0000000e+00 -1.8203861e-04 0.0000000e+00 
0.0000000e+00 -7.8482779e-05 0.0000000e+00 
0.0000000e+00 4.0354766e-06 0.0000000e+00 
0.0000000e+00 6.5516157e-05 0.0000000e+00 
0.0000000e+00 1.0595925e-04 0.0000000e+00 
0.0000000e+00 1.2536478e-04 0.0000000e+00 
0.0000000e+00 1.2373272e-04 0.0000000e+00 
0.0000000e+00 1.0106309e-04 0.0000000e+00 
0.0000000e+00 5.7355879e-05 0.0000000e+00 
0.0000000e+00 -7.3889109e-06 0.0000000e+00 
0.0000000e+00 -9.3171278e-05 0.0000000e+00 
0.0000000e+00 -1.9999122e-04 0.0000000e+00 
0.0000000e+00 -1.0526461e-04 0.0000000e+00 
0.0000000e+00 -2.8068345e-05 0.0000000e+00 
0.0000000e+00 3.1597578e-05 0.0000000e+00 
0.0000000e+00 7.3733157e-05 0.0000000e+00 
0.0000000e+00 9.8338394e-05 0.0000000e+00 
0.0000000e+00 1.0541329e-04 0.0000000e+00 
0.0000000e+00 9.4957839e-05 0.0000000e+00 
0.0000000e+00 6.6972039e-05 0.0000000e+00 
0.0000000e+00 2.1455906e-05 0.0000000e+00 
0.0000000e+00 -4.1590574e-05 0.0000000e+00 
0.0000000e+00 -1.2216740e-04 0.0000000e+00 
0.0000000e+00 -2.2027457e-04 0.0000000e+00 
0.0000000e+00 -1.1745520e-04 0.0000000e+00 
0.0000000e+00 -3.3532895e-05 0.0000000e+00 
0.0000000e+00 3.1492353e-05 0.0000000e+00 
0.0000000e+00 7.7620534e-05 0.0000000e+00 
0.0000000e+00 1.0485166e-04 0.0000000e+00 
0.0000000e+00 1.1318573e-04 0.0000000e+00 
0.0000000e+00 1.0262273e-04 0.0000000e+00 
0.0000000e+00 7.3162671e-05 0.0000000e+00 
0.0000000e+00 2.4805557e-05 0.0000000e+00 
0.0000000e+00 -4.2448621e-05 0.0000000e+00 
0.0000000e+00 -1.2859986e-04 0.0000000e+00 
0.0000000e+00 -2.3364816e-04 0.0000000e+00 
0.0000000e+00 -1.3817869e-04 0.0000000e+00 
0.0000000e+00 -5.8828147e-05 0.0000000e+00 
0.0000000e+00 4.4034541e-06 0.0000000e+00 
0.0000000e+00 5.1516115e-05 0.0000000e+00 
0.0000000e+00 8.2509840e-05 0.0000000e+00 
0.0000000e+00 9.7384633e-05 0.0000000e+00 
0.0000000e+00 9.6140480e-05 0.0000000e+00 
0.0000000e+00 7.8777397e-05 0.0000000e+00 
0.0000000e+00 4.5295379e-05 0.0000000e+00 
0.0000000e+00 -4.3055807e-06 0.0000000e+00 
0.0000000e+00 -7.0025475e-05 0.0000000e+00 
0.0000000e+00 -1.5186431e-04 0.0000000e+00 
0.0000000e+00 -3.0663927e-05 0.0000000e+00 
0.0000000e+00 6.3051644e-05 0.0000000e+00 
0.0000000e+00 1.2928239e-04 0.0000000e+00 
0.0000000e+00 1.6802833e-04 0.0000000e+00 