# vtk DataFile Version 4.0
vtk output
ASCII
DATASET UNSTRUCTURED_GRID
POINTS 30 float
0.0000000e+00 0.0000000e+00 0.0000000e+00 
0.0000000e+00 0.0000000e+00 8.0000001e-01 
0.0000000e+00 0.0000000e+00 1.6000000e+00 
0.0000000e+00 0.0000000e+00 2.4000001e+00 
0.0000000e+00 0.0000000e+00 3.2000000e+00 
0.0000000e+00 0.0000000e+00 4.0000000e+00 
0.0000000e+00 0.0000000e+00 4.8000002e+00 
0.0000000e+00 0.0000000e+00 5.5999999e+00 
0.0000000e+00 0.0000000e+00 6.4000001e+00 
0.0000000e+00 0.0000000e+00 7.1999998e+00 
0.0000000e+00 0.0000000e+00 8.0000000e+00 
1.0000000e+01 0.0000000e+00 0.0000000e+00 
1.0000000e+01 0.0000000e+00 8.0000001e-01 
1.0000000e+01 0.0000000e+00 1.6000000e+00 
1.0000000e+01 0.0000000e+00 2.4000001e+00 
1.0000000e+01 0.0000000e+00 3.2000000e+00 
1.0000000e+01 0.0000000e+00 4.0000000e+00 
1.0000000e+01 0.0000000e+00 4.8000002e+00 
1.0000000e+01 0.0000000e+00 5.5999999e+00 
1.0000000e+01 0.0000000e+00 6.4000001e+00 
1.0000000e+01 0.0000000e+00 7.1999998e+00 
1.0000000e+01 0.0000000e+00 8.0000000e+00 
2.0000000e+00 0.0000000e+00 4.0000000e+00 
4.0000000e+00 0.0000000e+00 4.0000000e+00 
6.0000000e+00 0.0000000e+00 4.0000000e+00 
8.0000000e+00 0.0000000e+00 4.0000000e+00 
2.0000000e+00 0.0000000e+00 8.0000000e+00 
4.0000000e+00 0.0000000e+00 8.0000000e+00 
6.0000000e+00 0.0000000e+00 8.0000000e+00 
8.0000000e+00 0.0000000e+00 8.0000000e+00 

CELLS 30 90
2 0 1
2 1 2
2 2 3
2 3 4
2 4 5
2 5 6
2 6 7
2 7 8
2 8 9
2 9 10
2 11 12
2 12 13
2 13 14
2 14 15
2 15 16
2 16 17
2 17 18
2 18 19
2 19 20
2 20 21
2 5 22
2 22 23
2 23 24
2 24 25
2 25 16
2 10 26
2 26 27
2 27 28
2 28 29
2 29 21

CELL_TYPES 30
3
3
3
3
3
3
3
3
3
3
3
3
3
3
3
3
3
3
3
3
3
3
3
3
3
3
3
3
3
3
POINT_DATA 30
FIELD FieldData 7
DISPLACEMENT 3 30  float
0.0000000e+00 0.0000000e+00 0.0000000e+00 
1.5941864e-03 0.0000000e+00 1.0640973e-05 
3.2056770e-03 0.0000000e+00 2.1779693e-05 
4.7867461e-03 0.0000000e+00 3.4038338e-05 
6.2061893e-03 0.0000000e+00 4.3474211e-05 
7.2455779e-03 0.0000000e+00 5.2910083e-05 
8.0703916e-03 0.0000000e+00 5.3661941e-05 
8.9525236e-03 0.0000000e+00 5.3289325e-05 
9.8472703e-03 0.0000000e+00 5.3511081e-05 
1.0690877e-02 0.0000000e+00 5.3818541e-05 
1.1383192e-02 0.0000000e+00 5.5221648e-05 
0.0000000e+00 0.0000000e+00 0.0000000e+00 
1.7627375e-03 0.0000000e+00 1.6445550e-06 
3.4426004e-03 0.0000000e+00 3.2891101e-06 
4.9564899e-03 0.0000000e+00 6.7067863e-06 
6.2418440e-03 0.0000000e+00 1.2613855e-05 
7.3216166e-03 0.0000000e+00 1.8520925e-05 
8.3430968e-03 0.0000000e+00 2.5242025e-05 
9.3466109e-03 0.0000000e+00 3.1963125e-05 
1.0225534e-02 0.0000000e+00 3.6211022e-05 
1.0916765e-02 0.0000000e+00 3.7275033e-05 
1.1369862e-02 0.0000000e+00 3.7690508e-05 
7.2612530e-03 0.0000000e+00 -8.3235762e-05 
7.2810953e-03 0.0000000e+00 1.2724258e-03 
7.2946022e-03 0.0000000e+00 2.0646509e-03 
7.3081097e-03 0.0000000e+00 1.7287452e-03 
1.1377168e-02 0.0000000e+00 -8.4593374e-04 
1.1371144e-02 0.0000000e+00 -9.1732579e-04 
1.1369450e-02 0.0000000e+00 -5.8128347e-04 
1.1374275e-02 0.0000000e+00 -2.2320322e-05 
ROTATION 3 30  float
0.0000000e+00 1.9864170e-03 0.0000000e+00 
0.0000000e+00 2.0053652e-03 0.0000000e+00 
0.0000000e+00 2.0134104e-03 0.0000000e+00 
0.0000000e+00 1.9130921e-03 0.0000000e+00 
0.0000000e+00 1.5861427e-03 0.0000000e+00 
0.0000000e+00 9.6295617e-04 0.0000000e+00 
0.0000000e+00 1.0796248e-03 0.0000000e+00 
0.0000000e+00 1.1195922e-03 0.0000000e+00 
0.0000000e+00 1.1053015e-03 0.0000000e+00 
0.0000000e+00 9.7802549e-04 0.0000000e+00 
0.0000000e+00 7.4230426e-04 0.0000000e+00 
0.0000000e+00 2.2206875e-03 0.0000000e+00 
0.0000000e+00 2.1688908e-03 0.0000000e+00 
0.0000000e+00 2.0135010e-03 0.0000000e+00 
0.0000000e+00 1.7536763e-03 0.0000000e+00 
0.0000000e+00 1.4689567e-03 0.0000000e+00 
0.0000000e+00 1.2397231e-03 0.0000000e+00 
0.0000000e+00 1.2897996e-03 0.0000000e+00 
0.0000000e+00 1.1948078e-03 0.0000000e+00 
0.0000000e+00 9.9010544e-04 0.0000000e+00 
0.0000000e+00 7.3284731e-04 0.0000000e+00 
0.0000000e+00 3.6973823e-04 0.0000000e+00 
0.0000000e+00 -5.3877896e-04 0.0000000e+00 
0.0000000e+00 -6.3711387e-04 0.0000000e+00 
0.0000000e+00 -1.3459550e-04 0.0000000e+00 
0.0000000e+00 4.9101684e-04 0.0000000e+00 
0.0000000e+00 2.0099398e-04 0.0000000e+00 
0.0000000e+00 -8.7459048e-05 0.0000000e+00 
0.0000000e+00 -2.4813315e-04 0.0000000e+00 
0.0000000e+00 -2.6251652e-04 0.0000000e+00 
REACTION 3 30  float
1.8652294e+03 -0.0000000e+00 -2.7932557e+04 
5.4569682e-11 -0.0000000e+00 -0.0000000e+00 
1.1277734e-09 -0.0000000e+00 7.2759576e-12 
-6.4028427e-10 -0.0000000e+00 7.2759576e-12 
-1.5133992e-09 -0.0000000e+00 -2.9103830e-11 
-1.9863364e-09 -0.0000000e+00 -2.1464075e-10 
-1.1864358e-09 -0.0000000e+00 2.3646862e-11 
-3.8926373e-10 -0.0000000e+00 1.0913936e-10 
4.1827661e-09 -0.0000000e+00 -7.2759576e-11 
2.5465852e-10 -0.0000000e+00 1.6370905e-11 
1.8189894e-11 -0.0000000e+00 -2.3646862e-11 
-5.0987324e+03 -0.0000000e+00 -4.3169570e+03 
4.6566129e-10 -0.0000000e+00 -1.2732926e-11 
2.0008883e-10 -0.0000000e+00 7.2759576e-11 
-4.4565240e-11 -0.0000000e+00 -4.7293724e-11 
-1.3969839e-09 -0.0000000e+00 -8.0035534e-11 
-4.0672603e-09 -0.0000000e+00 -1.2332748e-09 
1.0477379e-09 -0.0000000e+00 -0.0000000e+00 
-5.6206773e-10 -0.0000000e+00 -1.0913936e-11 
8.7675289e-10 -0.0000000e+00 -5.2023097e-10 
2.3646862e-11 -0.0000000e+00 -1.2732926e-11 
2.7339411e-09 -0.0000000e+00 1.0786607e-09 
2.3646862e-10 -0.0000000e+00 8.5492502e-11 
1.2369128e-10 -0.0000000e+00 1.9281288e-10 
-0.0000000e+00 -0.0000000e+00 -3.9290171e-10 
2.7939677e-09 -0.0000000e+00 1.0913936e-11 
3.7252903e-09 -0.0000000e+00 7.2759576e-12 
-4.4101398e-09 -0.0000000e+00 1.4551915e-11 
2.0545485e-09 -0.0000000e+00 -8.2081897e-10 
-3.3978722e-09 -0.0000000e+00 -9.0949470e-13 
REACTION_MOMENT 3 30  float
-0.0000000e+00 1.4551915e-10 -0.0000000e+00 
-0.0000000e+00 5.8207661e-11 -0.0000000e+00 
-0.0000000e+00 9.0221874e-10 -0.0000000e+00 
-0.0000000e+00 -1.0186341e-10 -0.0000000e+00 
-0.0000000e+00 1.3096724e-10 -0.0000000e+00 
-0.0000000e+00 -1.1787051e-09 -0.0000000e+00 
-0.0000000e+00 9.3132257e-10 -0.0000000e+00 
-0.0000000e+00 -1.9936124e-09 -0.0000000e+00 
-0.0000000e+00 -8.0035534e-10 -0.0000000e+00 
-0.0000000e+00 -1.3897079e-09 -0.0000000e+00 
-0.0000000e+00 -4.5838533e-10 -0.0000000e+00 
-0.0000000e+00 -8.7311491e-11 -0.0000000e+00 
-0.0000000e+00 -5.8207661e-11 -0.0000000e+00 
-0.0000000e+00 2.9103830e-11 -0.0000000e+00 
-0.0000000e+00 -1.3096724e-10 -0.0000000e+00 
-0.0000000e+00 -5.8207661e-11 -0.0000000e+00 
-0.0000000e+00 -6.5483619e-11 -0.0000000e+00 
-0.0000000e+00 4.3655746e-11 -0.0000000e+00 
-0.0000000e+00 -4.9476512e-10 -0.0000000e+00 
-0.0000000e+00 -4.8021320e-10 -0.0000000e+00 
-0.0000000e+00 4.6202331e-10 -0.0000000e+00 
-0.0000000e+00 -3.4924597e-10 -0.0000000e+00 
-0.0000000e+00 6.5483619e-11 -0.0000000e+00 
-0.0000000e+00 7.2759576e-12 -0.0000000e+00 
-0.0000000e+00 -1.3642421e-10 -0.0000000e+00 
-0.0000000e+00 -1.0913936e-11 -0.0000000e+00 
-0.0000000e+00 2.2737368e-11 -0.0000000e+00 
-0.0000000e+00 -1.8189894e-12 -0.0000000e+00 
-0.0000000e+00 1.8189894e-12 -0.0000000e+00 
-0.0000000e+00 5.4569682e-12 -0.0000000e+00 
VOLUME_ACCELERATION 3 30  float
0.0000000e+00 0.0000000e+00 0.0000000e+00 
0.0000000e+00 0.0000000e+00 0.0000000e+00 
0.0000000e+00 0.0000000e+00 0.0000000e+00 
0.0000000e+00 0.0000000e+00 0.0000000e+00 
0.0000000e+00 0.0000000e+00 0.0000000e+00 
0.0000000e+00 0.0000000e+00 0.0000000e+00 
0.0000000e+00 0.0000000e+00 0.0000000e+00 
0.0000000e+00 0.0000000e+00 0.0000000e+00 
0.0000000e+00 0.0000000e+00 0.0000000e+00 
0.0000000e+00 0.0000000e+00 0.0000000e+00 
0.0000000e+00 0.0000000e+00 0.0000000e+00 
0.0000000e+00 0.0000000e+00 0.0000000e+00 
0.0000000e+00 0.0000000e+00 0.0000000e+00 
0.0000000e+00 0.0000000e+00 0.0000000e+00 
0.0000000e+00 0.0000000e+00 0.0000000e+00 
0.0000000e+00 0.0000000e+00 0.0000000e+00 
0.0000000e+00 0.0000000e+00 0.0000000e+00 
0.0000000e+00 0.0000000e+00 0.0000000e+00 
0.0000000e+00 0.0000000e+00 0.0000000e+00 
0.0000000e+00 0.0000000e+00 0.0000000e+00 
0.0000000e+00 0.0000000e+00 0.0000000e+00 
0.0000000e+00 0.0000000e+00 0.0000000e+00 
0.0000000e+00 0.0000000e+00 0.0000000e+00 
0.0000000e+00 0.0000000e+00 0.0000000e+00 
0.0000000e+00 0.0000000e+00 0.0000000e+00 
0.0000000e+00 0.0000000e+00 0.0000000e+00 
0.0000000e+00 0.0000000e+00 0.0000000e+00 
0.0000000e+00 0.0000000e+00 0.0000000e+00 
0.0000000e+00 0.0000000e+00 0.0000000e+00 
0.0000000e+00 0.0000000e+00 0.0000000e+00 
POINT_LOAD 3 30  float
0.0000000e+00 0.0000000e+00 0.0000000e+00 
-4.8037314e+03 0.0000000e+00 -1.3065839e+03 
-4.7900537e+03 0.0000000e+00 -2.9398008e+03 
-6.8518667e+03 0.0000000e+00 7.4097754e+03 
0.0000000e+00 0.0000000e+00 0.0000000e+00 
-7.6230659e+03 0.0000000e+00 9.1860566e+03 
3.9389355e+03 0.0000000e+00 2.9517427e+03 
-1.7296859e+03 0.0000000e+00 -1.5602211e+03 
-4.0512908e+03 0.0000000e+00 -2.2497878e+02 
4.4982305e+03 0.0000000e+00 -2.8760745e+03 
9.4136426e+03 0.0000000e+00 1.6919086e+03 
0.0000000e+00 0.0000000e+00 0.0000000e+00 
0.0000000e+00 0.0000000e+00 0.0000000e+00 
-8.2820854e+01 0.0000000e+00 -4.6544434e+03 
7.9125039e+03 0.0000000e+00 -6.5346548e+03 
0.0000000e+00 0.0000000e+00 0.0000000e+00 
4.3115122e+03 0.0000000e+00 -1.1674698e+03 
0.0000000e+00 0.0000000e+00 0.0000000e+00 
3.4805227e+03 0.0000000e+00 6.4921611e+03 
2.1456680e+03 0.0000000e+00 8.3577021e+03 
-7.3919316e+03 0.0000000e+00 1.7023984e+03 
4.2719634e+03 0.0000000e+00 8.9923652e+03 
-4.3752334e+03 0.0000000e+00 5.1154072e+03 
6.6515723e+03 0.0000000e+00 7.5247085e+03 
0.0000000e+00 0.0000000e+00 0.0000000e+00 
0.0000000e+00 0.0000000e+00 0.0000000e+00 
0.0000000e+00 0.0000000e+00 0.0000000e+00 
-4.5464263e+03 0.0000000e+00 1.9699836e+03 
-6.8453901e+03 0.0000000e+00 -2.2615452e+03 
9.7004482e+03 0.0000000e+00 -5.6189253e+03 
POINT_MOMENT 3 30  float
0.0000000e+00 0.0000000e+00 0.0000000e+00 
0.0000000e+00 0.0000000e+00 0.0000000e+00 
0.0000000e+00 0.0000000e+00 0.0000000e+00 
0.0000000e+00 0.0000000e+00 0.0000000e+00 
0.0000000e+00 0.0000000e+00 0.0000000e+00 
0.0000000e+00 0.0000000e+00 0.0000000e+00 
0.0000000e+00 0.0000000e+00 0.0000000e+00 
0.0000000e+00 0.0000000e+00 0.0000000e+00 
0.0000000e+00 0.0000000e+00 0.0000000e+00 
0.0000000e+00 0.0000000e+00 0.0000000e+00 
0.0000000e+00 0.0000000e+00 0.0000000e+00 
0.0000000e+00 0.0000000e+00 0.0000000e+00 
0.0000000e+00 0.0000000e+00 0.0000000e+00 
0.0000000e+00 0.0000000e+00 0.0000000e+00 
0.0000000e+00 0.0000000e+00 0.0000000e+00 
0.0000000e+00 0.0000000e+00 0.0000000e+00 
0.0000000e+00 0.0000000e+00 0.0000000e+00 
0.0000000e+00 0.0000000e+00 0.0000000e+00 
0.0000000e+00 0.0000000e+00 0.0000000e+00 
0.0000000e+00 0.0000000e+00 0.0000000e+00 
0.0000000e+00 0.0000000e+00 0.0000000e+00 
0.0000000e+00 0.0000000e+00 0.0000000e+00 
0.0000000e+00 0.0000000e+00 0.0000000e+00 
0.0000000e+00 0.0000000e+00 0.0000000e+00 
0.0000000e+00 0.0000000e+00 0.0000000e+00 
0.0000000e+00 0.0000000e+00 0.0000000e+00 
0.0000000e+00 0.0000000e+00 0.0000000e+00 
0.0000000e+00 0.0000000e+00 0.0000000e+00 
0.0000000e+00 0.0000000e+00 0.0000000e+00 
0.0000000e+00 0.0000000e+00 0.0000000e+00 
CELL_DATA 30
FIELD FieldData 9
YOUNG_MODULUS 1 30  float
2.1000000e+11
2.1000000e+11
2.1000000e+11
2.1000000e+11
2.1000000e+11
2.1000000e+11
2.1000000e+11
2.1000000e+11
2.1000000e+11
2.1000000e+11
2.1000000e+11
2.1000000e+11
2.1000000e+11
2.1000000e+11
2.1000000e+11
2.1000000e+11
2.1000000e+11
2.1000000e+11
2.1000000e+11
2.1000000e+11
2.1000000e+11
2.1000000e+11
2.1000000e+11
2.1000000e+11
2.1000000e+11
2.1000000e+11
2.1000000e+11
2.1000000e+11
2.1000000e+11
2.1000000e+11
DENSITY 1 30  float
7.8500000e+03
7.8500000e+03
7.8500000e+03
7.8500000e+03
7.8500000e+03
7.8500000e+03
7.8500000e+03
7.8500000e+03
7.8500000e+03
7.8500000e+03
7.8500000e+03
7.8500000e+03
7.8500000e+03
7.8500000e+03
7.8500000e+03
7.8500000e+03
7.8500000e+03
7.8500000e+03
7.8500000e+03
7.8500000e+03
7.8500000e+03
7.8500000e+03
7.8500000e+03
7.8500000e+03
7.8500000e+03
7.8500000e+03
7.8500000e+03
7.8500000e+03
7.8500000e+03
7.8500000e+03
CROSS_AREA 1 30  float
9.9999998e-03
9.9999998e-03
9.9999998e-03
9.9999998e-03
9.9999998e-03
9.9999998e-03
9.9999998e-03
9.9999998e-03
9.9999998e-03
9.9999998e-03
9.9999998e-03
9.9999998e-03
9.9999998e-03
9.9999998e-03
9.9999998e-03
9.9999998e-03
9.9999998e-03
9.9999998e-03
9.9999998e-03
9.9999998e-03
9.9999998e-03
9.9999998e-03
9.9999998e-03
9.9999998e-03
9.9999998e-03
9.9999998e-03
9.9999998e-03
9.9999998e-03
9.9999998e-03
9.9999998e-03
I22 1 30  float
1.5000001e-04
1.5000001e-04
1.5000001e-04
1.5000001e-04
1.5000001e-04
1.5000001e-04
1.5000001e-04
1.5000001e-04
1.5000001e-04
1.5000001e-04
1.5000001e-04
1.5000001e-04
1.5000001e-04
1.5000001e-04
1.5000001e-04
1.5000001e-04
1.5000001e-04
1.5000001e-04
1.5000001e-04
1.5000001e-04
1.5000001e-04
1.5000001e-04
1.5000001e-04
1.5000001e-04
1.5000001e-04
1.5000001e-04
1.5000001e-04
1.5000001e-04
1.5000001e-04
1.5000001e-04
I33 1 30  float
1.5000001e-04
1.5000001e-04
1.5000001e-04
1.5000001e-04
1.5000001e-04
1.5000001e-04
1.5000001e-04
1.5000001e-04
1.5000001e-04
1.5000001e-04
1.5000001e-04
1.5000001e-04
1.5000001e-04
1.5000001e-04
1.5000001e-04
1.5000001e-04
1.5000001e-04
1.5000001e-04
1.5000001e-04
1.5000001e-04
1.5000001e-04
1.5000001e-04
1.5000001e-04
1.5000001e-04
1.5000001e-04
1.5000001e-04
1.5000001e-04
1.5000001e-04
1.5000001e-04
1.5000001e-04
TORSIONAL_INERTIA 1 30  float
3.0000001e-04
3.0000001e-04
3.0000001e-04
3.0000001e-04
3.0000001e-04
3.0000001e-04
3.0000001e-04
3.0000001e-04
3.0000001e-04
3.0000001e-04
3.0000001e-04
3.0000001e-04
3.0000001e-04
3.0000001e-04
3.0000001e-04
3.0000001e-04
3.0000001e-04
3.0000001e-04
3.0000001e-04
3.0000001e-04
3.0000001e-04
3.0000001e-04
3.0000001e-04
3.0000001e-04
3.0000001e-04
3.0000001e-04
3.0000001e-04
3.0000001e-04
3.0000001e-04
3.0000001e-04
POISSON_RATIO 1 30  float
3.0000001e-01
3.0000001e-01
3.0000001e-01
3.0000001e-01
3.0000001e-01
3.0000001e-01
3.0000001e-01
3.0000001e-01
3.0000001e-01
3.0000001e-01
3.0000001e-01
3.0000001e-01
3.0000001e-01
3.0000001e-01
3.0000001e-01
3.0000001e-01
3.0000001e-01
3.0000001e-01
3.0000001e-01
3.0000001e-01
3.0000001e-01
3.0000001e-01
3.0000001e-01
3.0000001e-01
3.0000001e-01
3.0000001e-01
3.0000001e-01
3.0000001e-01
3.0000001e-01
3.0000001e-01
MOMENT 3 30  float
0.0000000e+00 7.4609174e+02 0.0000000e+00 
0.0000000e+00 3.1678268e+02 0.0000000e+00 
0.0000000e+00 -3.9500405e+03 0.0000000e+00 
0.0000000e+00 -1.2873632e+04 0.0000000e+00 
0.0000000e+00 -2.4537971e+04 0.0000000e+00 
0.0000000e+00 4.5938271e+03 0.0000000e+00 
0.0000000e+00 1.5737166e+03 0.0000000e+00 
0.0000000e+00 -5.6269421e+02 0.0000000e+00 
0.0000000e+00 -5.0114956e+03 0.0000000e+00 
0.0000000e+00 -9.2815215e+03 0.0000000e+00 
0.0000000e+00 -2.0394930e+03 0.0000000e+00 
0.0000000e+00 -6.1184790e+03 0.0000000e+00 
0.0000000e+00 -1.0230594e+04 0.0000000e+00 
0.0000000e+00 -1.1210834e+04 0.0000000e+00 
0.0000000e+00 -9.0260742e+03 0.0000000e+00 
0.0000000e+00 1.9717627e+03 0.0000000e+00 
0.0000000e+00 -3.7403018e+03 0.0000000e+00 
0.0000000e+00 -8.0601572e+03 0.0000000e+00 
0.0000000e+00 -1.0129536e+04 0.0000000e+00 
0.0000000e+00 -1.4297421e+04 0.0000000e+00 
0.0000000e+00 -2.3652328e+04 0.0000000e+00 
0.0000000e+00 -1.5487743e+03 0.0000000e+00 
0.0000000e+00 7.9146641e+03 0.0000000e+00 
0.0000000e+00 9.8533936e+03 0.0000000e+00 
0.0000000e+00 1.1792124e+04 0.0000000e+00 
0.0000000e+00 -8.5256367e+03 0.0000000e+00 
0.0000000e+00 -4.5431353e+03 0.0000000e+00 
0.0000000e+00 -2.5306172e+03 0.0000000e+00 
0.0000000e+00 -2.2653780e+02 0.0000000e+00 
0.0000000e+00 9.9580117e+03 0.0000000e+00 
FORCE 3 30  float
2.7932557e+04 0.0000000e+00 1.8652294e+03 
2.9239139e+04 0.0000000e+00 -2.9385022e+03 
3.2178939e+04 0.0000000e+00 -7.7285557e+03 
2.4769166e+04 0.0000000e+00 -1.4580423e+04 
2.4769166e+04 0.0000000e+00 -1.4580423e+04 
1.9736278e+03 0.0000000e+00 -5.7446060e+03 
-9.7811481e+02 0.0000000e+00 -1.8056704e+03 
5.8210626e+02 0.0000000e+00 -3.5353564e+03 
8.0708502e+02 0.0000000e+00 -7.5866475e+03 
3.6831594e+03 0.0000000e+00 -3.0884167e+03 
4.3169570e+03 0.0000000e+00 -5.0987324e+03 
4.3169570e+03 0.0000000e+00 -5.0987324e+03 
8.9714004e+03 0.0000000e+00 -5.1815532e+03 
1.5506056e+04 0.0000000e+00 2.7309507e+03 
1.5506056e+04 0.0000000e+00 2.7309507e+03 
1.7642891e+04 0.0000000e+00 -7.1400806e+03 
1.7642891e+04 0.0000000e+00 -7.1400806e+03 
1.1150729e+04 0.0000000e+00 -3.6595579e+03 
2.7930261e+03 0.0000000e+00 -1.5138899e+03 
1.0906277e+03 0.0000000e+00 -8.9058213e+03 
1.6458883e+04 0.0000000e+00 1.3609480e+04 
2.0834115e+04 0.0000000e+00 8.4940732e+03 
1.4182544e+04 0.0000000e+00 9.6936493e+02 
1.4182544e+04 0.0000000e+00 9.6936493e+02 
1.4182544e+04 0.0000000e+00 9.6936493e+02 
-6.3252261e+03 0.0000000e+00 1.9912509e+03 
-6.3252261e+03 0.0000000e+00 1.9912509e+03 
-1.7787994e+03 0.0000000e+00 2.1267189e+01 
5.0665908e+03 0.0000000e+00 2.2828123e+03 
-4.6338579e+03 0.0000000e+00 7.9017378e+03 
