# vtk DataFile Version 4.0
vtk output
ASCII
DATASET UNSTRUCTURED_GRID
POINTS 9 float
0.0000000e+00 0.0000000e+00 0.0000000e+00 
5.0000000e-01 0.0000000e+00 0.0000000e+00 
1.0000000e+00 0.0000000e+00 0.0000000e+00 
1.5000000e+00 0.0000000e+00 0.0000000e+00 
2.0000000e+00 0.0000000e+00 0.0000000e+00 
2.5000000e+00 0.0000000e+00 0.0000000e+00 
3.0000000e+00 0.0000000e+00 0.0000000e+00 
3.5000000e+00 0.0000000e+00 0.0000000e+00 
4.0000000e+00 0.0000000e+00 0.0000000e+00 

CELLS 8 24
2 0 1
2 1 2
2 2 3
2 3 4
2 4 5
2 5 6
2 6 7
2 7 8

CELL_TYPES 8
3
3
3
3
3
3
3
3
POINT_DATA 9
FIELD FieldData 3
ADJOINT_DISPLACEMENT 3 9  float
0.0000000e+00 0.0000000e+00 0.0000000e+00 
0.0000000e+00 0.0000000e+00 3.1250000e-02 
0.0000000e+00 0.0000000e+00 1.2500000e-01 
0.0000000e+00 0.0000000e+00 2.8125000e-01 
0.0000000e+00 0.0000000e+00 5.0000000e-01 
0.0000000e+00 0.0000000e+00 2.8125000e-01 
0.0000000e+00 0.0000000e+00 1.2500000e-01 
0.0000000e+00 0.0000000e+00 3.1250000e-02 
0.0000000e+00 0.0000000e+00 0.0000000e+00 
ADJOINT_ROTATION 3 9  float
0.0000000e+00 0.0000000e+00 0.0000000e+00 
0.0000000e+00 -1.2500000e-01 0.0000000e+00 
0.0000000e+00 -2.5000000e-01 0.0000000e+00 
0.0000000e+00 -3.7500000e-01 0.0000000e+00 
0.0000000e+00 -5.0000000e-01 0.0000000e+00 
0.0000000e+00 3.7500000e-01 0.0000000e+00 
0.0000000e+00 2.5000000e-01 0.0000000e+00 
0.0000000e+00 1.2500000e-01 0.0000000e+00 
0.0000000e+00 0.0000000e+00 0.0000000e+00 
SHAPE_SENSITIVITY 3 9  float
0.0000000e+00 0.0000000e+00 0.0000000e+00 
0.0000000e+00 0.0000000e+00 0.0000000e+00 
0.0000000e+00 0.0000000e+00 0.0000000e+00 
0.0000000e+00 0.0000000e+00 0.0000000e+00 
0.0000000e+00 0.0000000e+00 0.0000000e+00 
0.0000000e+00 0.0000000e+00 0.0000000e+00 
0.0000000e+00 0.0000000e+00 0.0000000e+00 
0.0000000e+00 0.0000000e+00 0.0000000e+00 
0.0000000e+00 0.0000000e+00 0.0000000e+00 
CELL_DATA 8
FIELD FieldData 1
I22_SENSITIVITY 1 8  float
4.3750000e+00
6.2500000e-01
-1.8750000e+00
-3.1250000e+00
-3.1250000e+00
-1.8750000e+00
6.2500000e-01
4.3750000e+00
