# vtk DataFile Version 4.0
vtk output
ASCII
DATASET UNSTRUCTURED_GRID
POINTS 212 float
0.0000000e+00 0.0000000e+00 0.0000000e+00 
0.0000000e+00 0.0000000e+00 2.5000000e-01 
0.0000000e+00 0.0000000e+00 5.0000000e-01 
0.0000000e+00 0.0000000e+00 7.5000000e-01 
0.0000000e+00 0.0000000e+00 1.0000000e+00 
0.0000000e+00 0.0000000e+00 1.2500000e+00 
0.0000000e+00 0.0000000e+00 1.5000000e+00 
0.0000000e+00 0.0000000e+00 1.7500000e+00 
0.0000000e+00 0.0000000e+00 2.0000000e+00 
0.0000000e+00 0.0000000e+00 2.2500000e+00 
0.0000000e+00 0.0000000e+00 2.5000000e+00 
0.0000000e+00 0.0000000e+00 2.7500000e+00 
0.0000000e+00 0.0000000e+00 3.0000000e+00 
0.0000000e+00 0.0000000e+00 3.2500000e+00 
0.0000000e+00 0.0000000e+00 3.5000000e+00 
0.0000000e+00 0.0000000e+00 3.7500000e+00 
0.0000000e+00 0.0000000e+00 4.0000000e+00 
0.0000000e+00 0.0000000e+00 4.2500000e+00 
0.0000000e+00 0.0000000e+00 4.5000000e+00 
0.0000000e+00 0.0000000e+00 4.7500000e+00 
0.0000000e+00 0.0000000e+00 5.0000000e+00 
0.0000000e+00 0.0000000e+00 5.2500000e+00 
0.0000000e+00 0.0000000e+00 5.5000000e+00 
0.0000000e+00 0.0000000e+00 5.7500000e+00 
0.0000000e+00 0.0000000e+00 6.0000000e+00 
0.0000000e+00 0.0000000e+00 6.2500000e+00 
0.0000000e+00 0.0000000e+00 6.5000000e+00 
0.0000000e+00 0.0000000e+00 6.7500000e+00 
0.0000000e+00 0.0000000e+00 7.0000000e+00 
0.0000000e+00 0.0000000e+00 7.2500000e+00 
0.0000000e+00 0.0000000e+00 7.5000000e+00 
0.0000000e+00 0.0000000e+00 7.7500000e+00 
0.0000000e+00 0.0000000e+00 8.0000000e+00 
0.0000000e+00 0.0000000e+00 8.2500000e+00 
0.0000000e+00 0.0000000e+00 8.5000000e+00 
0.0000000e+00 0.0000000e+00 8.7500000e+00 
0.0000000e+00 0.0000000e+00 9.0000000e+00 
0.0000000e+00 0.0000000e+00 9.2500000e+00 
0.0000000e+00 0.0000000e+00 9.5000000e+00 
0.0000000e+00 0.0000000e+00 9.7500000e+00 
0.0000000e+00 0.0000000e+00 1.0000000e+01 
0.0000000e+00 0.0000000e+00 1.0250000e+01 
0.0000000e+00 0.0000000e+00 1.0500000e+01 
0.0000000e+00 0.0000000e+00 1.0750000e+01 
0.0000000e+00 0.0000000e+00 1.1000000e+01 
0.0000000e+00 0.0000000e+00 1.1250000e+01 
0.0000000e+00 0.0000000e+00 1.1500000e+01 
0.0000000e+00 0.0000000e+00 1.1750000e+01 
0.0000000e+00 0.0000000e+00 1.2000000e+01 
0.0000000e+00 0.0000000e+00 1.2250000e+01 
0.0000000e+00 0.0000000e+00 1.2500000e+01 
0.0000000e+00 0.0000000e+00 1.2750000e+01 
0.0000000e+00 0.0000000e+00 1.3000000e+01 
0.0000000e+00 0.0000000e+00 1.3250000e+01 
0.0000000e+00 0.0000000e+00 1.3500000e+01 
0.0000000e+00 0.0000000e+00 1.3750000e+01 
0.0000000e+00 0.0000000e+00 1.4000000e+01 
0.0000000e+00 0.0000000e+00 1.4250000e+01 
0.0000000e+00 0.0000000e+00 1.4500000e+01 
0.0000000e+00 0.0000000e+00 1.4750000e+01 
0.0000000e+00 0.0000000e+00 1.5000000e+01 
0.0000000e+00 0.0000000e+00 1.5250000e+01 
0.0000000e+00 0.0000000e+00 1.5500000e+01 
0.0000000e+00 0.0000000e+00 1.5750000e+01 
0.0000000e+00 0.0000000e+00 1.6000000e+01 
0.0000000e+00 0.0000000e+00 1.6250000e+01 
0.0000000e+00 0.0000000e+00 1.6500000e+01 
0.0000000e+00 0.0000000e+00 1.6750000e+01 
0.0000000e+00 0.0000000e+00 1.7000000e+01 
0.0000000e+00 0.0000000e+00 1.7250000e+01 
0.0000000e+00 0.0000000e+00 1.7500000e+01 
0.0000000e+00 0.0000000e+00 1.7750000e+01 
0.0000000e+00 0.0000000e+00 1.8000000e+01 
5.0000000e-01 0.0000000e+00 3.0000000e+00 
5.0000000e-01 0.0000000e+00 6.0000000e+00 
5.0000000e-01 0.0000000e+00 9.0000000e+00 
5.0000000e-01 0.0000000e+00 1.2000000e+01 
5.0000000e-01 0.0000000e+00 1.5000000e+01 
5.0000000e-01 0.0000000e+00 1.8000000e+01 
1.0000000e+00 0.0000000e+00 3.0000000e+00 
1.0000000e+00 0.0000000e+00 6.0000000e+00 
1.0000000e+00 0.0000000e+00 9.0000000e+00 
1.0000000e+00 0.0000000e+00 1.2000000e+01 
1.0000000e+00 0.0000000e+00 1.5000000e+01 
1.0000000e+00 0.0000000e+00 1.8000000e+01 
1.5000000e+00 0.0000000e+00 3.0000000e+00 
1.5000000e+00 0.0000000e+00 6.0000000e+00 
1.5000000e+00 0.0000000e+00 9.0000000e+00 
1.5000000e+00 0.0000000e+00 1.2000000e+01 
1.5000000e+00 0.0000000e+00 1.5000000e+01 
1.5000000e+00 0.0000000e+00 1.8000000e+01 
2.0000000e+00 0.0000000e+00 3.0000000e+00 
2.0000000e+00 0.0000000e+00 6.0000000e+00 
2.0000000e+00 0.0000000e+00 9.0000000e+00 
2.0000000e+00 0.0000000e+00 1.2000000e+01 
2.0000000e+00 0.0000000e+00 1.5000000e+01 
2.0000000e+00 0.0000000e+00 1.8000000e+01 
2.5000000e+00 0.0000000e+00 3.0000000e+00 
2.5000000e+00 0.0000000e+00 6.0000000e+00 
2.5000000e+00 0.0000000e+00 9.0000000e+00 
2.5000000e+00 0.0000000e+00 1.2000000e+01 
2.5000000e+00 0.0000000e+00 1.5000000e+01 
2.5000000e+00 0.0000000e+00 1.8000000e+01 
3.0000000e+00 0.0000000e+00 3.0000000e+00 
3.0000000e+00 0.0000000e+00 6.0000000e+00 
3.0000000e+00 0.0000000e+00 9.0000000e+00 
3.0000000e+00 0.0000000e+00 1.2000000e+01 
3.0000000e+00 0.0000000e+00 1.5000000e+01 
3.0000000e+00 0.0000000e+00 1.8000000e+01 
3.5000000e+00 0.0000000e+00 3.0000000e+00 
3.5000000e+00 0.0000000e+00 6.0000000e+00 
3.5000000e+00 0.0000000e+00 9.0000000e+00 
3.5000000e+00 0.0000000e+00 1.2000000e+01 
3.5000000e+00 0.0000000e+00 1.5000000e+01 
3.5000000e+00 0.0000000e+00 1.8000000e+01 
4.0000000e+00 0.0000000e+00 3.0000000e+00 
4.0000000e+00 0.0000000e+00 6.0000000e+00 
4.0000000e+00 0.0000000e+00 9.0000000e+00 
4.0000000e+00 0.0000000e+00 1.2000000e+01 
4.0000000e+00 0.0000000e+00 1.5000000e+01 
4.0000000e+00 0.0000000e+00 1.8000000e+01 
4.5000000e+00 0.0000000e+00 3.0000000e+00 
4.5000000e+00 0.0000000e+00 6.0000000e+00 
4.5000000e+00 0.0000000e+00 9.0000000e+00 
4.5000000e+00 0.0000000e+00 1.2000000e+01 
4.5000000e+00 0.0000000e+00 1.5000000e+01 
4.5000000e+00 0.0000000e+00 1.8000000e+01 
5.0000000e+00 0.0000000e+00 3.0000000e+00 
5.0000000e+00 0.0000000e+00 6.0000000e+00 
5.0000000e+00 0.0000000e+00 9.0000000e+00 
5.0000000e+00 0.0000000e+00 1.2000000e+01 
5.0000000e+00 0.0000000e+00 1.5000000e+01 
5.0000000e+00 0.0000000e+00 1.8000000e+01 
5.5000000e+00 0.0000000e+00 3.0000000e+00 
5.5000000e+00 0.0000000e+00 6.0000000e+00 
5.5000000e+00 0.0000000e+00 9.0000000e+00 
5.5000000e+00 0.0000000e+00 1.2000000e+01 
5.5000000e+00 0.0000000e+00 1.5000000e+01 
5.5000000e+00 0.0000000e+00 1.8000000e+01 
6.0000000e+00 0.0000000e+00 0.0000000e+00 
6.0000000e+00 0.0000000e+00 2.5000000e-01 
6.0000000e+00 0.0000000e+00 5.0000000e-01 
6.0000000e+00 0.0000000e+00 7.5000000e-01 
6.0000000e+00 0.0000000e+00 1.0000000e+00 
6.0000000e+00 0.0000000e+00 1.2500000e+00 
6.0000000e+00 0.0000000e+00 1.5000000e+00 
6.0000000e+00 0.0000000e+00 1.7500000e+00 
6.0000000e+00 0.0000000e+00 2.0000000e+00 
6.0000000e+00 0.0000000e+00 2.2500000e+00 
6.0000000e+00 0.0000000e+00 2.5000000e+00 
6.0000000e+00 0.0000000e+00 2.7500000e+00 
6.0000000e+00 0.0000000e+00 3.0000000e+00 
6.0000000e+00 0.0000000e+00 3.2500000e+00 
6.0000000e+00 0.0000000e+00 3.5000000e+00 
6.0000000e+00 0.0000000e+00 3.7500000e+00 
6.0000000e+00 0.0000000e+00 4.0000000e+00 
6.0000000e+00 0.0000000e+00 4.2500000e+00 
6.0000000e+00 0.0000000e+00 4.5000000e+00 
6.0000000e+00 0.0000000e+00 4.7500000e+00 
6.0000000e+00 0.0000000e+00 5.0000000e+00 
6.0000000e+00 0.0000000e+00 5.2500000e+00 
6.0000000e+00 0.0000000e+00 5.5000000e+00 
6.0000000e+00 0.0000000e+00 5.7500000e+00 
6.0000000e+00 0.0000000e+00 6.0000000e+00 
6.0000000e+00 0.0000000e+00 6.2500000e+00 
6.0000000e+00 0.0000000e+00 6.5000000e+00 
6.0000000e+00 0.0000000e+00 6.7500000e+00 
6.0000000e+00 0.0000000e+00 7.0000000e+00 
6.0000000e+00 0.0000000e+00 7.2500000e+00 
6.0000000e+00 0.0000000e+00 7.5000000e+00 
6.0000000e+00 0.0000000e+00 7.7500000e+00 
6.0000000e+00 0.0000000e+00 8.0000000e+00 
6.0000000e+00 0.0000000e+00 8.2500000e+00 
6.0000000e+00 0.0000000e+00 8.5000000e+00 
6.0000000e+00 0.0000000e+00 8.7500000e+00 
6.0000000e+00 0.0000000e+00 9.0000000e+00 
6.0000000e+00 0.0000000e+00 9.2500000e+00 
6.0000000e+00 0.0000000e+00 9.5000000e+00 
6.0000000e+00 0.0000000e+00 9.7500000e+00 
6.0000000e+00 0.0000000e+00 1.0000000e+01 
6.0000000e+00 0.0000000e+00 1.0250000e+01 
6.0000000e+00 0.0000000e+00 1.0500000e+01 
6.0000000e+00 0.0000000e+00 1.0750000e+01 
6.0000000e+00 0.0000000e+00 1.1000000e+01 
6.0000000e+00 0.0000000e+00 1.1250000e+01 
6.0000000e+00 0.0000000e+00 1.1500000e+01 
6.0000000e+00 0.0000000e+00 1.1750000e+01 
6.0000000e+00 0.0000000e+00 1.2000000e+01 
6.0000000e+00 0.0000000e+00 1.2250000e+01 
6.0000000e+00 0.0000000e+00 1.2500000e+01 
6.0000000e+00 0.0000000e+00 1.2750000e+01 
6.0000000e+00 0.0000000e+00 1.3000000e+01 
6.0000000e+00 0.0000000e+00 1.3250000e+01 
6.0000000e+00 0.0000000e+00 1.3500000e+01 
6.0000000e+00 0.0000000e+00 1.3750000e+01 
6.0000000e+00 0.0000000e+00 1.4000000e+01 
6.0000000e+00 0.0000000e+00 1.4250000e+01 
6.0000000e+00 0.0000000e+00 1.4500000e+01 
6.0000000e+00 0.0000000e+00 1.4750000e+01 
6.0000000e+00 0.0000000e+00 1.5000000e+01 
6.0000000e+00 0.0000000e+00 1.5250000e+01 
6.0000000e+00 0.0000000e+00 1.5500000e+01 
6.0000000e+00 0.0000000e+00 1.5750000e+01 
6.0000000e+00 0.0000000e+00 1.6000000e+01 
6.0000000e+00 0.0000000e+00 1.6250000e+01 
6.0000000e+00 0.0000000e+00 1.6500000e+01 
6.0000000e+00 0.0000000e+00 1.6750000e+01 
6.0000000e+00 0.0000000e+00 1.7000000e+01 
6.0000000e+00 0.0000000e+00 1.7250000e+01 
6.0000000e+00 0.0000000e+00 1.7500000e+01 
6.0000000e+00 0.0000000e+00 1.7750000e+01 
6.0000000e+00 0.0000000e+00 1.8000000e+01 

CELLS 216 648
2 0 1
2 1 2
2 2 3
2 3 4
2 4 5
2 5 6
2 6 7
2 7 8
2 8 9
2 9 10
2 10 11
2 11 12
2 12 13
2 13 14
2 14 15
2 15 16
2 16 17
2 17 18
2 18 19
2 19 20
2 20 21
2 21 22
2 22 23
2 23 24
2 24 25
2 25 26
2 26 27
2 27 28
2 28 29
2 29 30
2 30 31
2 31 32
2 32 33
2 33 34
2 34 35
2 35 36
2 36 37
2 37 38
2 38 39
2 39 40
2 40 41
2 41 42
2 42 43
2 43 44
2 44 45
2 45 46
2 46 47
2 47 48
2 48 49
2 49 50
2 50 51
2 51 52
2 52 53
2 53 54
2 54 55
2 55 56
2 56 57
2 57 58
2 58 59
2 59 60
2 60 61
2 61 62
2 62 63
2 63 64
2 64 65
2 65 66
2 66 67
2 67 68
2 68 69
2 69 70
2 70 71
2 71 72
2 139 140
2 140 141
2 141 142
2 142 143
2 143 144
2 144 145
2 145 146
2 146 147
2 147 148
2 148 149
2 149 150
2 150 151
2 151 152
2 152 153
2 153 154
2 154 155
2 155 156
2 156 157
2 157 158
2 158 159
2 159 160
2 160 161
2 161 162
2 162 163
2 163 164
2 164 165
2 165 166
2 166 167
2 167 168
2 168 169
2 169 170
2 170 171
2 171 172
2 172 173
2 173 174
2 174 175
2 175 176
2 176 177
2 177 178
2 178 179
2 179 180
2 180 181
2 181 182
2 182 183
2 183 184
2 184 185
2 185 186
2 186 187
2 187 188
2 188 189
2 189 190
2 190 191
2 191 192
2 192 193
2 193 194
2 194 195
2 195 196
2 196 197
2 197 198
2 198 199
2 199 200
2 200 201
2 201 202
2 202 203
2 203 204
2 204 205
2 205 206
2 206 207
2 207 208
2 208 209
2 209 210
2 210 211
2 12 73
2 73 79
2 79 85
2 85 91
2 91 97
2 97 103
2 103 109
2 109 115
2 115 121
2 121 127
2 127 133
2 133 151
2 24 74
2 74 80
2 80 86
2 86 92
2 92 98
2 98 104
2 104 110
2 110 116
2 116 122
2 122 128
2 128 134
2 134 163
2 36 75
2 75 81
2 81 87
2 87 93
2 93 99
2 99 105
2 105 111
2 111 117
2 117 123
2 123 129
2 129 135
2 135 175
2 48 76
2 76 82
2 82 88
2 88 94
2 94 100
2 100 106
2 106 112
2 112 118
2 118 124
2 124 130
2 130 136
2 136 187
2 60 77
2 77 83
2 83 89
2 89 95
2 95 101
2 101 107
2 107 113
2 113 119
2 119 125
2 125 131
2 131 137
2 137 199
2 72 78
2 78 84
2 84 90
2 90 96
2 96 102
2 102 108
2 108 114
2 114 120
2 120 126
2 126 132
2 132 138
2 138 211

CELL_TYPES 216
3
3
3
3
3
3
3
3
3
3
3
3
3
3
3
3
3
3
3
3
3
3
3
3
3
3
3
3
3
3
3
3
3
3
3
3
3
3
3
3
3
3
3
3
3
3
3
3
3
3
3
3
3
3
3
3
3
3
3
3
3
3
3
3
3
3
3
3
3
3
3
3
3
3
3
3
3
3
3
3
3
3
3
3
3
3
3
3
3
3
3
3
3
3
3
3
3
3
3
3
3
3
3
3
3
3
3
3
3
3
3
3
3
3
3
3
3
3
3
3
3
3
3
3
3
3
3
3
3
3
3
3
3
3
3
3
3
3
3
3
3
3
3
3
3
3
3
3
3
3
3
3
3
3
3
3
3
3
3
3
3
3
3
3
3
3
3
3
3
3
3
3
3
3
3
3
3
3
3
3
3
3
3
3
3
3
3
3
3
3
3
3
3
3
3
3
3
3
3
3
3
3
3
3
3
3
3
3
3
3
3
3
3
3
3
3
POINT_DATA 212
FIELD FieldData 7
DISPLACEMENT 3 212  float
0.0000000e+00 0.0000000e+00 0.0000000e+00 
-2.4222961e-06 0.0000000e+00 -5.0575858e-07 
-4.7438198e-06 0.0000000e+00 -1.0115172e-06 
-6.8637983e-06 0.0000000e+00 -1.5172757e-06 
-8.6814598e-06 0.0000000e+00 -2.0230343e-06 
-1.0096031e-05 0.0000000e+00 -2.5287927e-06 
-1.1006740e-05 0.0000000e+00 -3.0345514e-06 
-1.1312814e-05 0.0000000e+00 -3.5403098e-06 
-1.0913481e-05 0.0000000e+00 -4.0460686e-06 
-9.7079683e-06 0.0000000e+00 -4.5518268e-06 
-7.5955027e-06 0.0000000e+00 -5.0575854e-06 
-4.4753128e-06 0.0000000e+00 -5.5633441e-06 
-2.4662592e-07 0.0000000e+00 -6.0691027e-06 
3.5664384e-06 0.0000000e+00 -6.4905680e-06 
5.5922883e-06 0.0000000e+00 -6.9120338e-06 
6.1604878e-06 0.0000000e+00 -7.3334991e-06 
5.6006024e-06 0.0000000e+00 -7.7549648e-06 
4.2421952e-06 0.0000000e+00 -8.1764301e-06 
2.4148324e-06 0.0000000e+00 -8.5978954e-06 
4.4807720e-07 0.0000000e+00 -9.0193607e-06 
-1.3285053e-06 0.0000000e+00 -9.4408260e-06 
-2.5853506e-06 0.0000000e+00 -9.8622913e-06 
-2.9928942e-06 0.0000000e+00 -1.0283758e-05 
-2.2215715e-06 0.0000000e+00 -1.0705223e-05 
5.8181936e-08 0.0000000e+00 -1.1126688e-05 
2.4342146e-06 0.0000000e+00 -1.1463861e-05 
3.4583916e-06 0.0000000e+00 -1.1801033e-05 
3.4063030e-06 0.0000000e+00 -1.2138205e-05 
2.5535383e-06 0.0000000e+00 -1.2475378e-05 
1.1756874e-06 0.0000000e+00 -1.2812550e-05 
-4.5165967e-07 0.0000000e+00 -1.3149723e-05 
-2.0529133e-06 0.0000000e+00 -1.3486895e-05 
-3.3524836e-06 0.0000000e+00 -1.3824068e-05 
-4.0747809e-06 0.0000000e+00 -1.4161239e-05 
-3.9442152e-06 0.0000000e+00 -1.4498411e-05 
-2.6851967e-06 0.0000000e+00 -1.4835584e-05 
-2.2135596e-08 0.0000000e+00 -1.5172756e-05 
2.6043067e-06 0.0000000e+00 -1.5425636e-05 
3.7671589e-06 0.0000000e+00 -1.5678515e-05 
3.7625457e-06 0.0000000e+00 -1.5931395e-05 
2.8865920e-06 0.0000000e+00 -1.6184275e-05 
1.4354224e-06 0.0000000e+00 -1.6437152e-05 
-2.9483829e-07 0.0000000e+00 -1.6690032e-05 
-2.0080652e-06 0.0000000e+00 -1.6942911e-05 
-3.4081338e-06 0.0000000e+00 -1.7195791e-05 
-4.1989192e-06 0.0000000e+00 -1.7448670e-05 
-4.0842965e-06 0.0000000e+00 -1.7701550e-05 
-2.7681413e-06 0.0000000e+00 -1.7954429e-05 
4.5671424e-08 0.0000000e+00 -1.8207307e-05 
2.9350481e-06 0.0000000e+00 -1.8375895e-05 
4.4496492e-06 0.0000000e+00 -1.8544481e-05 
4.8432312e-06 0.0000000e+00 -1.8713066e-05 
4.3695491e-06 0.0000000e+00 -1.8881652e-05 
3.2823593e-06 0.0000000e+00 -1.9050240e-05 
1.8354177e-06 0.0000000e+00 -1.9218825e-05 
2.8248016e-07 0.0000000e+00 -1.9387411e-05 
-1.1226975e-06 0.0000000e+00 -1.9555997e-05 
-2.1263595e-06 0.0000000e+00 -1.9724583e-05 
-2.4747496e-06 0.0000000e+00 -1.9893170e-05 
-1.9141123e-06 0.0000000e+00 -2.0061756e-05 
-1.9069159e-07 0.0000000e+00 -2.0230342e-05 
1.2145975e-06 0.0000000e+00 -2.0314636e-05 
9.3877475e-07 0.0000000e+00 -2.0398928e-05 
-5.8750152e-07 0.0000000e+00 -2.0483221e-05 
-2.9335731e-06 0.0000000e+00 -2.0567515e-05 
-5.6687813e-06 0.0000000e+00 -2.0651807e-05 
-8.3624682e-06 0.0000000e+00 -2.0736101e-05 
-1.0583975e-05 0.0000000e+00 -2.0820395e-05 
-1.1902644e-05 0.0000000e+00 -2.0904687e-05 
-1.1887817e-05 0.0000000e+00 -2.0988980e-05 
-1.0108834e-05 0.0000000e+00 -2.1073272e-05 
-6.1350393e-06 0.0000000e+00 -2.1157566e-05 
4.6422721e-07 0.0000000e+00 -2.1241860e-05 
-2.0552159e-07 0.0000000e+00 -2.1207354e-05 
4.8484946e-08 0.0000000e+00 -2.3198316e-05 
-1.8446331e-08 0.0000000e+00 -2.7818442e-05 
3.8059522e-08 0.0000000e+00 -3.1227733e-05 
-1.5890966e-07 0.0000000e+00 -3.0918858e-05 
3.8685602e-07 0.0000000e+00 -4.2318330e-05 
-1.6441727e-07 0.0000000e+00 -4.2976924e-05 
3.8787960e-08 0.0000000e+00 -4.2458832e-05 
-1.4757064e-08 0.0000000e+00 -4.7548641e-05 
3.0447616e-08 0.0000000e+00 -5.1264538e-05 
-1.2712773e-07 0.0000000e+00 -4.9047736e-05 
3.0948479e-07 0.0000000e+00 -6.8946443e-05 
-1.2331296e-07 0.0000000e+00 -6.5747576e-05 
2.9090968e-08 0.0000000e+00 -6.3277999e-05 
-1.1067798e-08 0.0000000e+00 -6.8733119e-05 
2.2835712e-08 0.0000000e+00 -7.2687486e-05 
-9.5345797e-08 0.0000000e+00 -6.8986737e-05 
2.3211361e-07 0.0000000e+00 -9.5495961e-05 
-8.2208636e-08 0.0000000e+00 -8.5140236e-05 
1.9393980e-08 0.0000000e+00 -8.1276747e-05 
-7.3785320e-09 0.0000000e+00 -8.6992797e-05 
1.5223808e-08 0.0000000e+00 -9.1117501e-05 
-6.3563867e-08 0.0000000e+00 -8.6356791e-05 
1.5474239e-07 0.0000000e+00 -1.1758781e-04 
-4.1104318e-08 0.0000000e+00 -9.8027005e-05 
9.6969899e-09 0.0000000e+00 -9.3327151e-05 
-3.6892660e-09 0.0000000e+00 -9.9199766e-05 
7.6119040e-09 0.0000000e+00 -1.0342668e-04 
-3.1781934e-08 0.0000000e+00 -9.8029988e-05 
7.7371197e-08 0.0000000e+00 -1.3209409e-04 
-9.4317036e-18 0.0000000e+00 -1.0253111e-04 
-1.2505296e-17 0.0000000e+00 -9.7552482e-05 
-1.2264947e-17 0.0000000e+00 -1.0347729e-04 
-1.1418850e-17 0.0000000e+00 -1.0773826e-04 
-9.1512530e-18 0.0000000e+00 -1.0212958e-04 
-3.3927731e-18 0.0000000e+00 -1.3713805e-04 
4.1104318e-08 0.0000000e+00 -9.8027005e-05 
-9.6969899e-09 0.0000000e+00 -9.3327151e-05 
3.6892660e-09 0.0000000e+00 -9.9199766e-05 
-7.6119040e-09 0.0000000e+00 -1.0342668e-04 
3.1781934e-08 0.0000000e+00 -9.8029988e-05 
-7.7371197e-08 0.0000000e+00 -1.3209409e-04 
8.2208636e-08 0.0000000e+00 -8.5140236e-05 
-1.9393980e-08 0.0000000e+00 -8.1276747e-05 
7.3785320e-09 0.0000000e+00 -8.6992797e-05 
-1.5223808e-08 0.0000000e+00 -9.1117501e-05 
6.3563867e-08 0.0000000e+00 -8.6356791e-05 
-1.5474239e-07 0.0000000e+00 -1.1758781e-04 
1.2331296e-07 0.0000000e+00 -6.5747576e-05 
-2.9090968e-08 0.0000000e+00 -6.3277999e-05 
1.1067798e-08 0.0000000e+00 -6.8733119e-05 
-2.2835712e-08 0.0000000e+00 -7.2687486e-05 
9.5345797e-08 0.0000000e+00 -6.8986737e-05 
-2.3211361e-07 0.0000000e+00 -9.5495961e-05 
1.6441727e-07 0.0000000e+00 -4.2976924e-05 
-3.8787960e-08 0.0000000e+00 -4.2458832e-05 
1.4757064e-08 0.0000000e+00 -4.7548641e-05 
-3.0447616e-08 0.0000000e+00 -5.1264538e-05 
1.2712773e-07 0.0000000e+00 -4.9047736e-05 
-3.0948479e-07 0.0000000e+00 -6.8946443e-05 
2.0552159e-07 0.0000000e+00 -2.1207354e-05 
-4.8484946e-08 0.0000000e+00 -2.3198316e-05 
1.8446331e-08 0.0000000e+00 -2.7818442e-05 
-3.8059522e-08 0.0000000e+00 -3.1227733e-05 
1.5890966e-07 0.0000000e+00 -3.0918858e-05 
-3.8685602e-07 0.0000000e+00 -4.2318330e-05 
0.0000000e+00 0.0000000e+00 0.0000000e+00 
2.4222961e-06 0.0000000e+00 -5.0575858e-07 
4.7438198e-06 0.0000000e+00 -1.0115172e-06 
6.8637983e-06 0.0000000e+00 -1.5172757e-06 
8.6814598e-06 0.0000000e+00 -2.0230343e-06 
1.0096031e-05 0.0000000e+00 -2.5287927e-06 
1.1006740e-05 0.0000000e+00 -3.0345514e-06 
1.1312814e-05 0.0000000e+00 -3.5403098e-06 
1.0913481e-05 0.0000000e+00 -4.0460686e-06 
9.7079683e-06 0.0000000e+00 -4.5518268e-06 
7.5955027e-06 0.0000000e+00 -5.0575854e-06 
4.4753128e-06 0.0000000e+00 -5.5633441e-06 
2.4662592e-07 0.0000000e+00 -6.0691027e-06 
-3.5664384e-06 0.0000000e+00 -6.4905680e-06 
-5.5922883e-06 0.0000000e+00 -6.9120338e-06 
-6.1604878e-06 0.0000000e+00 -7.3334991e-06 
-5.6006024e-06 0.0000000e+00 -7.7549648e-06 
-4.2421952e-06 0.0000000e+00 -8.1764301e-06 
-2.4148324e-06 0.0000000e+00 -8.5978954e-06 
-4.4807720e-07 0.0000000e+00 -9.0193607e-06 
1.3285053e-06 0.0000000e+00 -9.4408260e-06 
2.5853506e-06 0.0000000e+00 -9.8622913e-06 
2.9928942e-06 0.0000000e+00 -1.0283758e-05 
2.2215715e-06 0.0000000e+00 -1.0705223e-05 
-5.8181936e-08 0.0000000e+00 -1.1126688e-05 
-2.4342146e-06 0.0000000e+00 -1.1463861e-05 
-3.4583916e-06 0.0000000e+00 -1.1801033e-05 
-3.4063030e-06 0.0000000e+00 -1.2138205e-05 
-2.5535383e-06 0.0000000e+00 -1.2475378e-05 
-1.1756874e-06 0.0000000e+00 -1.2812550e-05 
4.5165967e-07 0.0000000e+00 -1.3149723e-05 
2.0529133e-06 0.0000000e+00 -1.3486895e-05 
3.3524836e-06 0.0000000e+00 -1.3824068e-05 
4.0747809e-06 0.0000000e+00 -1.4161239e-05 
3.9442152e-06 0.0000000e+00 -1.4498411e-05 
2.6851967e-06 0.0000000e+00 -1.4835584e-05 
2.2135596e-08 0.0000000e+00 -1.5172756e-05 
-2.6043067e-06 0.0000000e+00 -1.5425636e-05 
-3.7671589e-06 0.0000000e+00 -1.5678515e-05 
-3.7625457e-06 0.0000000e+00 -1.5931395e-05 
-2.8865920e-06 0.0000000e+00 -1.6184275e-05 
-1.4354224e-06 0.0000000e+00 -1.6437152e-05 
2.9483829e-07 0.0000000e+00 -1.6690032e-05 
2.0080652e-06 0.0000000e+00 -1.6942911e-05 
3.4081338e-06 0.0000000e+00 -1.7195791e-05 
4.1989192e-06 0.0000000e+00 -1.7448670e-05 
4.0842965e-06 0.0000000e+00 -1.7701550e-05 
2.7681413e-06 0.0000000e+00 -1.7954429e-05 
-4.5671424e-08 0.0000000e+00 -1.8207307e-05 
-2.9350481e-06 0.0000000e+00 -1.8375895e-05 
-4.4496492e-06 0.0000000e+00 -1.8544481e-05 
-4.8432312e-06 0.0000000e+00 -1.8713066e-05 
-4.3695491e-06 0.0000000e+00 -1.8881652e-05 
-3.2823593e-06 0.0000000e+00 -1.9050240e-05 
-1.8354177e-06 0.0000000e+00 -1.9218825e-05 
-2.8248016e-07 0.0000000e+00 -1.9387411e-05 
1.1226975e-06 0.0000000e+00 -1.9555997e-05 
2.1263595e-06 0.0000000e+00 -1.9724583e-05 
2.4747496e-06 0.0000000e+00 -1.9893170e-05 
1.9141123e-06 0.0000000e+00 -2.0061756e-05 
1.9069159e-07 0.0000000e+00 -2.0230342e-05 
-1.2145975e-06 0.0000000e+00 -2.0314636e-05 
-9.3877475e-07 0.0000000e+00 -2.0398928e-05 
5.8750152e-07 0.0000000e+00 -2.0483221e-05 
2.9335731e-06 0.0000000e+00 -2.0567515e-05 
5.6687813e-06 0.0000000e+00 -2.0651807e-05 
8.3624682e-06 0.0000000e+00 -2.0736101e-05 
1.0583975e-05 0.0000000e+00 -2.0820395e-05 
1.1902644e-05 0.0000000e+00 -2.0904687e-05 
1.1887817e-05 0.0000000e+00 -2.0988980e-05 
1.0108834e-05 0.0000000e+00 -2.1073272e-05 
6.1350393e-06 0.0000000e+00 -2.1157566e-05 
-4.6422721e-07 0.0000000e+00 -2.1241860e-05 
ROTATION 3 212  float
0.0000000e+00 -9.7563661e-06 0.0000000e+00 
0.0000000e+00 -9.5548212e-06 0.0000000e+00 
0.0000000e+00 -8.9501864e-06 0.0000000e+00 
0.0000000e+00 -7.9424617e-06 0.0000000e+00 
0.0000000e+00 -6.5316467e-06 0.0000000e+00 
0.0000000e+00 -4.7177423e-06 0.0000000e+00 
0.0000000e+00 -2.5007480e-06 0.0000000e+00 
0.0000000e+00 1.1933631e-07 0.0000000e+00 
0.0000000e+00 3.1425104e-06 0.0000000e+00 
0.0000000e+00 6.5687746e-06 0.0000000e+00 
0.0000000e+00 1.0398128e-05 0.0000000e+00 
0.0000000e+00 1.4630572e-05 0.0000000e+00 
0.0000000e+00 1.9266106e-05 0.0000000e+00 
0.0000000e+00 1.1458119e-05 0.0000000e+00 
0.0000000e+00 4.9683895e-06 0.0000000e+00 
0.0000000e+00 -2.0308175e-07 0.0000000e+00 
0.0000000e+00 -4.0562945e-06 0.0000000e+00 
0.0000000e+00 -6.5912495e-06 0.0000000e+00 
0.0000000e+00 -7.8079465e-06 0.0000000e+00 
0.0000000e+00 -7.7063851e-06 0.0000000e+00 
0.0000000e+00 -6.2865652e-06 0.0000000e+00 
0.0000000e+00 -3.5484875e-06 0.0000000e+00 
0.0000000e+00 5.0784843e-07 0.0000000e+00 
0.0000000e+00 5.8824426e-06 0.0000000e+00 
0.0000000e+00 1.2575295e-05 0.0000000e+00 
0.0000000e+00 6.6166926e-06 0.0000000e+00 
0.0000000e+00 1.7604501e-06 0.0000000e+00 
0.0000000e+00 -1.9934332e-06 0.0000000e+00 
0.0000000e+00 -4.6449572e-06 0.0000000e+00 
0.0000000e+00 -6.1941223e-06 0.0000000e+00 
0.0000000e+00 -6.6409279e-06 0.0000000e+00 
0.0000000e+00 -5.9853742e-06 0.0000000e+00 
0.0000000e+00 -4.2274614e-06 0.0000000e+00 
0.0000000e+00 -1.3671895e-06 0.0000000e+00 
0.0000000e+00 2.5954419e-06 0.0000000e+00 
0.0000000e+00 7.6604319e-06 0.0000000e+00 
0.0000000e+00 1.3827782e-05 0.0000000e+00 
0.0000000e+00 7.3811725e-06 0.0000000e+00 
0.0000000e+00 2.1190615e-06 0.0000000e+00 
0.0000000e+00 -1.9585502e-06 0.0000000e+00 
0.0000000e+00 -4.8516631e-06 0.0000000e+00 
0.0000000e+00 -6.5602771e-06 0.0000000e+00 
0.0000000e+00 -7.0843917e-06 0.0000000e+00 
0.0000000e+00 -6.4240076e-06 0.0000000e+00 
0.0000000e+00 -4.5791244e-06 0.0000000e+00 
0.0000000e+00 -1.5497420e-06 0.0000000e+00 
0.0000000e+00 2.6641392e-06 0.0000000e+00 
0.0000000e+00 8.0625196e-06 0.0000000e+00 
0.0000000e+00 1.4645399e-05 0.0000000e+00 
0.0000000e+00 8.6387854e-06 0.0000000e+00 
0.0000000e+00 3.6471954e-06 0.0000000e+00 
0.0000000e+00 -3.2937109e-07 0.0000000e+00 
0.0000000e+00 -3.2909140e-06 0.0000000e+00 
0.0000000e+00 -5.2374335e-06 0.0000000e+00 
0.0000000e+00 -6.1689288e-06 0.0000000e+00 
0.0000000e+00 -6.0854013e-06 0.0000000e+00 
0.0000000e+00 -4.9868499e-06 0.0000000e+00 
0.0000000e+00 -2.8732750e-06 0.0000000e+00 
0.0000000e+00 2.5532356e-07 0.0000000e+00 
0.0000000e+00 4.3989457e-06 0.0000000e+00 
0.0000000e+00 9.5575915e-06 0.0000000e+00 
0.0000000e+00 1.9718270e-06 0.0000000e+00 
0.0000000e+00 -3.8913035e-06 0.0000000e+00 
0.0000000e+00 -8.0318014e-06 0.0000000e+00 
0.0000000e+00 -1.0449665e-05 0.0000000e+00 
0.0000000e+00 -1.1144896e-05 0.0000000e+00 
0.0000000e+00 -1.0117494e-05 0.0000000e+00 
0.0000000e+00 -7.3674578e-06 0.0000000e+00 
0.0000000e+00 -2.8947886e-06 0.0000000e+00 
0.0000000e+00 3.3005138e-06 0.0000000e+00 
0.0000000e+00 1.1218450e-05 0.0000000e+00 
0.0000000e+00 2.0859019e-05 0.0000000e+00 
0.0000000e+00 3.2222222e-05 0.0000000e+00 
0.0000000e+00 3.8993094e-05 0.0000000e+00 
0.0000000e+00 3.3417418e-05 0.0000000e+00 
0.0000000e+00 3.4461158e-05 0.0000000e+00 
0.0000000e+00 3.5142504e-05 0.0000000e+00 
0.0000000e+00 3.0902665e-05 0.0000000e+00 
0.0000000e+00 4.9789858e-05 0.0000000e+00 
0.0000000e+00 4.6208443e-05 0.0000000e+00 
0.0000000e+00 4.1747902e-05 0.0000000e+00 
0.0000000e+00 4.2582895e-05 0.0000000e+00 
0.0000000e+00 4.3127973e-05 0.0000000e+00 
0.0000000e+00 3.9736100e-05 0.0000000e+00 
0.0000000e+00 5.4845852e-05 0.0000000e+00 
0.0000000e+00 4.3414479e-05 0.0000000e+00 
0.0000000e+00 4.0069073e-05 0.0000000e+00 
0.0000000e+00 4.0695319e-05 0.0000000e+00 
0.0000000e+00 4.1104126e-05 0.0000000e+00 
0.0000000e+00 3.8560222e-05 0.0000000e+00 
0.0000000e+00 4.9892536e-05 0.0000000e+00 
0.0000000e+00 3.3113534e-05 0.0000000e+00 
0.0000000e+00 3.0883264e-05 0.0000000e+00 
0.0000000e+00 3.1300759e-05 0.0000000e+00 
0.0000000e+00 3.1573298e-05 0.0000000e+00 
0.0000000e+00 2.9877361e-05 0.0000000e+00 
0.0000000e+00 3.7432237e-05 0.0000000e+00 
0.0000000e+00 1.7807930e-05 0.0000000e+00 
0.0000000e+00 1.6692795e-05 0.0000000e+00 
0.0000000e+00 1.6901544e-05 0.0000000e+00 
0.0000000e+00 1.7037813e-05 0.0000000e+00 
0.0000000e+00 1.6189844e-05 0.0000000e+00 
0.0000000e+00 1.9967283e-05 0.0000000e+00 
0.0000000e+00 1.0598843e-18 0.0000000e+00 
0.0000000e+00 0.0000000e+00 0.0000000e+00 
0.0000000e+00 4.6369936e-19 0.0000000e+00 
0.0000000e+00 3.9745661e-19 0.0000000e+00 
0.0000000e+00 -1.0598843e-18 0.0000000e+00 
0.0000000e+00 -1.7252629e-18 0.0000000e+00 
0.0000000e+00 -1.7807930e-05 0.0000000e+00 
0.0000000e+00 -1.6692795e-05 0.0000000e+00 
0.0000000e+00 -1.6901544e-05 0.0000000e+00 
0.0000000e+00 -1.7037813e-05 0.0000000e+00 
0.0000000e+00 -1.6189844e-05 0.0000000e+00 
0.0000000e+00 -1.9967283e-05 0.0000000e+00 
0.0000000e+00 -3.3113534e-05 0.0000000e+00 
0.0000000e+00 -3.0883264e-05 0.0000000e+00 
0.0000000e+00 -3.1300759e-05 0.0000000e+00 
0.0000000e+00 -3.1573298e-05 0.0000000e+00 
0.0000000e+00 -2.9877361e-05 0.0000000e+00 
0.0000000e+00 -3.7432237e-05 0.0000000e+00 
0.0000000e+00 -4.3414479e-05 0.0000000e+00 
0.0000000e+00 -4.0069073e-05 0.0000000e+00 
0.0000000e+00 -4.0695319e-05 0.0000000e+00 
0.0000000e+00 -4.1104126e-05 0.0000000e+00 
0.0000000e+00 -3.8560222e-05 0.0000000e+00 
0.0000000e+00 -4.9892536e-05 0.0000000e+00 
0.0000000e+00 -4.6208443e-05 0.0000000e+00 
0.0000000e+00 -4.1747902e-05 0.0000000e+00 
0.0000000e+00 -4.2582895e-05 0.0000000e+00 
0.0000000e+00 -4.3127973e-05 0.0000000e+00 
0.0000000e+00 -3.9736100e-05 0.0000000e+00 
0.0000000e+00 -5.4845852e-05 0.0000000e+00 
0.0000000e+00 -3.8993094e-05 0.0000000e+00 
0.0000000e+00 -3.3417418e-05 0.0000000e+00 
0.0000000e+00 -3.4461158e-05 0.0000000e+00 
0.0000000e+00 -3.5142504e-05 0.0000000e+00 
0.0000000e+00 -3.0902665e-05 0.0000000e+00 
0.0000000e+00 -4.9789858e-05 0.0000000e+00 
0.0000000e+00 9.7563661e-06 0.0000000e+00 
0.0000000e+00 9.5548212e-06 0.0000000e+00 
0.0000000e+00 8.9501864e-06 0.0000000e+00 
0.0000000e+00 7.9424617e-06 0.0000000e+00 
0.0000000e+00 6.5316467e-06 0.0000000e+00 
0.0000000e+00 4.7177423e-06 0.0000000e+00 
0.0000000e+00 2.5007480e-06 0.0000000e+00 
0.0000000e+00 -1.1933631e-07 0.0000000e+00 
0.0000000e+00 -3.1425104e-06 0.0000000e+00 
0.0000000e+00 -6.5687746e-06 0.0000000e+00 
0.0000000e+00 -1.0398128e-05 0.0000000e+00 
0.0000000e+00 -1.4630572e-05 0.0000000e+00 
0.0000000e+00 -1.9266106e-05 0.0000000e+00 
0.0000000e+00 -1.1458119e-05 0.0000000e+00 
0.0000000e+00 -4.9683895e-06 0.0000000e+00 
0.0000000e+00 2.0308175e-07 0.0000000e+00 
0.0000000e+00 4.0562945e-06 0.0000000e+00 
0.0000000e+00 6.5912495e-06 0.0000000e+00 
0.0000000e+00 7.8079465e-06 0.0000000e+00 
0.0000000e+00 7.7063851e-06 0.0000000e+00 
0.0000000e+00 6.2865652e-06 0.0000000e+00 
0.0000000e+00 3.5484875e-06 0.0000000e+00 
0.0000000e+00 -5.0784843e-07 0.0000000e+00 
0.0000000e+00 -5.8824426e-06 0.0000000e+00 
0.0000000e+00 -1.2575295e-05 0.0000000e+00 
0.0000000e+00 -6.6166926e-06 0.0000000e+00 
0.0000000e+00 -1.7604501e-06 0.0000000e+00 
0.0000000e+00 1.9934332e-06 0.0000000e+00 
0.0000000e+00 4.6449572e-06 0.0000000e+00 
0.0000000e+00 6.1941223e-06 0.0000000e+00 
0.0000000e+00 6.6409279e-06 0.0000000e+00 
0.0000000e+00 5.9853742e-06 0.0000000e+00 
0.0000000e+00 4.2274614e-06 0.0000000e+00 
0.0000000e+00 1.3671895e-06 0.0000000e+00 
0.0000000e+00 -2.5954419e-06 0.0000000e+00 
0.0000000e+00 -7.6604319e-06 0.0000000e+00 
0.0000000e+00 -1.3827782e-05 0.0000000e+00 
0.0000000e+00 -7.3811725e-06 0.0000000e+00 
0.0000000e+00 -2.1190615e-06 0.0000000e+00 
0.0000000e+00 1.9585502e-06 0.0000000e+00 
0.0000000e+00 4.8516631e-06 0.0000000e+00 
0.0000000e+00 6.5602771e-06 0.0000000e+00 
0.0000000e+00 7.0843917e-06 0.0000000e+00 
0.0000000e+00 6.4240076e-06 0.0000000e+00 
0.0000000e+00 4.5791244e-06 0.0000000e+00 
0.0000000e+00 1.5497420e-06 0.0000000e+00 
0.0000000e+00 -2.6641392e-06 0.0000000e+00 
0.0000000e+00 -8.0625196e-06 0.0000000e+00 
0.0000000e+00 -1.4645399e-05 0.0000000e+00 
0.0000000e+00 -8.6387854e-06 0.0000000e+00 
0.0000000e+00 -3.6471954e-06 0.0000000e+00 
0.0000000e+00 3.2937109e-07 0.0000000e+00 
0.0000000e+00 3.2909140e-06 0.0000000e+00 
0.0000000e+00 5.2374335e-06 0.0000000e+00 
0.0000000e+00 6.1689288e-06 0.0000000e+00 
0.0000000e+00 6.0854013e-06 0.0000000e+00 
0.0000000e+00 4.9868499e-06 0.0000000e+00 
0.0000000e+00 2.8732750e-06 0.0000000e+00 
0.0000000e+00 -2.5532356e-07 0.0000000e+00 
0.0000000e+00 -4.3989457e-06 0.0000000e+00 
0.0000000e+00 -9.5575915e-06 0.0000000e+00 
0.0000000e+00 -1.9718270e-06 0.0000000e+00 
0.0000000e+00 3.8913035e-06 0.0000000e+00 
0.0000000e+00 8.0318014e-06 0.0000000e+00 
0.0000000e+00 1.0449665e-05 0.0000000e+00 