# vtk DataFile Version 4.0
vtk output
ASCII
DATASET UNSTRUCTURED_GRID
POINTS 212 float
0.0000000e+00 0.0000000e+00 0.0000000e+00 
0.0000000e+00 0.0000000e+00 2.5000000e-01 
0.0000000e+00 0.0000000e+00 5.0000000e-01 
0.0000000e+00 0.0000000e+00 7.5000000e-01 
0.0000000e+00 0.0000000e+00 1.0000000e+00 
0.0000000e+00 0.0000000e+00 1.2500000e+00 
0.0000000e+00 0.0000000e+00 1.5000000e+00 
0.0000000e+00 0.0000000e+00 1.7500000e+00 
0.0000000e+00 0.0000000e+00 2.0000000e+00 
0.0000000e+00 0.0000000e+00 2.2500000e+00 
0.0000000e+00 0.0000000e+00 2.5000000e+00 
0.0000000e+00 0.0000000e+00 2.7500000e+00 
0.0000000e+00 0.0000000e+00 3.0000000e+00 
0.0000000e+00 0.0000000e+00 3.2500000e+00 
0.0000000e+00 0.0000000e+00 3.5000000e+00 
0.0000000e+00 0.0000000e+00 3.7500000e+00 
0.0000000e+00 0.0000000e+00 4.0000000e+00 
0.0000000e+00 0.0000000e+00 4.2500000e+00 
0.0000000e+00 0.0000000e+00 4.5000000e+00 
0.0000000e+00 0.0000000e+00 4.7500000e+00 
0.0000000e+00 0.0000000e+00 5.0000000e+00 
0.0000000e+00 0.0000000e+00 5.2500000e+00 
0.0000000e+00 0.0000000e+00 5.5000000e+00 
0.0000000e+00 0.0000000e+00 5.7500000e+00 
0.0000000e+00 0.0000000e+00 6.0000000e+00 
0.0000000e+00 0.0000000e+00 6.2500000e+00 
0.0000000e+00 0.0000000e+00 6.5000000e+00 
0.0000000e+00 0.0000000e+00 6.7500000e+00 
0.0000000e+00 0.0000000e+00 7.0000000e+00 
0.0000000e+00 0.0000000e+00 7.2500000e+00 
0.0000000e+00 0.0000000e+00 7.5000000e+00 
0.0000000e+00 0.0000000e+00 7.7500000e+00 
0.0000000e+00 0.0000000e+00 8.0000000e+00 
0.0000000e+00 0.0000000e+00 8.2500000e+00 
0.0000000e+00 0.0000000e+00 8.5000000e+00 
0.0000000e+00 0.0000000e+00 8.7500000e+00 
0.0000000e+00 0.0000000e+00 9.0000000e+00 
0.0000000e+00 0.0000000e+00 9.2500000e+00 
0.0000000e+00 0.0000000e+00 9.5000000e+00 
0.0000000e+00 0.0000000e+00 9.7500000e+00 
0.0000000e+00 0.0000000e+00 1.0000000e+01 
0.0000000e+00 0.0000000e+00 1.0250000e+01 
0.0000000e+00 0.0000000e+00 1.0500000e+01 
0.0000000e+00 0.0000000e+00 1.0750000e+01 
0.0000000e+00 0.0000000e+00 1.1000000e+01 
0.0000000e+00 0.0000000e+00 1.1250000e+01 
0.0000000e+00 0.0000000e+00 1.1500000e+01 
0.0000000e+00 0.0000000e+00 1.1750000e+01 
0.0000000e+00 0.0000000e+00 1.2000000e+01 
0.0000000e+00 0.0000000e+00 1.2250000e+01 
0.0000000e+00 0.0000000e+00 1.2500000e+01 
0.0000000e+00 0.0000000e+00 1.2750000e+01 
0.0000000e+00 0.0000000e+00 1.3000000e+01 
0.0000000e+00 0.0000000e+00 1.3250000e+01 
0.0000000e+00 0.0000000e+00 1.3500000e+01 
0.0000000e+00 0.0000000e+00 1.3750000e+01 
0.0000000e+00 0.0000000e+00 1.4000000e+01 
0.0000000e+00 0.0000000e+00 1.4250000e+01 
0.0000000e+00 0.0000000e+00 1.4500000e+01 
0.0000000e+00 0.0000000e+00 1.4750000e+01 
0.0000000e+00 0.0000000e+00 1.5000000e+01 
0.0000000e+00 0.0000000e+00 1.5250000e+01 
0.0000000e+00 0.0000000e+00 1.5500000e+01 
0.0000000e+00 0.0000000e+00 1.5750000e+01 
0.0000000e+00 0.0000000e+00 1.6000000e+01 
0.0000000e+00 0.0000000e+00 1.6250000e+01 
0.0000000e+00 0.0000000e+00 1.6500000e+01 
0.0000000e+00 0.0000000e+00 1.6750000e+01 
0.0000000e+00 0.0000000e+00 1.7000000e+01 
0.0000000e+00 0.0000000e+00 1.7250000e+01 
0.0000000e+00 0.0000000e+00 1.7500000e+01 
0.0000000e+00 0.0000000e+00 1.7750000e+01 
0.0000000e+00 0.0000000e+00 1.8000000e+01 
5.0000000e-01 0.0000000e+00 3.0000000e+00 
5.0000000e-01 0.0000000e+00 6.0000000e+00 
5.0000000e-01 0.0000000e+00 9.0000000e+00 
5.0000000e-01 0.0000000e+00 1.2000000e+01 
5.0000000e-01 0.0000000e+00 1.5000000e+01 
5.0000000e-01 0.0000000e+00 1.8000000e+01 
1.0000000e+00 0.0000000e+00 3.0000000e+00 
1.0000000e+00 0.0000000e+00 6.0000000e+00 
1.0000000e+00 0.0000000e+00 9.0000000e+00 
1.0000000e+00 0.0000000e+00 1.2000000e+01 
1.0000000e+00 0.0000000e+00 1.5000000e+01 
1.0000000e+00 0.0000000e+00 1.8000000e+01 
1.5000000e+00 0.0000000e+00 3.0000000e+00 
1.5000000e+00 0.0000000e+00 6.0000000e+00 
1.5000000e+00 0.0000000e+00 9.0000000e+00 
1.5000000e+00 0.0000000e+00 1.2000000e+01 
1.5000000e+00 0.0000000e+00 1.5000000e+01 
1.5000000e+00 0.0000000e+00 1.8000000e+01 
2.0000000e+00 0.0000000e+00 3.0000000e+00 
2.0000000e+00 0.0000000e+00 6.0000000e+00 
2.0000000e+00 0.0000000e+00 9.0000000e+00 
2.0000000e+00 0.0000000e+00 1.2000000e+01 
2.0000000e+00 0.0000000e+00 1.5000000e+01 
2.0000000e+00 0.0000000e+00 1.8000000e+01 
2.5000000e+00 0.0000000e+00 3.0000000e+00 
2.5000000e+00 0.0000000e+00 6.0000000e+00 
2.5000000e+00 0.0000000e+00 9.0000000e+00 
2.5000000e+00 0.0000000e+00 1.2000000e+01 
2.5000000e+00 0.0000000e+00 1.5000000e+01 
2.5000000e+00 0.0000000e+00 1.8000000e+01 
3.0000000e+00 0.0000000e+00 3.0000000e+00 
3.0000000e+00 0.0000000e+00 6.0000000e+00 
3.0000000e+00 0.0000000e+00 9.0000000e+00 
3.0000000e+00 0.0000000e+00 1.2000000e+01 
3.0000000e+00 0.0000000e+00 1.5000000e+01 
3.0000000e+00 0.0000000e+00 1.8000000e+01 
3.5000000e+00 0.0000000e+00 3.0000000e+00 
3.5000000e+00 0.0000000e+00 6.0000000e+00 
3.5000000e+00 0.0000000e+00 9.0000000e+00 
3.5000000e+00 0.0000000e+00 1.2000000e+01 
3.5000000e+00 0.0000000e+00 1.5000000e+01 
3.5000000e+00 0.0000000e+00 1.8000000e+01 
4.0000000e+00 0.0000000e+00 3.0000000e+00 
4.0000000e+00 0.0000000e+00 6.0000000e+00 
4.0000000e+00 0.0000000e+00 9.0000000e+00 
4.0000000e+00 0.0000000e+00 1.2000000e+01 
4.0000000e+00 0.0000000e+00 1.5000000e+01 
4.0000000e+00 0.0000000e+00 1.8000000e+01 
4.5000000e+00 0.0000000e+00 3.0000000e+00 
4.5000000e+00 0.0000000e+00 6.0000000e+00 
4.5000000e+00 0.0000000e+00 9.0000000e+00 
4.5000000e+00 0.0000000e+00 1.2000000e+01 
4.5000000e+00 0.0000000e+00 1.5000000e+01 
4.5000000e+00 0.0000000e+00 1.8000000e+01 
5.0000000e+00 0.0000000e+00 3.0000000e+00 
5.0000000e+00 0.0000000e+00 6.0000000e+00 
5.0000000e+00 0.0000000e+00 9.0000000e+00 
5.0000000e+00 0.0000000e+00 1.2000000e+01 
5.0000000e+00 0.0000000e+00 1.5000000e+01 
5.0000000e+00 0.0000000e+00 1.8000000e+01 
5.5000000e+00 0.0000000e+00 3.0000000e+00 
5.5000000e+00 0.0000000e+00 6.0000000e+00 
5.5000000e+00 0.0000000e+00 9.0000000e+00 
5.5000000e+00 0.0000000e+00 1.2000000e+01 
5.5000000e+00 0.0000000e+00 1.5000000e+01 
5.5000000e+00 0.0000000e+00 1.8000000e+01 
6.0000000e+00 0.0000000e+00 0.0000000e+00 
6.0000000e+00 0.0000000e+00 2.5000000e-01 
6.0000000e+00 0.0000000e+00 5.0000000e-01 
6.0000000e+00 0.0000000e+00 7.5000000e-01 
6.0000000e+00 0.0000000e+00 1.0000000e+00 
6.0000000e+00 0.0000000e+00 1.2500000e+00 
6.0000000e+00 0.0000000e+00 1.5000000e+00 
6.0000000e+00 0.0000000e+00 1.7500000e+00 
6.0000000e+00 0.0000000e+00 2.0000000e+00 
6.0000000e+00 0.0000000e+00 2.2500000e+00 
6.0000000e+00 0.0000000e+00 2.5000000e+00 
6.0000000e+00 0.0000000e+00 2.7500000e+00 
6.0000000e+00 0.0000000e+00 3.0000000e+00 
6.0000000e+00 0.0000000e+00 3.2500000e+00 
6.0000000e+00 0.0000000e+00 3.5000000e+00 
6.0000000e+00 0.0000000e+00 3.7500000e+00 
6.0000000e+00 0.0000000e+00 4.0000000e+00 
6.0000000e+00 0.0000000e+00 4.2500000e+00 
6.0000000e+00 0.0000000e+00 4.5000000e+00 
6.0000000e+00 0.0000000e+00 4.7500000e+00 
6.0000000e+00 0.0000000e+00 5.0000000e+00 
6.0000000e+00 0.0000000e+00 5.2500000e+00 
6.0000000e+00 0.0000000e+00 5.5000000e+00 
6.0000000e+00 0.0000000e+00 5.7500000e+00 
6.0000000e+00 0.0000000e+00 6.0000000e+00 
6.0000000e+00 0.0000000e+00 6.2500000e+00 
6.0000000e+00 0.0000000e+00 6.5000000e+00 
6.0000000e+00 0.0000000e+00 6.7500000e+00 
6.0000000e+00 0.0000000e+00 7.0000000e+00 
6.0000000e+00 0.0000000e+00 7.2500000e+00 
6.0000000e+00 0.0000000e+00 7.5000000e+00 
6.0000000e+00 0.0000000e+00 7.7500000e+00 
6.0000000e+00 0.0000000e+00 8.0000000e+00 
6.0000000e+00 0.0000000e+00 8.2500000e+00 
6.0000000e+00 0.0000000e+00 8.5000000e+00 
6.0000000e+00 0.0000000e+00 8.7500000e+00 
6.0000000e+00 0.0000000e+00 9.0000000e+00 
6.0000000e+00 0.0000000e+00 9.2500000e+00 
6.0000000e+00 0.0000000e+00 9.5000000e+00 
6.0000000e+00 0.0000000e+00 9.7500000e+00 
6.0000000e+00 0.0000000e+00 1.0000000e+01 
6.0000000e+00 0.0000000e+00 1.0250000e+01 
6.0000000e+00 0.0000000e+00 1.0500000e+01 
6.0000000e+00 0.0000000e+00 1.0750000e+01 
6.0000000e+00 0.0000000e+00 1.1000000e+01 
6.0000000e+00 0.0000000e+00 1.1250000e+01 
6.0000000e+00 0.0000000e+00 1.1500000e+01 
6.0000000e+00 0.0000000e+00 1.1750000e+01 
6.0000000e+00 0.0000000e+00 1.2000000e+01 
6.0000000e+00 0.0000000e+00 1.2250000e+01 
6.0000000e+00 0.0000000e+00 1.2500000e+01 
6.0000000e+00 0.0000000e+00 1.2750000e+01 
6.0000000e+00 0.0000000e+00 1.3000000e+01 
6.0000000e+00 0.0000000e+00 1.3250000e+01 
6.0000000e+00 0.0000000e+00 1.3500000e+01 
6.0000000e+00 0.0000000e+00 1.3750000e+01 
6.0000000e+00 0.0000000e+00 1.4000000e+01 
6.0000000e+00 0.0000000e+00 1.4250000e+01 
6.0000000e+00 0.0000000e+00 1.4500000e+01 
6.0000000e+00 0.0000000e+00 1.4750000e+01 
6.0000000e+00 0.0000000e+00 1.5000000e+01 
6.0000000e+00 0.0000000e+00 1.5250000e+01 
6.0000000e+00 0.0000000e+00 1.5500000e+01 
6.0000000e+00 0.0000000e+00 1.5750000e+01 
6.0000000e+00 0.0000000e+00 1.6000000e+01 
6.0000000e+00 0.0000000e+00 1.6250000e+01 
6.0000000e+00 0.0000000e+00 1.6500000e+01 
6.0000000e+00 0.0000000e+00 1.6750000e+01 
6.0000000e+00 0.0000000e+00 1.7000000e+01 
6.0000000e+00 0.0000000e+00 1.7250000e+01 
6.0000000e+00 0.0000000e+00 1.7500000e+01 
6.0000000e+00 0.0000000e+00 1.7750000e+01 
6.0000000e+00 0.0000000e+00 1.8000000e+01 

CELLS 216 648
2 0 1
2 1 2
2 2 3
2 3 4
2 4 5
2 5 6
2 6 7
2 7 8
2 8 9
2 9 10
2 10 11
2 11 12
2 12 13
2 13 14
2 14 15
2 15 16
2 16 17
2 17 18
2 18 19
2 19 20
2 20 21
2 21 22
2 22 23
2 23 24
2 24 25
2 25 26
2 26 27
2 27 28
2 28 29
2 29 30
2 30 31
2 31 32
2 32 33
2 33 34
2 34 35
2 35 36
2 36 37
2 37 38
2 38 39
2 39 40
2 40 41
2 41 42
2 42 43
2 43 44
2 44 45
2 45 46
2 46 47
2 47 48
2 48 49
2 49 50
2 50 51
2 51 52
2 52 53
2 53 54
2 54 55
2 55 56
2 56 57
2 57 58
2 58 59
2 59 60
2 60 61
2 61 62
2 62 63
2 63 64
2 64 65
2 65 66
2 66 67
2 67 68
2 68 69
2 69 70
2 70 71
2 71 72
2 139 140
2 140 141
2 141 142
2 142 143
2 143 144
2 144 145
2 145 146
2 146 147
2 147 148
2 148 149
2 149 150
2 150 151
2 151 152
2 152 153
2 153 154
2 154 155
2 155 156
2 156 157
2 157 158
2 158 159
2 159 160
2 160 161
2 161 162
2 162 163
2 163 164
2 164 165
2 165 166
2 166 167
2 167 168
2 168 169
2 169 170
2 170 171
2 171 172
2 172 173
2 173 174
2 174 175
2 175 176
2 176 177
2 177 178
2 178 179
2 179 180
2 180 181
2 181 182
2 182 183
2 183 184
2 184 185
2 185 186
2 186 187
2 187 188
2 188 189
2 189 190
2 190 191
2 191 192
2 192 193
2 193 194
2 194 195
2 195 196
2 196 197
2 197 198
2 198 199
2 199 200
2 200 201
2 201 202
2 202 203
2 203 204
2 204 205
2 205 206
2 206 207
2 207 208
2 208 209
2 209 210
2 210 211
2 12 73
2 73 79
2 79 85
2 85 91
2 91 97
2 97 103
2 103 109
2 109 115
2 115 121
2 121 127
2 127 133
2 133 151
2 24 74
2 74 80
2 80 86
2 86 92
2 92 98
2 98 104
2 104 110
2 110 116
2 116 122
2 122 128
2 128 134
2 134 163
2 36 75
2 75 81
2 81 87
2 87 93
2 93 99
2 99 105
2 105 111
2 111 117
2 117 123
2 123 129
2 129 135
2 135 175
2 48 76
2 76 82
2 82 88
2 88 94
2 94 100
2 100 106
2 106 112
2 112 118
2 118 124
2 124 130
2 130 136
2 136 187
2 60 77
2 77 83
2 83 89
2 89 95
2 95 101
2 101 107
2 107 113
2 113 119
2 119 125
2 125 131
2 131 137
2 137 199
2 72 78
2 78 84
2 84 90
2 90 96
2 96 102
2 102 108
2 108 114
2 114 120
2 120 126
2 126 132
2 132 138
2 138 211

CELL_TYPES 216
3
3
3
3
3
3
3
3
3
3
3
3
3
3
3
3
3
3
3
3
3
3
3
3
3
3
3
3
3
3
3
3
3
3
3
3
3
3
3
3
3
3
3
3
3
3
3
3
3
3
3
3
3
3
3
3
3
3
3
3
3
3
3
3
3
3
3
3
3
3
3
3
3
3
3
3
3
3
3
3
3
3
3
3
3
3
3
3
3
3
3
3
3
3
3
3
3
3
3
3
3
3
3
3
3
3
3
3
3
3
3
3
3
3
3
3
3
3
3
3
3
3
3
3
3
3
3
3
3
3
3
3
3
3
3
3
3
3
3
3
3
3
3
3
3
3
3
3
3
3
3
3
3
3
3
3
3
3
3
3
3
3
3
3
3
3
3
3
3
3
3
3
3
3
3
3
3
3
3
3
3
3
3
3
3
3
3
3
3
3
3
3
3
3
3
3
3
3
3
3
3
3
3
3
3
3
3
3
3
3
3
3
3
3
3
3
POINT_DATA 212
FIELD FieldData 3
ADJOINT_DISPLACEMENT 3 212  float
0.0000000e+00 0.0000000e+00 0.0000000e+00 
-2.7024018e-04 0.0000000e+00 3.0649882e-16 
-5.5933726e-04 0.0000000e+00 6.1299764e-16 
-8.8614813e-04 0.0000000e+00 9.1949651e-16 
-1.2695297e-03 0.0000000e+00 1.2259953e-15 
-1.7283388e-03 0.0000000e+00 1.5324941e-15 
-2.2814323e-03 0.0000000e+00 1.8389930e-15 
-2.9476671e-03 0.0000000e+00 2.1454919e-15 
-3.7459002e-03 0.0000000e+00 2.4519906e-15 
-4.6949885e-03 0.0000000e+00 2.7584894e-15 
-5.8137886e-03 0.0000000e+00 3.0649883e-15 
-7.1211578e-03 0.0000000e+00 3.3714872e-15 
-8.6359521e-03 0.0000000e+00 3.6779860e-15 
-1.0482488e-02 0.0000000e+00 1.8214834e-07 
-1.2696764e-02 0.0000000e+00 3.6429665e-07 
-1.5165160e-02 0.0000000e+00 5.4644499e-07 
-1.7774062e-02 0.0000000e+00 7.2859331e-07 
-2.0409849e-02 0.0000000e+00 9.1074168e-07 
-2.2958906e-02 0.0000000e+00 1.0928900e-06 
-2.5307614e-02 0.0000000e+00 1.2750384e-06 
-2.7342357e-02 0.0000000e+00 1.4571866e-06 
-2.8949516e-02 0.0000000e+00 1.6393350e-06 
-3.0015474e-02 0.0000000e+00 1.8214834e-06 
-3.0426612e-02 0.0000000e+00 2.0036316e-06 
-3.0069316e-02 0.0000000e+00 2.1857800e-06 
-2.9138120e-02 0.0000000e+00 3.0965678e-06 
-2.8232589e-02 0.0000000e+00 4.0073555e-06 
-2.7846649e-02 0.0000000e+00 4.9181435e-06 
-2.8474223e-02 0.0000000e+00 5.8289315e-06 
-3.0609235e-02 0.0000000e+00 6.7397191e-06 
-3.4745608e-02 0.0000000e+00 7.6505075e-06 
-4.1377269e-02 0.0000000e+00 8.5612946e-06 
-5.0998136e-02 0.0000000e+00 9.4720826e-06 
-6.4102143e-02 0.0000000e+00 1.0382871e-05 
-8.1183203e-02 0.0000000e+00 1.1293659e-05 
-1.0273524e-01 0.0000000e+00 1.2204447e-05 
-1.2925220e-01 0.0000000e+00 1.3115235e-05 
-1.5576777e-01 0.0000000e+00 1.2202445e-05 
-1.7731583e-01 0.0000000e+00 1.1289656e-05 
-1.9439052e-01 0.0000000e+00 1.0376867e-05 
-2.0748596e-01 0.0000000e+00 9.4640773e-06 
-2.1709631e-01 0.0000000e+00 8.5512884e-06 
-2.2371569e-01 0.0000000e+00 7.6384995e-06 
-2.2783825e-01 0.0000000e+00 6.7257101e-06 
-2.2995809e-01 0.0000000e+00 5.8129212e-06 
-2.3056939e-01 0.0000000e+00 4.9001319e-06 
-2.3016626e-01 0.0000000e+00 3.9873430e-06 
-2.2924283e-01 0.0000000e+00 3.0745537e-06 
-2.2829325e-01 0.0000000e+00 2.1617645e-06 
-2.2791439e-01 0.0000000e+00 1.9716106e-06 
-2.2829747e-01 0.0000000e+00 1.7814567e-06 
-2.2932810e-01 0.0000000e+00 1.5913027e-06 
-2.3089191e-01 0.0000000e+00 1.4011488e-06 
-2.3287457e-01 0.0000000e+00 1.2109949e-06 
-2.3516169e-01 0.0000000e+00 1.0208410e-06 
-2.3763891e-01 0.0000000e+00 8.3068699e-07 
-2.4019188e-01 0.0000000e+00 6.4053302e-07 
-2.4270621e-01 0.0000000e+00 4.5037908e-07 
-2.4506755e-01 0.0000000e+00 2.6022511e-07 
-2.4716155e-01 0.0000000e+00 7.0071160e-08 
-2.4887383e-01 0.0000000e+00 -1.2008279e-07 
-2.5022453e-01 0.0000000e+00 -1.5811165e-07 
-2.5132474e-01 0.0000000e+00 -1.9614052e-07 
-2.5219649e-01 0.0000000e+00 -2.3416938e-07 
-2.5286177e-01 0.0000000e+00 -2.7219824e-07 
-2.5334263e-01 0.0000000e+00 -3.1022711e-07 
-2.5366110e-01 0.0000000e+00 -3.4825595e-07 
-2.5383919e-01 0.0000000e+00 -3.8628482e-07 
-2.5389892e-01 0.0000000e+00 -4.2431367e-07 
-2.5386235e-01 0.0000000e+00 -4.6234254e-07 
-2.5375149e-01 0.0000000e+00 -5.0037141e-07 
-2.5358835e-01 0.0000000e+00 -5.3840029e-07 
-2.5339499e-01 0.0000000e+00 -5.7642910e-07 
-8.6327260e-03 0.0000000e+00 2.7593838e-03 
-3.0084111e-02 0.0000000e+00 -2.3043950e-03 
-1.2925220e-01 0.0000000e+00 7.9982460e-02 
-2.2827844e-01 0.0000000e+00 -2.3311975e-03 
-2.4887715e-01 0.0000000e+00 2.5360212e-03 
-2.5339445e-01 0.0000000e+00 -4.1516981e-04 
-8.6294999e-03 0.0000000e+00 4.6181451e-03 
-3.0098906e-02 0.0000000e+00 -5.7874308e-03 
-1.2925220e-01 0.0000000e+00 2.0243558e-01 
-2.2826362e-01 0.0000000e+00 -5.8229924e-03 
-2.4888048e-01 0.0000000e+00 4.2778859e-03 
-2.5339392e-01 0.0000000e+00 -8.3765073e-04 
-8.6262738e-03 0.0000000e+00 5.6959582e-03 
-3.0113701e-02 0.0000000e+00 -9.9681914e-03 
-1.2925221e-01 0.0000000e+00 3.6617434e-01 
-2.2824880e-01 0.0000000e+00 -9.9984379e-03 
-2.4888380e-01 0.0000000e+00 5.3254231e-03 
-2.5339338e-01 0.0000000e+00 -1.2430336e-03 
-8.6230477e-03 0.0000000e+00 6.1124992e-03 
-3.0128496e-02 0.0000000e+00 -1.4367947e-02 
-1.2925221e-01 0.0000000e+00 5.7000065e-01 
-2.2823398e-01 0.0000000e+00 -1.4382748e-02 
-2.4888712e-01 0.0000000e+00 5.7785818e-03 
-2.5339285e-01 0.0000000e+00 -1.6063325e-03 
-8.6198216e-03 0.0000000e+00 5.9874421e-03 
-3.0143291e-02 0.0000000e+00 -1.8507967e-02 
-1.2925221e-01 0.0000000e+00 8.1271636e-01 
-2.2821917e-01 0.0000000e+00 -1.8501138e-02 
-2.4889043e-01 0.0000000e+00 5.7373112e-03 
-2.5339231e-01 0.0000000e+00 -1.9025619e-03 
-8.6165965e-03 0.0000000e+00 5.4404619e-03 
-3.0158086e-02 0.0000000e+00 -2.1909522e-02 
-1.2925223e-01 0.0000000e+00 5.9312332e-01 
-2.2820434e-01 0.0000000e+00 -2.1878826e-02 
-2.4889375e-01 0.0000000e+00 5.3015603e-03 
-2.5339177e-01 0.0000000e+00 -2.1067362e-03 
-8.6133704e-03 0.0000000e+00 4.5912345e-03 
-3.0172881e-02 0.0000000e+00 -2.4093881e-02 
-1.2925223e-01 0.0000000e+00 4.1002342e-01 
-2.2818953e-01 0.0000000e+00 -2.4041019e-02 
-2.4889708e-01 0.0000000e+00 4.5712786e-03 
-2.5339124e-01 0.0000000e+00 -2.1938696e-03 
-8.6101443e-03 0.0000000e+00 3.5594336e-03 
-3.0187676e-02 0.0000000e+00 -2.4582313e-02 
-1.2925223e-01 0.0000000e+00 2.6221856e-01 
-2.2817470e-01 0.0000000e+00 -2.4512939e-02 
-2.4890040e-01 0.0000000e+00 3.6464145e-03 
-2.5339070e-01 0.0000000e+00 -2.1389762e-03 
-8.6069182e-03 0.0000000e+00 2.4647347e-03 
-3.0202471e-02 0.0000000e+00 -2.2896091e-02 
-1.2925224e-01 0.0000000e+00 1.4851061e-01 
-2.2815989e-01 0.0000000e+00 -2.2819798e-02 
-2.4890372e-01 0.0000000e+00 2.6269176e-03 
-2.5339016e-01 0.0000000e+00 -1.9170707e-03 
-8.6036921e-03 0.0000000e+00 1.4268130e-03 
-3.0217266e-02 0.0000000e+00 -1.8556481e-02 
-1.2925224e-01 0.0000000e+00 6.7701429e-02 
-2.2814508e-01 0.0000000e+00 -1.8486813e-02 
-2.4890704e-01 0.0000000e+00 1.6127367e-03 
-2.5338963e-01 0.0000000e+00 -1.5031672e-03 
-8.6004660e-03 0.0000000e+00 5.6534307e-04 
-3.0232061e-02 0.0000000e+00 -1.1084757e-02 
-1.2925224e-01 0.0000000e+00 1.8592892e-02 
-2.2813025e-01 0.0000000e+00 -1.1039196e-02 
-2.4891037e-01 0.0000000e+00 7.0382125e-04 
-2.5338909e-01 0.0000000e+00 -8.7228010e-04 
0.0000000e+00 0.0000000e+00 0.0000000e+00 
-1.1658592e-03 0.0000000e+00 -3.0662304e-16 
-2.3128614e-03 0.0000000e+00 -6.1324391e-16 
-3.4221499e-03 0.0000000e+00 -9.1986666e-16 
-4.4748676e-03 0.0000000e+00 -1.2264887e-15 
-5.4521579e-03 0.0000000e+00 -1.5331082e-15 
-6.3351640e-03 0.0000000e+00 -1.8397289e-15 
-7.1050283e-03 0.0000000e+00 -2.1463478e-15 
-7.7428943e-03 0.0000000e+00 -2.4529676e-15 
-8.2299057e-03 0.0000000e+00 -2.7595874e-15 
-8.5472045e-03 0.0000000e+00 -3.0662059e-15 
-8.6759347e-03 0.0000000e+00 -3.3728242e-15 
-8.5972399e-03 0.0000000e+00 -3.6794395e-15 
-8.3663156e-03 0.0000000e+00 -1.8214834e-07 
-8.1266770e-03 0.0000000e+00 -3.6429665e-07 
-7.9919416e-03 0.0000000e+00 -5.4644499e-07 
-8.0757271e-03 0.0000000e+00 -7.2859331e-07 
-8.4916502e-03 0.0000000e+00 -9.1074168e-07 
-9.3533285e-03 0.0000000e+00 -1.0928900e-06 
-1.0774381e-02 0.0000000e+00 -1.2750384e-06 
-1.2868424e-02 0.0000000e+00 -1.4571866e-06 
-1.5749075e-02 0.0000000e+00 -1.6393350e-06 
-1.9529954e-02 0.0000000e+00 -1.8214834e-06 
-2.4324674e-02 0.0000000e+00 -2.0036316e-06 
-3.0246858e-02 0.0000000e+00 -2.1857800e-06 
-3.7820060e-02 0.0000000e+00 -3.0965678e-06 
-4.7162808e-02 0.0000000e+00 -4.0073555e-06 
-5.7781186e-02 0.0000000e+00 -4.9181435e-06 
-6.9181263e-02 0.0000000e+00 -5.8289315e-06 
-8.0869116e-02 0.0000000e+00 -6.7397191e-06 
-9.2350826e-02 0.0000000e+00 -7.6505075e-06 
-1.0313246e-01 0.0000000e+00 -8.5612946e-06 
-1.1272010e-01 0.0000000e+00 -9.4720826e-06 
-1.2061983e-01 0.0000000e+00 -1.0382871e-05 
-1.2633771e-01 0.0000000e+00 -1.1293659e-05 
-1.2937982e-01 0.0000000e+00 -1.2204447e-05 
-1.2925225e-01 0.0000000e+00 -1.3115235e-05 
-1.2912408e-01 0.0000000e+00 -1.2202445e-05 
-1.3216425e-01 0.0000000e+00 -1.1289656e-05 
-1.3787864e-01 0.0000000e+00 -1.0376867e-05 
-1.4577311e-01 0.0000000e+00 -9.4640773e-06 
-1.5535353e-01 0.0000000e+00 -8.5512884e-06 
-1.6612574e-01 0.0000000e+00 -7.6384995e-06 
-1.7759565e-01 0.0000000e+00 -6.7257101e-06 
-1.8926907e-01 0.0000000e+00 -5.8129212e-06 
-2.0065190e-01 0.0000000e+00 -4.9001319e-06 
-2.1124999e-01 0.0000000e+00 -3.9873430e-06 
-2.2056922e-01 0.0000000e+00 -3.0745537e-06 
-2.2811544e-01 0.0000000e+00 -2.1617645e-06 
-2.3400395e-01 0.0000000e+00 -1.9716106e-06 
-2.3875573e-01 0.0000000e+00 -1.7814567e-06 
-2.4248517e-01 0.0000000e+00 -1.5913027e-06 
-2.4530660e-01 0.0000000e+00 -1.4011488e-06 
-2.4733438e-01 0.0000000e+00 -1.2109949e-06 
-2.4868290e-01 0.0000000e+00 -1.0208410e-06 
-2.4946651e-01 0.0000000e+00 -8.3068699e-07 
-2.4979958e-01 0.0000000e+00 -6.4053302e-07 
-2.4979647e-01 0.0000000e+00 -4.5037908e-07 
-2.4957153e-01 0.0000000e+00 -2.6022511e-07 
-2.4923915e-01 0.0000000e+00 -7.0071160e-08 
-2.4891369e-01 0.0000000e+00 1.2008279e-07 
-2.4872491e-01 0.0000000e+00 1.5811165e-07 
-2.4871168e-01 0.0000000e+00 1.9614052e-07 
-2.4885195e-01 0.0000000e+00 2.3416938e-07 
-2.4912374e-01 0.0000000e+00 2.7219824e-07 
-2.4950497e-01 0.0000000e+00 3.1022711e-07 
-2.4997365e-01 0.0000000e+00 3.4825595e-07 
-2.5050774e-01 0.0000000e+00 3.8628482e-07 
-2.5108522e-01 0.0000000e+00 4.2431367e-07 
-2.5168407e-01 0.0000000e+00 4.6234254e-07 
-2.5228226e-01 0.0000000e+00 5.0037141e-07 
-2.5285774e-01 0.0000000e+00 5.3840029e-07 
-2.5338855e-01 0.0000000e+00 5.7642910e-07 
ADJOINT_ROTATION 3 212  float
0.0000000e+00 -1.0683895e-03 0.0000000e+00 
0.0000000e+00 -1.1061033e-03 0.0000000e+00 
0.0000000e+00 -1.2192447e-03 0.0000000e+00 
0.0000000e+00 -1.4078135e-03 0.0000000e+00 
0.0000000e+00 -1.6718099e-03 0.0000000e+00 
0.0000000e+00 -2.0112339e-03 0.0000000e+00 
0.0000000e+00 -2.4260855e-03 0.0000000e+00 
0.0000000e+00 -2.9163647e-03 0.0000000e+00 
0.0000000e+00 -3.4820712e-03 0.0000000e+00 
0.0000000e+00 -4.1232053e-03 0.0000000e+00 
0.0000000e+00 -4.8397672e-03 0.0000000e+00 
0.0000000e+00 -5.6317565e-03 0.0000000e+00 
0.0000000e+00 -6.4991736e-03 0.0000000e+00 
0.0000000e+00 -8.1973663e-03 0.0000000e+00 
0.0000000e+00 -9.4410889e-03 0.0000000e+00 
0.0000000e+00 -1.0230342e-02 0.0000000e+00 
0.0000000e+00 -1.0565124e-02 0.0000000e+00 
0.0000000e+00 -1.0445436e-02 0.0000000e+00 
0.0000000e+00 -9.8712761e-03 0.0000000e+00 
0.0000000e+00 -8.8426471e-03 0.0000000e+00 
0.0000000e+00 -7.3595480e-03 0.0000000e+00 
0.0000000e+00 -5.4219784e-03 0.0000000e+00 
0.0000000e+00 -3.0299381e-03 0.0000000e+00 
0.0000000e+00 -1.8342774e-04 0.0000000e+00 
0.0000000e+00 3.1175530e-03 0.0000000e+00 
0.0000000e+00 4.0027360e-03 0.0000000e+00 
0.0000000e+00 2.9122233e-03 0.0000000e+00 
0.0000000e+00 -1.5398501e-04 0.0000000e+00 
0.0000000e+00 -5.1958892e-03 0.0000000e+00 
0.0000000e+00 -1.2213488e-02 0.0000000e+00 
0.0000000e+00 -2.1206783e-02 0.0000000e+00 
0.0000000e+00 -3.2175776e-02 0.0000000e+00 
0.0000000e+00 -4.5120463e-02 0.0000000e+00 
0.0000000e+00 -6.0040843e-02 0.0000000e+00 
0.0000000e+00 -7.6936923e-02 0.0000000e+00 
0.0000000e+00 -9.5808692e-02 0.0000000e+00 
0.0000000e+00 -1.1665616e-01 0.0000000e+00 
0.0000000e+00 -9.5797852e-02 0.0000000e+00 
0.0000000e+00 -7.6916084e-02 0.0000000e+00 
0.0000000e+00 -6.0010854e-02 0.0000000e+00 
0.0000000e+00 -4.5082171e-02 0.0000000e+00 
0.0000000e+00 -3.2130033e-02 0.0000000e+00 
0.0000000e+00 -2.1154433e-02 0.0000000e+00 
0.0000000e+00 -1.2155377e-02 0.0000000e+00 
0.0000000e+00 -5.1328647e-03 0.0000000e+00 
0.0000000e+00 -8.6894404e-05 0.0000000e+00 
0.0000000e+00 2.9825331e-03 0.0000000e+00 
0.0000000e+00 4.0754178e-03 0.0000000e+00 
0.0000000e+00 3.1917596e-03 0.0000000e+00 
0.0000000e+00 -8.4662395e-05 0.0000000e+00 
0.0000000e+00 -2.9036282e-03 0.0000000e+00 
0.0000000e+00 -5.2651376e-03 0.0000000e+00 
0.0000000e+00 -7.1691908e-03 0.0000000e+00 
0.0000000e+00 -8.6157881e-03 0.0000000e+00 
0.0000000e+00 -9.6049290e-03 0.0000000e+00 
0.0000000e+00 -1.0136614e-02 0.0000000e+00 
0.0000000e+00 -1.0210842e-02 0.0000000e+00 
0.0000000e+00 -9.8276138e-03 0.0000000e+00 
0.0000000e+00 -8.9869294e-03 0.0000000e+00 
0.0000000e+00 -7.6887887e-03 0.0000000e+00 
0.0000000e+00 -5.9331921e-03 0.0000000e+00 
0.0000000e+00 -4.8871441e-03 0.0000000e+00 
0.0000000e+00 -3.9291983e-03 0.0000000e+00 
0.0000000e+00 -3.0593544e-03 0.0000000e+00 
0.0000000e+00 -2.2776129e-03 0.0000000e+00 
0.0000000e+00 -1.5839735e-03 0.0000000e+00 
0.0000000e+00 -9.7843620e-04 0.0000000e+00 
0.0000000e+00 -4.6100112e-04 0.0000000e+00 
0.0000000e+00 -3.1668184e-05 0.0000000e+00 
0.0000000e+00 3.0956260e-04 0.0000000e+00 
0.0000000e+00 5.6269125e-04 0.0000000e+00 
0.0000000e+00 7.2771771e-04 0.0000000e+00 
0.0000000e+00 8.0464204e-04 0.0000000e+00 
0.0000000e+00 -4.5782533e-03 0.0000000e+00 
0.0000000e+00 5.9491931e-03 0.0000000e+00 
0.0000000e+00 -2.0282184e-01 0.0000000e+00 
0.0000000e+00 5.9834160e-03 0.0000000e+00 
0.0000000e+00 -4.2446898e-03 0.0000000e+00 
0.0000000e+00 8.4540283e-04 0.0000000e+00 
0.0000000e+00 -2.8966828e-03 0.0000000e+00 
0.0000000e+00 7.8233732e-03 0.0000000e+00 
0.0000000e+00 -2.8659126e-01 0.0000000e+00 
0.0000000e+00 7.8255022e-03 0.0000000e+00 
0.0000000e+00 -2.7560855e-03 0.0000000e+00 
0.0000000e+00 8.3619228e-04 0.0000000e+00 
0.0000000e+00 -1.4544625e-03 0.0000000e+00 
0.0000000e+00 8.7400926e-03 0.0000000e+00 
0.0000000e+00 -3.6796445e-01 0.0000000e+00 
0.0000000e+00 8.7180175e-03 0.0000000e+00 
0.0000000e+00 -1.4673795e-03 0.0000000e+00 
0.0000000e+00 7.7701034e-04 0.0000000e+00 
0.0000000e+00 -2.5159202e-04 0.0000000e+00 
0.0000000e+00 8.6993519e-03 0.0000000e+00 
0.0000000e+00 -4.4694138e-01 0.0000000e+00 
0.0000000e+00 8.6609628e-03 0.0000000e+00 
0.0000000e+00 -3.7857177e-04 0.0000000e+00 
0.0000000e+00 6.6785695e-04 0.0000000e+00 
0.0000000e+00 7.1192859e-04 0.0000000e+00 
0.0000000e+00 7.7011515e-03 0.0000000e+00 
0.0000000e+00 -5.2352202e-01 0.0000000e+00 
0.0000000e+00 7.6543381e-03 0.0000000e+00 
0.0000000e+00 5.1033782e-04 0.0000000e+00 
0.0000000e+00 5.0873222e-04 0.0000000e+00 
0.0000000e+00 1.4360993e-03 0.0000000e+00 
0.0000000e+00 5.7454901e-03 0.0000000e+00 
0.0000000e+00 4.0229353e-01 0.0000000e+00 
0.0000000e+00 5.6981426e-03 0.0000000e+00 
0.0000000e+00 1.1993492e-03 0.0000000e+00 
0.0000000e+00 2.9963616e-04 0.0000000e+00 
0.0000000e+00 1.9209202e-03 0.0000000e+00 
0.0000000e+00 2.8323687e-03 0.0000000e+00 
0.0000000e+00 3.3050537e-01 0.0000000e+00 
0.0000000e+00 2.7923770e-03 0.0000000e+00 
0.0000000e+00 1.6884623e-03 0.0000000e+00 
0.0000000e+00 4.0568659e-05 0.0000000e+00 
0.0000000e+00 2.1663911e-03 0.0000000e+00 
0.0000000e+00 -1.0382129e-03 0.0000000e+00 
0.0000000e+00 2.6111344e-01 0.0000000e+00 
0.0000000e+00 -1.0629591e-03 0.0000000e+00 
0.0000000e+00 1.9776772e-03 0.0000000e+00 
0.0000000e+00 -2.6847020e-04 0.0000000e+00 
0.0000000e+00 2.1725122e-03 0.0000000e+00 
0.0000000e+00 -5.8662547e-03 0.0000000e+00 
0.0000000e+00 1.9411777e-01 0.0000000e+00 
0.0000000e+00 -5.8678654e-03 0.0000000e+00 
0.0000000e+00 2.0669941e-03 0.0000000e+00 
0.0000000e+00 -6.2748045e-04 0.0000000e+00 
0.0000000e+00 1.9392833e-03 0.0000000e+00 
0.0000000e+00 -1.1651757e-02 0.0000000e+00 
0.0000000e+00 1.2951834e-01 0.0000000e+00 
0.0000000e+00 -1.1622342e-02 0.0000000e+00 
0.0000000e+00 1.9564126e-03 0.0000000e+00 
0.0000000e+00 -1.0364621e-03 0.0000000e+00 
0.0000000e+00 1.4667046e-03 0.0000000e+00 
0.0000000e+00 -1.8394720e-02 0.0000000e+00 
0.0000000e+00 6.7315169e-02 0.0000000e+00 
0.0000000e+00 -1.8326389e-02 0.0000000e+00 
0.0000000e+00 1.6459330e-03 0.0000000e+00 
0.0000000e+00 -1.4954151e-03 0.0000000e+00 
0.0000000e+00 -4.6760077e-03 0.0000000e+00 
0.0000000e+00 -4.6382942e-03 0.0000000e+00 
0.0000000e+00 -4.5251525e-03 0.0000000e+00 
0.0000000e+00 -4.3365839e-03 0.0000000e+00 
0.0000000e+00 -4.0725875e-03 0.0000000e+00 
0.0000000e+00 -3.7331635e-03 0.0000000e+00 
0.0000000e+00 -3.3183119e-03 0.0000000e+00 
0.0000000e+00 -2.8280327e-03 0.0000000e+00 
0.0000000e+00 -2.2623262e-03 0.0000000e+00 
0.0000000e+00 -1.6211919e-03 0.0000000e+00 
0.0000000e+00 -9.0463011e-04 0.0000000e+00 
0.0000000e+00 -1.1264081e-04 0.0000000e+00 
0.0000000e+00 7.5477606e-04 0.0000000e+00 
0.0000000e+00 1.0168698e-03 0.0000000e+00 
0.0000000e+00 8.2449312e-04 0.0000000e+00 
0.0000000e+00 1.7764611e-04 0.0000000e+00 
0.0000000e+00 -9.2367124e-04 0.0000000e+00 
0.0000000e+00 -2.4794589e-03 0.0000000e+00 
0.0000000e+00 -4.4897171e-03 0.0000000e+00 
0.0000000e+00 -6.9544455e-03 0.0000000e+00 
0.0000000e+00 -9.8736444e-03 0.0000000e+00 
0.0000000e+00 -1.3247313e-02 0.0000000e+00 
0.0000000e+00 -1.7075453e-02 0.0000000e+00 
0.0000000e+00 -2.1358062e-02 0.0000000e+00 
0.0000000e+00 -2.6095143e-02 0.0000000e+00 
0.0000000e+00 -3.4161188e-02 0.0000000e+00 
0.0000000e+00 -4.0251534e-02 0.0000000e+00 
0.0000000e+00 -4.4366188e-02 0.0000000e+00 
0.0000000e+00 -4.6505146e-02 0.0000000e+00 
0.0000000e+00 -4.6668407e-02 0.0000000e+00 
0.0000000e+00 -4.4855971e-02 0.0000000e+00 
0.0000000e+00 -4.1067842e-02 0.0000000e+00 
0.0000000e+00 -3.5304017e-02 0.0000000e+00 
0.0000000e+00 -2.7564496e-02 0.0000000e+00 
0.0000000e+00 -1.7849278e-02 0.0000000e+00 
0.0000000e+00 -6.1583659e-03 0.0000000e+00 
0.0000000e+00 7.5082420e-03 0.0000000e+00 
0.0000000e+00 -6.1534303e-03 0.0000000e+00 
0.0000000e+00 -1.7838560e-02 0.0000000e+00 
0.0000000e+00 -2.7547147e-02 0.0000000e+00 
0.0000000e+00 -3.5279192e-02 0.0000000e+00 
0.0000000e+00 -4.1034691e-02 0.0000000e+00 
0.0000000e+00 -4.4813652e-02 0.0000000e+00 
0.0000000e+00 -4.6616066e-02 0.0000000e+00 
0.0000000e+00 -4.6441939e-02 0.0000000e+00 
0.0000000e+00 -4.4291273e-02 0.0000000e+00 
0.0000000e+00 -4.0164057e-02 0.0000000e+00 
0.0000000e+00 -3.4060303e-02 0.0000000e+00 
0.0000000e+00 -2.5980007e-02 0.0000000e+00 
0.0000000e+00 -2.1204367e-02 0.0000000e+00 
0.0000000e+00 -1.6886184e-02 0.0000000e+00 
0.0000000e+00 -1.3025457e-02 0.0000000e+00 
0.0000000e+00 -9.6221855e-03 0.0000000e+00 
0.0000000e+00 -6.6763712e-03 0.0000000e+00 
0.0000000e+00 -4.1880133e-03 0.0000000e+00 
0.0000000e+00 -2.1571112e-03 0.0000000e+00 
0.0000000e+00 -5.8366533e-04 0.0000000e+00 
0.0000000e+00 5.3232413e-04 0.0000000e+00 
0.0000000e+00 1.1908574e-03 0.0000000e+00 
0.0000000e+00 1.3919345e-03 0.0000000e+00 
0.0000000e+00 1.1355552e-03 0.0000000e+00 
0.0000000e+00 3.8933547e-04 0.0000000e+00 
0.0000000e+00 -2.6878211e-04 0.0000000e+00 