# vtk DataFile Version 4.0
vtk output
ASCII
DATASET UNSTRUCTURED_GRID
POINTS 212 float
0.0000000e+00 0.0000000e+00 0.0000000e+00 
0.0000000e+00 0.0000000e+00 2.5000000e-01 
0.0000000e+00 0.0000000e+00 5.0000000e-01 
0.0000000e+00 0.0000000e+00 7.5000000e-01 
0.0000000e+00 0.0000000e+00 1.0000000e+00 
0.0000000e+00 0.0000000e+00 1.2500000e+00 
0.0000000e+00 0.0000000e+00 1.5000000e+00 
0.0000000e+00 0.0000000e+00 1.7500000e+00 
0.0000000e+00 0.0000000e+00 2.0000000e+00 
0.0000000e+00 0.0000000e+00 2.2500000e+00 
0.0000000e+00 0.0000000e+00 2.5000000e+00 
0.0000000e+00 0.0000000e+00 2.7500000e+00 
0.0000000e+00 0.0000000e+00 3.0000000e+00 
0.0000000e+00 0.0000000e+00 3.2500000e+00 
0.0000000e+00 0.0000000e+00 3.5000000e+00 
0.0000000e+00 0.0000000e+00 3.7500000e+00 
0.0000000e+00 0.0000000e+00 4.0000000e+00 
0.0000000e+00 0.0000000e+00 4.2500000e+00 
0.0000000e+00 0.0000000e+00 4.5000000e+00 
0.0000000e+00 0.0000000e+00 4.7500000e+00 
0.0000000e+00 0.0000000e+00 5.0000000e+00 
0.0000000e+00 0.0000000e+00 5.2500000e+00 
0.0000000e+00 0.0000000e+00 5.5000000e+00 
0.0000000e+00 0.0000000e+00 5.7500000e+00 
0.0000000e+00 0.0000000e+00 6.0000000e+00 
0.0000000e+00 0.0000000e+00 6.2500000e+00 
0.0000000e+00 0.0000000e+00 6.5000000e+00 
0.0000000e+00 0.0000000e+00 6.7500000e+00 
0.0000000e+00 0.0000000e+00 7.0000000e+00 
0.0000000e+00 0.0000000e+00 7.2500000e+00 
0.0000000e+00 0.0000000e+00 7.5000000e+00 
0.0000000e+00 0.0000000e+00 7.7500000e+00 
0.0000000e+00 0.0000000e+00 8.0000000e+00 
0.0000000e+00 0.0000000e+00 8.2500000e+00 
0.0000000e+00 0.0000000e+00 8.5000000e+00 
0.0000000e+00 0.0000000e+00 8.7500000e+00 
0.0000000e+00 0.0000000e+00 9.0000000e+00 
0.0000000e+00 0.0000000e+00 9.2500000e+00 
0.0000000e+00 0.0000000e+00 9.5000000e+00 
0.0000000e+00 0.0000000e+00 9.7500000e+00 
0.0000000e+00 0.0000000e+00 1.0000000e+01 
0.0000000e+00 0.0000000e+00 1.0250000e+01 
0.0000000e+00 0.0000000e+00 1.0500000e+01 
0.0000000e+00 0.0000000e+00 1.0750000e+01 
0.0000000e+00 0.0000000e+00 1.1000000e+01 
0.0000000e+00 0.0000000e+00 1.1250000e+01 
0.0000000e+00 0.0000000e+00 1.1500000e+01 
0.0000000e+00 0.0000000e+00 1.1750000e+01 
0.0000000e+00 0.0000000e+00 1.2000000e+01 
0.0000000e+00 0.0000000e+00 1.2250000e+01 
0.0000000e+00 0.0000000e+00 1.2500000e+01 
0.0000000e+00 0.0000000e+00 1.2750000e+01 
0.0000000e+00 0.0000000e+00 1.3000000e+01 
0.0000000e+00 0.0000000e+00 1.3250000e+01 
0.0000000e+00 0.0000000e+00 1.3500000e+01 
0.0000000e+00 0.0000000e+00 1.3750000e+01 
0.0000000e+00 0.0000000e+00 1.4000000e+01 
0.0000000e+00 0.0000000e+00 1.4250000e+01 
0.0000000e+00 0.0000000e+00 1.4500000e+01 
0.0000000e+00 0.0000000e+00 1.4750000e+01 
0.0000000e+00 0.0000000e+00 1.5000000e+01 
0.0000000e+00 0.0000000e+00 1.5250000e+01 
0.0000000e+00 0.0000000e+00 1.5500000e+01 
0.0000000e+00 0.0000000e+00 1.5750000e+01 
0.0000000e+00 0.0000000e+00 1.6000000e+01 
0.0000000e+00 0.0000000e+00 1.6250000e+01 
0.0000000e+00 0.0000000e+00 1.6500000e+01 
0.0000000e+00 0.0000000e+00 1.6750000e+01 
0.0000000e+00 0.0000000e+00 1.7000000e+01 
0.0000000e+00 0.0000000e+00 1.7250000e+01 
0.0000000e+00 0.0000000e+00 1.7500000e+01 
0.0000000e+00 0.0000000e+00 1.7750000e+01 
0.0000000e+00 0.0000000e+00 1.8000000e+01 
5.0000000e-01 0.0000000e+00 3.0000000e+00 
5.0000000e-01 0.0000000e+00 6.0000000e+00 
5.0000000e-01 0.0000000e+00 9.0000000e+00 
5.0000000e-01 0.0000000e+00 1.2000000e+01 
5.0000000e-01 0.0000000e+00 1.5000000e+01 
5.0000000e-01 0.0000000e+00 1.8000000e+01 
1.0000000e+00 0.0000000e+00 3.0000000e+00 
1.0000000e+00 0.0000000e+00 6.0000000e+00 
1.0000000e+00 0.0000000e+00 9.0000000e+00 
1.0000000e+00 0.0000000e+00 1.2000000e+01 
1.0000000e+00 0.0000000e+00 1.5000000e+01 
1.0000000e+00 0.0000000e+00 1.8000000e+01 
1.5000000e+00 0.0000000e+00 3.0000000e+00 
1.5000000e+00 0.0000000e+00 6.0000000e+00 
1.5000000e+00 0.0000000e+00 9.0000000e+00 
1.5000000e+00 0.0000000e+00 1.2000000e+01 
1.5000000e+00 0.0000000e+00 1.5000000e+01 
1.5000000e+00 0.0000000e+00 1.8000000e+01 
2.0000000e+00 0.0000000e+00 3.0000000e+00 
2.0000000e+00 0.0000000e+00 6.0000000e+00 
2.0000000e+00 0.0000000e+00 9.0000000e+00 
2.0000000e+00 0.0000000e+00 1.2000000e+01 
2.0000000e+00 0.0000000e+00 1.5000000e+01 
2.0000000e+00 0.0000000e+00 1.8000000e+01 
2.5000000e+00 0.0000000e+00 3.0000000e+00 
2.5000000e+00 0.0000000e+00 6.0000000e+00 
2.5000000e+00 0.0000000e+00 9.0000000e+00 
2.5000000e+00 0.0000000e+00 1.2000000e+01 
2.5000000e+00 0.0000000e+00 1.5000000e+01 
2.5000000e+00 0.0000000e+00 1.8000000e+01 
3.0000000e+00 0.0000000e+00 3.0000000e+00 
3.0000000e+00 0.0000000e+00 6.0000000e+00 
3.0000000e+00 0.0000000e+00 9.0000000e+00 
3.0000000e+00 0.0000000e+00 1.2000000e+01 
3.0000000e+00 0.0000000e+00 1.5000000e+01 
3.0000000e+00 0.0000000e+00 1.8000000e+01 
3.5000000e+00 0.0000000e+00 3.0000000e+00 
3.5000000e+00 0.0000000e+00 6.0000000e+00 
3.5000000e+00 0.0000000e+00 9.0000000e+00 
3.5000000e+00 0.0000000e+00 1.2000000e+01 
3.5000000e+00 0.0000000e+00 1.5000000e+01 
3.5000000e+00 0.0000000e+00 1.8000000e+01 
4.0000000e+00 0.0000000e+00 3.0000000e+00 
4.0000000e+00 0.0000000e+00 6.0000000e+00 
4.0000000e+00 0.0000000e+00 9.0000000e+00 
4.0000000e+00 0.0000000e+00 1.2000000e+01 
4.0000000e+00 0.0000000e+00 1.5000000e+01 
4.0000000e+00 0.0000000e+00 1.8000000e+01 
4.5000000e+00 0.0000000e+00 3.0000000e+00 
4.5000000e+00 0.0000000e+00 6.0000000e+00 
4.5000000e+00 0.0000000e+00 9.0000000e+00 
4.5000000e+00 0.0000000e+00 1.2000000e+01 
4.5000000e+00 0.0000000e+00 1.5000000e+01 
4.5000000e+00 0.0000000e+00 1.8000000e+01 
5.0000000e+00 0.0000000e+00 3.0000000e+00 
5.0000000e+00 0.0000000e+00 6.0000000e+00 
5.0000000e+00 0.0000000e+00 9.0000000e+00 
5.0000000e+00 0.0000000e+00 1.2000000e+01 
5.0000000e+00 0.0000000e+00 1.5000000e+01 
5.0000000e+00 0.0000000e+00 1.8000000e+01 
5.5000000e+00 0.0000000e+00 3.0000000e+00 
5.5000000e+00 0.0000000e+00 6.0000000e+00 
5.5000000e+00 0.0000000e+00 9.0000000e+00 
5.5000000e+00 0.0000000e+00 1.2000000e+01 
5.5000000e+00 0.0000000e+00 1.5000000e+01 
5.5000000e+00 0.0000000e+00 1.8000000e+01 
6.0000000e+00 0.0000000e+00 0.0000000e+00 
6.0000000e+00 0.0000000e+00 2.5000000e-01 
6.0000000e+00 0.0000000e+00 5.0000000e-01 
6.0000000e+00 0.0000000e+00 7.5000000e-01 
6.0000000e+00 0.0000000e+00 1.0000000e+00 
6.0000000e+00 0.0000000e+00 1.2500000e+00 
6.0000000e+00 0.0000000e+00 1.5000000e+00 
6.0000000e+00 0.0000000e+00 1.7500000e+00 
6.0000000e+00 0.0000000e+00 2.0000000e+00 
6.0000000e+00 0.0000000e+00 2.2500000e+00 
6.0000000e+00 0.0000000e+00 2.5000000e+00 
6.0000000e+00 0.0000000e+00 2.7500000e+00 
6.0000000e+00 0.0000000e+00 3.0000000e+00 
6.0000000e+00 0.0000000e+00 3.2500000e+00 
6.0000000e+00 0.0000000e+00 3.5000000e+00 
6.0000000e+00 0.0000000e+00 3.7500000e+00 
6.0000000e+00 0.0000000e+00 4.0000000e+00 
6.0000000e+00 0.0000000e+00 4.2500000e+00 
6.0000000e+00 0.0000000e+00 4.5000000e+00 
6.0000000e+00 0.0000000e+00 4.7500000e+00 
6.0000000e+00 0.0000000e+00 5.0000000e+00 
6.0000000e+00 0.0000000e+00 5.2500000e+00 
6.0000000e+00 0.0000000e+00 5.5000000e+00 
6.0000000e+00 0.0000000e+00 5.7500000e+00 
6.0000000e+00 0.0000000e+00 6.0000000e+00 
6.0000000e+00 0.0000000e+00 6.2500000e+00 
6.0000000e+00 0.0000000e+00 6.5000000e+00 
6.0000000e+00 0.0000000e+00 6.7500000e+00 
6.0000000e+00 0.0000000e+00 7.0000000e+00 
6.0000000e+00 0.0000000e+00 7.2500000e+00 
6.0000000e+00 0.0000000e+00 7.5000000e+00 
6.0000000e+00 0.0000000e+00 7.7500000e+00 
6.0000000e+00 0.0000000e+00 8.0000000e+00 
6.0000000e+00 0.0000000e+00 8.2500000e+00 
6.0000000e+00 0.0000000e+00 8.5000000e+00 
6.0000000e+00 0.0000000e+00 8.7500000e+00 
6.0000000e+00 0.0000000e+00 9.0000000e+00 
6.0000000e+00 0.0000000e+00 9.2500000e+00 
6.0000000e+00 0.0000000e+00 9.5000000e+00 
6.0000000e+00 0.0000000e+00 9.7500000e+00 
6.0000000e+00 0.0000000e+00 1.0000000e+01 
6.0000000e+00 0.0000000e+00 1.0250000e+01 
6.0000000e+00 0.0000000e+00 1.0500000e+01 
6.0000000e+00 0.0000000e+00 1.0750000e+01 
6.0000000e+00 0.0000000e+00 1.1000000e+01 
6.0000000e+00 0.0000000e+00 1.1250000e+01 
6.0000000e+00 0.0000000e+00 1.1500000e+01 
6.0000000e+00 0.0000000e+00 1.1750000e+01 
6.0000000e+00 0.0000000e+00 1.2000000e+01 
6.0000000e+00 0.0000000e+00 1.2250000e+01 
6.0000000e+00 0.0000000e+00 1.2500000e+01 
6.0000000e+00 0.0000000e+00 1.2750000e+01 
6.0000000e+00 0.0000000e+00 1.3000000e+01 
6.0000000e+00 0.0000000e+00 1.3250000e+01 
6.0000000e+00 0.0000000e+00 1.3500000e+01 
6.0000000e+00 0.0000000e+00 1.3750000e+01 
6.0000000e+00 0.0000000e+00 1.4000000e+01 
6.0000000e+00 0.0000000e+00 1.4250000e+01 
6.0000000e+00 0.0000000e+00 1.4500000e+01 
6.0000000e+00 0.0000000e+00 1.4750000e+01 
6.0000000e+00 0.0000000e+00 1.5000000e+01 
6.0000000e+00 0.0000000e+00 1.5250000e+01 
6.0000000e+00 0.0000000e+00 1.5500000e+01 
6.0000000e+00 0.0000000e+00 1.5750000e+01 
6.0000000e+00 0.0000000e+00 1.6000000e+01 
6.0000000e+00 0.0000000e+00 1.6250000e+01 
6.0000000e+00 0.0000000e+00 1.6500000e+01 
6.0000000e+00 0.0000000e+00 1.6750000e+01 
6.0000000e+00 0.0000000e+00 1.7000000e+01 
6.0000000e+00 0.0000000e+00 1.7250000e+01 
6.0000000e+00 0.0000000e+00 1.7500000e+01 
6.0000000e+00 0.0000000e+00 1.7750000e+01 
6.0000000e+00 0.0000000e+00 1.8000000e+01 

CELLS 216 648
2 0 1
2 1 2
2 2 3
2 3 4
2 4 5
2 5 6
2 6 7
2 7 8
2 8 9
2 9 10
2 10 11
2 11 12
2 12 13
2 13 14
2 14 15
2 15 16
2 16 17
2 17 18
2 18 19
2 19 20
2 20 21
2 21 22
2 22 23
2 23 24
2 24 25
2 25 26
2 26 27
2 27 28
2 28 29
2 29 30
2 30 31
2 31 32
2 32 33
2 33 34
2 34 35
2 35 36
2 36 37
2 37 38
2 38 39
2 39 40
2 40 41
2 41 42
2 42 43
2 43 44
2 44 45
2 45 46
2 46 47
2 47 48
2 48 49
2 49 50
2 50 51
2 51 52
2 52 53
2 53 54
2 54 55
2 55 56
2 56 57
2 57 58
2 58 59
2 59 60
2 60 61
2 61 62
2 62 63
2 63 64
2 64 65
2 65 66
2 66 67
2 67 68
2 68 69
2 69 70
2 70 71
2 71 72
2 139 140
2 140 141
2 141 142
2 142 143
2 143 144
2 144 145
2 145 146
2 146 147
2 147 148
2 148 149
2 149 150
2 150 151
2 151 152
2 152 153
2 153 154
2 154 155
2 155 156
2 156 157
2 157 158
2 158 159
2 159 160
2 160 161
2 161 162
2 162 163
2 163 164
2 164 165
2 165 166
2 166 167
2 167 168
2 168 169
2 169 170
2 170 171
2 171 172
2 172 173
2 173 174
2 174 175
2 175 176
2 176 177
2 177 178
2 178 179
2 179 180
2 180 181
2 181 182
2 182 183
2 183 184
2 184 185
2 185 186
2 186 187
2 187 188
2 188 189
2 189 190
2 190 191
2 191 192
2 192 193
2 193 194
2 194 195
2 195 196
2 196 197
2 197 198
2 198 199
2 199 200
2 200 201
2 201 202
2 202 203
2 203 204
2 204 205
2 205 206
2 206 207
2 207 208
2 208 209
2 209 210
2 210 211
2 12 73
2 73 79
2 79 85
2 85 91
2 91 97
2 97 103
2 103 109
2 109 115
2 115 121
2 121 127
2 127 133
2 133 151
2 24 74
2 74 80
2 80 86
2 86 92
2 92 98
2 98 104
2 104 110
2 110 116
2 116 122
2 122 128
2 128 134
2 134 163
2 36 75
2 75 81
2 81 87
2 87 93
2 93 99
2 99 105
2 105 111
2 111 117
2 117 123
2 123 129
2 129 135
2 135 175
2 48 76
2 76 82
2 82 88
2 88 94
2 94 100
2 100 106
2 106 112
2 112 118
2 118 124
2 124 130
2 130 136
2 136 187
2 60 77
2 77 83
2 83 89
2 89 95
2 95 101
2 101 107
2 107 113
2 113 119
2 119 125
2 125 131
2 131 137
2 137 199
2 72 78
2 78 84
2 84 90
2 90 96
2 96 102
2 102 108
2 108 114
2 114 120
2 120 126
2 126 132
2 132 138
2 138 211

CELL_TYPES 216
3
3
3
3
3
3
3
3
3
3
3
3
3
3
3
3
3
3
3
3
3
3
3
3
3
3
3
3
3
3
3
3
3
3
3
3
3
3
3
3
3
3
3
3
3
3
3
3
3
3
3
3
3
3
3
3
3
3
3
3
3
3
3
3
3
3
3
3
3
3
3
3
3
3
3
3
3
3
3
3
3
3
3
3
3
3
3
3
3
3
3
3
3
3
3
3
3
3
3
3
3
3
3
3
3
3
3
3
3
3
3
3
3
3
3
3
3
3
3
3
3
3
3
3
3
3
3
3
3
3
3
3
3
3
3
3
3
3
3
3
3
3
3
3
3
3
3
3
3
3
3
3
3
3
3
3
3
3
3
3
3
3
3
3
3
3
3
3
3
3
3
3
3
3
3
3
3
3
3
3
3
3
3
3
3
3
3
3
3
3
3
3
3
3
3
3
3
3
3
3
3
3
3
3
3
3
3
3
3
3
3
3
3
3
3
3
POINT_DATA 212
FIELD FieldData 8
DISPLACEMENT 3 212  float
0.0000000e+00 0.0000000e+00 0.0000000e+00 
-4.6065061e-06 0.0000000e+00 -4.2491110e-06 
-9.0234580e-06 0.0000000e+00 -8.4694921e-06 
-1.3061303e-05 0.0000000e+00 -1.2661143e-05 
-1.6530486e-05 0.0000000e+00 -1.6824064e-05 
-1.9241455e-05 0.0000000e+00 -2.0958256e-05 
-2.1004656e-05 0.0000000e+00 -2.5063717e-05 
-2.1630534e-05 0.0000000e+00 -2.9140449e-05 
-2.0929536e-05 0.0000000e+00 -3.3188451e-05 
-1.8712108e-05 0.0000000e+00 -3.7207723e-05 
-1.4788698e-05 0.0000000e+00 -4.1198262e-05 
-8.9697487e-06 0.0000000e+00 -4.5160075e-05 
-1.0657097e-06 0.0000000e+00 -4.9093156e-05 
6.0804314e-06 0.0000000e+00 -5.2631687e-05 
9.9072749e-06 0.0000000e+00 -5.6141489e-05 
1.1026757e-05 0.0000000e+00 -5.9622562e-05 
1.0050815e-05 0.0000000e+00 -6.3074905e-05 
7.5913863e-06 0.0000000e+00 -6.6498513e-05 
4.2604070e-06 0.0000000e+00 -6.9893395e-05 
6.6981426e-07 0.0000000e+00 -7.3259551e-05 
-2.5684549e-06 0.0000000e+00 -7.6596974e-05 
-4.8424636e-06 0.0000000e+00 -7.9905665e-05 
-5.5402752e-06 0.0000000e+00 -8.3185623e-05 
-4.0499522e-06 0.0000000e+00 -8.6436856e-05 
2.4044166e-07 0.0000000e+00 -8.9659363e-05 
4.6942146e-06 0.0000000e+00 -9.2487317e-05 
6.6111429e-06 0.0000000e+00 -9.5286538e-05 
6.5078671e-06 0.0000000e+00 -9.8057026e-05 
4.9010278e-06 0.0000000e+00 -1.0079879e-04 
2.3072646e-06 0.0000000e+00 -1.0351183e-04 
-7.5678184e-07 0.0000000e+00 -1.0619612e-04 
-3.7744712e-06 0.0000000e+00 -1.0885170e-04 
-6.2291629e-06 0.0000000e+00 -1.1147854e-04 
-7.6042174e-06 0.0000000e+00 -1.1407665e-04 
-7.3829938e-06 0.0000000e+00 -1.1664604e-04 
-5.0488516e-06 0.0000000e+00 -1.1918669e-04 
-8.5150965e-08 0.0000000e+00 -1.2169861e-04 
4.8208053e-06 0.0000000e+00 -1.2381599e-04 
7.0042138e-06 0.0000000e+00 -1.2590463e-04 
7.0154638e-06 0.0000000e+00 -1.2796454e-04 
5.4049437e-06 0.0000000e+00 -1.2999572e-04 
2.7230426e-06 0.0000000e+00 -1.3199818e-04 
-4.7984992e-07 0.0000000e+00 -1.3397190e-04 
-3.6533454e-06 0.0000000e+00 -1.3591690e-04 
-6.2470544e-06 0.0000000e+00 -1.3783317e-04 
-7.7105879e-06 0.0000000e+00 -1.3972069e-04 
-7.4935579e-06 0.0000000e+00 -1.4157950e-04 
-5.0455737e-06 0.0000000e+00 -1.4340958e-04 
1.8375249e-07 0.0000000e+00 -1.4521091e-04 
5.5378027e-06 0.0000000e+00 -1.4661771e-04 
8.3114064e-06 0.0000000e+00 -1.4799577e-04 
8.9821242e-06 0.0000000e+00 -1.4934511e-04 
8.0275167e-06 0.0000000e+00 -1.5066571e-04 
5.9251452e-06 0.0000000e+00 -1.5195759e-04 
3.1525688e-06 0.0000000e+00 -1.5322072e-04 
1.8734897e-07 0.0000000e+00 -1.5445515e-04 
-2.4929539e-06 0.0000000e+00 -1.5566083e-04 
-4.4107787e-06 0.0000000e+00 -1.5683778e-04 
-5.0885656e-06 0.0000000e+00 -1.5798601e-04 
-4.0487535e-06 0.0000000e+00 -1.5910550e-04 
-8.1378192e-07 0.0000000e+00 -1.6019626e-04 
1.8564743e-06 0.0000000e+00 -1.6089248e-04 
1.4171634e-06 0.0000000e+00 -1.6155996e-04 
-1.3316200e-06 0.0000000e+00 -1.6219872e-04 
-5.5897808e-06 0.0000000e+00 -1.6280875e-04 
-1.0557224e-05 0.0000000e+00 -1.6339004e-04 
-1.5433858e-05 0.0000000e+00 -1.6394260e-04 
-1.9419582e-05 0.0000000e+00 -1.6446643e-04 
-2.1714306e-05 0.0000000e+00 -1.6496154e-04 
-2.1517933e-05 0.0000000e+00 -1.6542792e-04 
-1.8030370e-05 0.0000000e+00 -1.6586555e-04 
-1.0451521e-05 0.0000000e+00 -1.6627448e-04 
2.0187092e-06 0.0000000e+00 -1.6665466e-04 
-8.8809145e-07 0.0000000e+00 -7.7306853e-05 
2.0036806e-07 0.0000000e+00 -1.1216156e-04 
-7.0959139e-08 0.0000000e+00 -1.4522068e-04 
1.5312708e-07 0.0000000e+00 -1.6937971e-04 
-6.7815159e-07 0.0000000e+00 -1.8012690e-04 
1.6822576e-06 0.0000000e+00 -2.0618524e-04 
-7.1047316e-07 0.0000000e+00 -1.1778947e-04 
1.6029445e-07 0.0000000e+00 -1.4797115e-04 
-5.6767313e-08 0.0000000e+00 -1.8186469e-04 
1.2250166e-07 0.0000000e+00 -2.0655287e-04 
-5.4252132e-07 0.0000000e+00 -2.1383248e-04 
1.3458060e-06 0.0000000e+00 -2.5592715e-04 
-5.3285487e-07 0.0000000e+00 -1.6010182e-04 
1.2022083e-07 0.0000000e+00 -1.8664889e-04 
-4.2575483e-08 0.0000000e+00 -2.2119143e-04 
9.1876245e-08 0.0000000e+00 -2.4629119e-04 
-4.0689096e-07 0.0000000e+00 -2.5087377e-04 
1.0093546e-06 0.0000000e+00 -3.0544115e-04 
-3.5523658e-07 0.0000000e+00 -1.9612447e-04 
8.0147224e-08 0.0000000e+00 -2.2007542e-04 
-2.8383656e-08 0.0000000e+00 -2.5508151e-04 
6.1250830e-08 0.0000000e+00 -2.8047524e-04 
-2.7126066e-07 0.0000000e+00 -2.8313141e-04 
6.7290301e-07 0.0000000e+00 -3.4660785e-04 
-1.7761829e-07 0.0000000e+00 -2.2005789e-04 
4.0073612e-08 0.0000000e+00 -2.4245116e-04 
-1.4191828e-08 0.0000000e+00 -2.7773541e-04 
3.0625415e-08 0.0000000e+00 -3.0330551e-04 
-1.3563033e-07 0.0000000e+00 -3.0480581e-04 
3.3645151e-07 0.0000000e+00 -3.7362770e-04 
-5.2801122e-17 0.0000000e+00 -2.2842234e-04 
-8.6838241e-17 0.0000000e+00 -2.5029638e-04 
-1.1323289e-16 0.0000000e+00 -2.8567333e-04 
-1.4191109e-16 0.0000000e+00 -3.1130225e-04 
-1.8533035e-16 0.0000000e+00 -3.1241725e-04 
-2.2020226e-16 0.0000000e+00 -3.8302093e-04 
1.7761829e-07 0.0000000e+00 -2.2005789e-04 
-4.0073612e-08 0.0000000e+00 -2.4245116e-04 
1.4191828e-08 0.0000000e+00 -2.7773541e-04 
-3.0625415e-08 0.0000000e+00 -3.0330551e-04 
1.3563033e-07 0.0000000e+00 -3.0480581e-04 
-3.3645151e-07 0.0000000e+00 -3.7362770e-04 
3.5523658e-07 0.0000000e+00 -1.9612447e-04 
-8.0147224e-08 0.0000000e+00 -2.2007542e-04 
2.8383656e-08 0.0000000e+00 -2.5508151e-04 
-6.1250830e-08 0.0000000e+00 -2.8047524e-04 
2.7126066e-07 0.0000000e+00 -2.8313141e-04 
-6.7290301e-07 0.0000000e+00 -3.4660785e-04 
5.3285487e-07 0.0000000e+00 -1.6010182e-04 
-1.2022083e-07 0.0000000e+00 -1.8664889e-04 
4.2575483e-08 0.0000000e+00 -2.2119143e-04 
-9.1876245e-08 0.0000000e+00 -2.4629119e-04 
4.0689096e-07 0.0000000e+00 -2.5087377e-04 
-1.0093546e-06 0.0000000e+00 -3.0544115e-04 
7.1047316e-07 0.0000000e+00 -1.1778947e-04 
-1.6029445e-07 0.0000000e+00 -1.4797115e-04 
5.6767313e-08 0.0000000e+00 -1.8186469e-04 
-1.2250166e-07 0.0000000e+00 -2.0655287e-04 
5.4252132e-07 0.0000000e+00 -2.1383248e-04 
-1.3458060e-06 0.0000000e+00 -2.5592715e-04 
8.8809145e-07 0.0000000e+00 -7.7306853e-05 
-2.0036806e-07 0.0000000e+00 -1.1216156e-04 
7.0959139e-08 0.0000000e+00 -1.4522068e-04 
-1.5312708e-07 0.0000000e+00 -1.6937971e-04 
6.7815159e-07 0.0000000e+00 -1.8012690e-04 
-1.6822576e-06 0.0000000e+00 -2.0618524e-04 
0.0000000e+00 0.0000000e+00 0.0000000e+00 
4.6065061e-06 0.0000000e+00 -4.2491110e-06 
9.0234580e-06 0.0000000e+00 -8.4694921e-06 
1.3061303e-05 0.0000000e+00 -1.2661143e-05 
1.6530486e-05 0.0000000e+00 -1.6824064e-05 
1.9241455e-05 0.0000000e+00 -2.0958256e-05 
2.1004656e-05 0.0000000e+00 -2.5063717e-05 
2.1630534e-05 0.0000000e+00 -2.9140449e-05 
2.0929536e-05 0.0000000e+00 -3.3188451e-05 
1.8712108e-05 0.0000000e+00 -3.7207723e-05 
1.4788698e-05 0.0000000e+00 -4.1198262e-05 
8.9697487e-06 0.0000000e+00 -4.5160075e-05 
1.0657097e-06 0.0000000e+00 -4.9093156e-05 
-6.0804314e-06 0.0000000e+00 -5.2631687e-05 
-9.9072749e-06 0.0000000e+00 -5.6141489e-05 
-1.1026757e-05 0.0000000e+00 -5.9622562e-05 
-1.0050815e-05 0.0000000e+00 -6.3074905e-05 
-7.5913863e-06 0.0000000e+00 -6.6498513e-05 
-4.2604070e-06 0.0000000e+00 -6.9893395e-05 
-6.6981426e-07 0.0000000e+00 -7.3259551e-05 
2.5684549e-06 0.0000000e+00 -7.6596974e-05 
4.8424636e-06 0.0000000e+00 -7.9905665e-05 
5.5402752e-06 0.0000000e+00 -8.3185623e-05 
4.0499522e-06 0.0000000e+00 -8.6436856e-05 
-2.4044166e-07 0.0000000e+00 -8.9659363e-05 
-4.6942146e-06 0.0000000e+00 -9.2487317e-05 
-6.6111429e-06 0.0000000e+00 -9.5286538e-05 
-6.5078671e-06 0.0000000e+00 -9.8057026e-05 
-4.9010278e-06 0.0000000e+00 -1.0079879e-04 
-2.3072646e-06 0.0000000e+00 -1.0351183e-04 
7.5678184e-07 0.0000000e+00 -1.0619612e-04 
3.7744712e-06 0.0000000e+00 -1.0885170e-04 
6.2291629e-06 0.0000000e+00 -1.1147854e-04 
7.6042174e-06 0.0000000e+00 -1.1407665e-04 
7.3829938e-06 0.0000000e+00 -1.1664604e-04 
5.0488516e-06 0.0000000e+00 -1.1918669e-04 
8.5150965e-08 0.0000000e+00 -1.2169861e-04 
-4.8208053e-06 0.0000000e+00 -1.2381599e-04 
-7.0042138e-06 0.0000000e+00 -1.2590463e-04 
-7.0154638e-06 0.0000000e+00 -1.2796454e-04 
-5.4049437e-06 0.0000000e+00 -1.2999572e-04 
-2.7230426e-06 0.0000000e+00 -1.3199818e-04 
4.7984992e-07 0.0000000e+00 -1.3397190e-04 
3.6533454e-06 0.0000000e+00 -1.3591690e-04 
6.2470544e-06 0.0000000e+00 -1.3783317e-04 
7.7105879e-06 0.0000000e+00 -1.3972069e-04 
7.4935579e-06 0.0000000e+00 -1.4157950e-04 
5.0455737e-06 0.0000000e+00 -1.4340958e-04 
-1.8375249e-07 0.0000000e+00 -1.4521091e-04 
-5.5378027e-06 0.0000000e+00 -1.4661771e-04 
-8.3114064e-06 0.0000000e+00 -1.4799577e-04 
-8.9821242e-06 0.0000000e+00 -1.4934511e-04 
-8.0275167e-06 0.0000000e+00 -1.5066571e-04 
-5.9251452e-06 0.0000000e+00 -1.5195759e-04 
-3.1525688e-06 0.0000000e+00 -1.5322072e-04 
-1.8734897e-07 0.0000000e+00 -1.5445515e-04 
2.4929539e-06 0.0000000e+00 -1.5566083e-04 
4.4107787e-06 0.0000000e+00 -1.5683778e-04 
5.0885656e-06 0.0000000e+00 -1.5798601e-04 
4.0487535e-06 0.0000000e+00 -1.5910550e-04 
8.1378192e-07 0.0000000e+00 -1.6019626e-04 
-1.8564743e-06 0.0000000e+00 -1.6089248e-04 
-1.4171634e-06 0.0000000e+00 -1.6155996e-04 
1.3316200e-06 0.0000000e+00 -1.6219872e-04 
5.5897808e-06 0.0000000e+00 -1.6280875e-04 
1.0557224e-05 0.0000000e+00 -1.6339004e-04 
1.5433858e-05 0.0000000e+00 -1.6394260e-04 
1.9419582e-05 0.0000000e+00 -1.6446643e-04 
2.1714306e-05 0.0000000e+00 -1.6496154e-04 
2.1517933e-05 0.0000000e+00 -1.6542792e-04 
1.8030370e-05 0.0000000e+00 -1.6586555e-04 
1.0451521e-05 0.0000000e+00 -1.6627448e-04 
-2.0187092e-06 0.0000000e+00 -1.6665466e-04 
ROTATION 3 212  float
0.0000000e+00 -1.8552393e-05 0.0000000e+00 
0.0000000e+00 -1.8173287e-05 0.0000000e+00 
0.0000000e+00 -1.7035964e-05 0.0000000e+00 
0.0000000e+00 -1.5140427e-05 0.0000000e+00 
0.0000000e+00 -1.2486675e-05 0.0000000e+00 
0.0000000e+00 -9.0747071e-06 0.0000000e+00 
0.0000000e+00 -4.9045257e-06 0.0000000e+00 
0.0000000e+00 2.3870852e-08 0.0000000e+00 
0.0000000e+00 5.7104821e-06 0.0000000e+00 
0.0000000e+00 1.2155308e-05 0.0000000e+00 
0.0000000e+00 1.9358349e-05 0.0000000e+00 
0.0000000e+00 2.7319606e-05 0.0000000e+00 
0.0000000e+00 3.6039077e-05 0.0000000e+00 
0.0000000e+00 2.1538011e-05 0.0000000e+00 
0.0000000e+00 9.4846937e-06 0.0000000e+00 
0.0000000e+00 -1.2087698e-07 0.0000000e+00 
0.0000000e+00 -7.2786997e-06 0.0000000e+00 
0.0000000e+00 -1.1988775e-05 0.0000000e+00 
0.0000000e+00 -1.4251102e-05 0.0000000e+00 
0.0000000e+00 -1.4065682e-05 0.0000000e+00 
0.0000000e+00 -1.1432514e-05 0.0000000e+00 
0.0000000e+00 -6.3515981e-06 0.0000000e+00 
0.0000000e+00 1.1770649e-06 0.0000000e+00 
0.0000000e+00 1.1153475e-05 0.0000000e+00 
0.0000000e+00 2.3577633e-05 0.0000000e+00 
0.0000000e+00 1.2396976e-05 0.0000000e+00 
0.0000000e+00 3.2828784e-06 0.0000000e+00 
0.0000000e+00 -3.7646575e-06 0.0000000e+00 
0.0000000e+00 -8.7456319e-06 0.0000000e+00 
0.0000000e+00 -1.1660046e-05 0.0000000e+00 
0.0000000e+00 -1.2507899e-05 0.0000000e+00 
0.0000000e+00 -1.1289189e-05 0.0000000e+00 
0.0000000e+00 -8.0039190e-06 0.0000000e+00 
0.0000000e+00 -2.6520879e-06 0.0000000e+00 
0.0000000e+00 4.7663048e-06 0.0000000e+00 
0.0000000e+00 1.4251258e-05 0.0000000e+00 
0.0000000e+00 2.5802774e-05 0.0000000e+00 
0.0000000e+00 1.3811804e-05 0.0000000e+00 
0.0000000e+00 4.0223904e-06 0.0000000e+00 
0.0000000e+00 -3.5654668e-06 0.0000000e+00 
0.0000000e+00 -8.9517680e-06 0.0000000e+00 
0.0000000e+00 -1.2136513e-05 0.0000000e+00 
0.0000000e+00 -1.3119702e-05 0.0000000e+00 
0.0000000e+00 -1.1901335e-05 0.0000000e+00 
0.0000000e+00 -8.4814119e-06 0.0000000e+00 
0.0000000e+00 -2.8599325e-06 0.0000000e+00 
0.0000000e+00 4.9631030e-06 0.0000000e+00 
0.0000000e+00 1.4987694e-05 0.0000000e+00 
0.0000000e+00 2.7213842e-05 0.0000000e+00 
0.0000000e+00 1.5936934e-05 0.0000000e+00 
0.0000000e+00 6.5702698e-06 0.0000000e+00 
0.0000000e+00 -8.8615275e-07 0.0000000e+00 
0.0000000e+00 -6.4323326e-06 0.0000000e+00 
0.0000000e+00 -1.0068271e-05 0.0000000e+00 
0.0000000e+00 -1.1793966e-05 0.0000000e+00 
0.0000000e+00 -1.1609419e-05 0.0000000e+00 
0.0000000e+00 -9.5146297e-06 0.0000000e+00 
0.0000000e+00 -5.5095975e-06 0.0000000e+00 
0.0000000e+00 4.0567687e-07 0.0000000e+00 
0.0000000e+00 8.2311935e-06 0.0000000e+00 
0.0000000e+00 1.7966953e-05 0.0000000e+00 
0.0000000e+00 3.9284942e-06 0.0000000e+00 
0.0000000e+00 -6.9095850e-06 0.0000000e+00 
0.0000000e+00 -1.4547285e-05 0.0000000e+00 
0.0000000e+00 -1.8984607e-05 0.0000000e+00 
0.0000000e+00 -2.0221549e-05 0.0000000e+00 
0.0000000e+00 -1.8258112e-05 0.0000000e+00 
0.0000000e+00 -1.3094294e-05 0.0000000e+00 
0.0000000e+00 -4.7300991e-06 0.0000000e+00 
0.0000000e+00 6.8344752e-06 0.0000000e+00 
0.0000000e+00 2.1599430e-05 0.0000000e+00 
0.0000000e+00 3.9564762e-05 0.0000000e+00 
0.0000000e+00 6.0730472e-05 0.0000000e+00 
0.0000000e+00 7.2562696e-05 0.0000000e+00 
0.0000000e+00 6.2178158e-05 0.0000000e+00 
0.0000000e+00 6.4032443e-05 0.0000000e+00 
0.0000000e+00 6.5208333e-05 0.0000000e+00 
0.0000000e+00 5.7502592e-05 0.0000000e+00 
0.0000000e+00 9.3138857e-05 0.0000000e+00 
0.0000000e+00 8.5888059e-05 0.0000000e+00 
0.0000000e+00 7.7580429e-05 0.0000000e+00 
0.0000000e+00 7.9063859e-05 0.0000000e+00 
0.0000000e+00 8.0004567e-05 0.0000000e+00 
0.0000000e+00 7.3839976e-05 0.0000000e+00 
0.0000000e+00 1.0234899e-04 0.0000000e+00 
0.0000000e+00 8.0654820e-05 0.0000000e+00 
0.0000000e+00 7.4424104e-05 0.0000000e+00 
0.0000000e+00 7.5536671e-05 0.0000000e+00 
0.0000000e+00 7.6242206e-05 0.0000000e+00 
0.0000000e+00 7.1618757e-05 0.0000000e+00 
0.0000000e+00 9.3000519e-05 0.0000000e+00 
0.0000000e+00 6.1502629e-05 0.0000000e+00 
0.0000000e+00 5.7348818e-05 0.0000000e+00 
0.0000000e+00 5.8090533e-05 0.0000000e+00 
0.0000000e+00 5.8560887e-05 0.0000000e+00 
0.0000000e+00 5.5478591e-05 0.0000000e+00 
0.0000000e+00 6.9733098e-05 0.0000000e+00 
0.0000000e+00 3.3071141e-05 0.0000000e+00 
0.0000000e+00 3.0994233e-05 0.0000000e+00 
0.0000000e+00 3.1365093e-05 0.0000000e+00 
0.0000000e+00 3.1600270e-05 0.0000000e+00 
0.0000000e+00 3.0059120e-05 0.0000000e+00 
0.0000000e+00 3.7186375e-05 0.0000000e+00 
0.0000000e+00 4.0591804e-18 0.0000000e+00 
0.0000000e+00 2.0816310e-18 0.0000000e+00 
0.0000000e+00 -2.4979572e-18 0.0000000e+00 
0.0000000e+00 1.0408155e-18 0.0000000e+00 
0.0000000e+00 2.7061203e-18 0.0000000e+00 
0.0000000e+00 -4.6641365e-18 0.0000000e+00 
0.0000000e+00 -3.3071141e-05 0.0000000e+00 
0.0000000e+00 -3.0994233e-05 0.0000000e+00 
0.0000000e+00 -3.1365093e-05 0.0000000e+00 
0.0000000e+00 -3.1600270e-05 0.0000000e+00 
0.0000000e+00 -3.0059120e-05 0.0000000e+00 
0.0000000e+00 -3.7186375e-05 0.0000000e+00 
0.0000000e+00 -6.1502629e-05 0.0000000e+00 
0.0000000e+00 -5.7348818e-05 0.0000000e+00 
0.0000000e+00 -5.8090533e-05 0.0000000e+00 
0.0000000e+00 -5.8560887e-05 0.0000000e+00 
0.0000000e+00 -5.5478591e-05 0.0000000e+00 
0.0000000e+00 -6.9733098e-05 0.0000000e+00 
0.0000000e+00 -8.0654820e-05 0.0000000e+00 
0.0000000e+00 -7.4424104e-05 0.0000000e+00 
0.0000000e+00 -7.5536671e-05 0.0000000e+00 
0.0000000e+00 -7.6242206e-05 0.0000000e+00 
0.0000000e+00 -7.1618757e-05 0.0000000e+00 
0.0000000e+00 -9.3000519e-05 0.0000000e+00 
0.0000000e+00 -8.5888059e-05 0.0000000e+00 
0.0000000e+00 -7.7580429e-05 0.0000000e+00 
0.0000000e+00 -7.9063859e-05 0.0000000e+00 
0.0000000e+00 -8.0004567e-05 0.0000000e+00 
0.0000000e+00 -7.3839976e-05 0.0000000e+00 
0.0000000e+00 -1.0234899e-04 0.0000000e+00 
0.0000000e+00 -7.2562696e-05 0.0000000e+00 
0.0000000e+00 -6.2178158e-05 0.0000000e+00 
0.0000000e+00 -6.4032443e-05 0.0000000e+00 
0.0000000e+00 -6.5208333e-05 0.0000000e+00 
0.0000000e+00 -5.7502592e-05 0.0000000e+00 
0.0000000e+00 -9.3138857e-05 0.0000000e+00 
0.0000000e+00 1.8552393e-05 0.0000000e+00 
0.0000000e+00 1.8173287e-05 0.0000000e+00 
0.0000000e+00 1.7035964e-05 0.0000000e+00 
0.0000000e+00 1.5140427e-05 0.0000000e+00 
0.0000000e+00 1.2486675e-05 0.0000000e+00 
0.0000000e+00 9.0747071e-06 0.0000000e+00 
0.0000000e+00 4.9045257e-06 0.0000000e+00 
0.0000000e+00 -2.3870852e-08 0.0000000e+00 
0.0000000e+00 -5.7104821e-06 0.0000000e+00 
0.0000000e+00 -1.2155308e-05 0.0000000e+00 
0.0000000e+00 -1.9358349e-05 0.0000000e+00 
0.0000000e+00 -2.7319606e-05 0.0000000e+00 
0.0000000e+00 -3.6039077e-05 0.0000000e+00 
0.0000000e+00 -2.1538011e-05 0.0000000e+00 
0.0000000e+00 -9.4846937e-06 0.0000000e+00 
0.0000000e+00 1.2087698e-07 0.0000000e+00 
0.0000000e+00 7.2786997e-06 0.0000000e+00 
0.0000000e+00 1.1988775e-05 0.0000000e+00 
0.0000000e+00 1.4251102e-05 0.0000000e+00 
0.0000000e+00 1.4065682e-05 0.0000000e+00 
0.0000000e+00 1.1432514e-05 0.0000000e+00 
0.0000000e+00 6.3515981e-06 0.0000000e+00 
0.0000000e+00 -1.1770649e-06 0.0000000e+00 
0.0000000e+00 -1.1153475e-05 0.0000000e+00 
0.0000000e+00 -2.3577633e-05 0.0000000e+00 
0.0000000e+00 -1.2396976e-05 0.0000000e+00 
0.0000000e+00 -3.2828784e-06 0.0000000e+00 
0.0000000e+00 3.7646575e-06 0.0000000e+00 
0.0000000e+00 8.7456319e-06 0.0000000e+00 
0.0000000e+00 1.1660046e-05 0.0000000e+00 
0.0000000e+00 1.2507899e-05 0.0000000e+00 
0.0000000e+00 1.1289189e-05 0.0000000e+00 
0.0000000e+00 8.0039190e-06 0.0000000e+00 
0.0000000e+00 2.6520879e-06 0.0000000e+00 
0.0000000e+00 -4.7663048e-06 0.0000000e+00 
0.0000000e+00 -1.4251258e-05 0.0000000e+00 
0.0000000e+00 -2.5802774e-05 0.0000000e+00 
0.0000000e+00 -1.3811804e-05 0.0000000e+00 
0.0000000e+00 -4.0223904e-06 0.0000000e+00 
0.0000000e+00 3.5654668e-06 0.0000000e+00 
0.0000000e+00 8.9517680e-06 0.0000000e+00 
0.0000000e+00 1.2136513e-05 0.0000000e+00 
0.0000000e+00 1.3119702e-05 0.0000000e+00 
0.0000000e+00 1.1901335e-05 0.0000000e+00 
0.0000000e+00 8.4814119e-06 0.0000000e+00 
0.0000000e+00 2.8599325e-06 0.0000000e+00 
0.0000000e+00 -4.9631030e-06 0.0000000e+00 
0.0000000e+00 -1.4987694e-05 0.0000000e+00 
0.0000000e+00 -2.7213842e-05 0.0000000e+00 
0.0000000e+00 -1.5936934e-05 0.0000000e+00 
0.0000000e+00 -6.5702698e-06 0.0000000e+00 
0.0000000e+00 8.8615275e-07 0.0000000e+00 
0.0000000e+00 6.4323326e-06 0.0000000e+00 
0.0000000e+00 1.0068271e-05 0.0000000e+00 
0.0000000e+00 1.1793966e-05 0.0000000e+00 
0.0000000e+00 1.1609419e-05 0.0000000e+00 
0.0000000e+00 9.5146297e-06 0.0000000e+00 
0.0000000e+00 5.5095975e-06 0.0000000e+00 
0.0000000e+00 -4.0567687e-07 0.0000000e+00 
0.0000000e+00 -8.2311935e-06 0.0000000e+00 
0.0000000e+00 -1.7966953e-05 0.0000000e+00 
0.0000000e+00 -3.9284942e-06 0.0000000e+00 
0.0000000e+00 6.9095850e-06 0.0000000e+00 
0.0000000e+00 1.4547285e-05 0.0000000e+00 
0.0000000e+00 1.8984607e-05 0.0000000e+00 