# vtk DataFile Version 4.0
vtk output
ASCII
DATASET UNSTRUCTURED_GRID
POINTS 30 float
0.0000000e+00 0.0000000e+00 0.0000000e+00 
0.0000000e+00 0.0000000e+00 8.0000001e-01 
0.0000000e+00 0.0000000e+00 1.6000000e+00 
0.0000000e+00 0.0000000e+00 2.4000001e+00 
0.0000000e+00 0.0000000e+00 3.2000000e+00 
0.0000000e+00 0.0000000e+00 4.0000000e+00 
0.0000000e+00 0.0000000e+00 4.8000002e+00 
0.0000000e+00 0.0000000e+00 5.5999999e+00 
0.0000000e+00 0.0000000e+00 6.4000001e+00 
0.0000000e+00 0.0000000e+00 7.1999998e+00 
0.0000000e+00 0.0000000e+00 8.0000000e+00 
1.0000000e+01 0.0000000e+00 0.0000000e+00 
1.0000000e+01 0.0000000e+00 8.0000001e-01 
1.0000000e+01 0.0000000e+00 1.6000000e+00 
1.0000000e+01 0.0000000e+00 2.4000001e+00 
1.0000000e+01 0.0000000e+00 3.2000000e+00 
1.0000000e+01 0.0000000e+00 4.0000000e+00 
1.0000000e+01 0.0000000e+00 4.8000002e+00 
1.0000000e+01 0.0000000e+00 5.5999999e+00 
1.0000000e+01 0.0000000e+00 6.4000001e+00 
1.0000000e+01 0.0000000e+00 7.1999998e+00 
1.0000000e+01 0.0000000e+00 8.0000000e+00 
2.0000000e+00 0.0000000e+00 4.0000000e+00 
4.0000000e+00 0.0000000e+00 4.0000000e+00 
6.0000000e+00 0.0000000e+00 4.0000000e+00 
8.0000000e+00 0.0000000e+00 4.0000000e+00 
2.0000000e+00 0.0000000e+00 8.0000000e+00 
4.0000000e+00 0.0000000e+00 8.0000000e+00 
6.0000000e+00 0.0000000e+00 8.0000000e+00 
8.0000000e+00 0.0000000e+00 8.0000000e+00 

CELLS 30 90
2 0 1
2 1 2
2 2 3
2 3 4
2 4 5
2 5 6
2 6 7
2 7 8
2 8 9
2 9 10
2 11 12
2 12 13
2 13 14
2 14 15
2 15 16
2 16 17
2 17 18
2 18 19
2 19 20
2 20 21
2 5 22
2 22 23
2 23 24
2 24 25
2 25 16
2 10 26
2 26 27
2 27 28
2 28 29
2 29 21

CELL_TYPES 30
3
3
3
3
3
3
3
3
3
3
3
3
3
3
3
3
3
3
3
3
3
3
3
3
3
3
3
3
3
3
POINT_DATA 30
FIELD FieldData 3
ADJOINT_DISPLACEMENT 3 30  float
0.0000000e+00 0.0000000e+00 0.0000000e+00 
-3.9692026e-02 0.0000000e+00 -1.6806120e-17 
-8.4910639e-02 0.0000000e+00 -3.3612239e-17 
-1.4118242e-01 0.0000000e+00 -5.0418356e-17 
-2.1403398e-01 0.0000000e+00 -6.7224479e-17 
-3.0899188e-01 0.0000000e+00 -8.4030598e-17 
-3.9904937e-01 0.0000000e+00 -3.2716565e-05 
-4.5778570e-01 0.0000000e+00 -6.5433131e-05 
-4.9160653e-01 0.0000000e+00 -9.8149700e-05 
-5.0691754e-01 0.0000000e+00 -1.3086626e-04 
-5.1012439e-01 0.0000000e+00 -1.6358282e-04 
0.0000000e+00 0.0000000e+00 0.0000000e+00 
-8.3956234e-02 0.0000000e+00 4.1421681e-17 
-1.6238588e-01 0.0000000e+00 8.2921257e-17 
-2.2976236e-01 0.0000000e+00 1.2476790e-16 
-2.8055906e-01 0.0000000e+00 1.6660393e-16 
-3.0924943e-01 0.0000000e+00 2.0628973e-16 
-3.3411577e-01 0.0000000e+00 3.2716565e-05 
-3.7285447e-01 0.0000000e+00 6.5433131e-05 
-4.1905981e-01 0.0000000e+00 9.8149700e-05 
-4.6632612e-01 0.0000000e+00 1.3086626e-04 
-5.0824773e-01 0.0000000e+00 1.6358282e-04 
-3.0904338e-01 0.0000000e+00 4.7024724e-01 
-3.0909491e-01 0.0000000e+00 1.3271819e+00 
-3.0914640e-01 0.0000000e+00 5.4899293e-01 
-3.0919790e-01 0.0000000e+00 1.1386933e-01 
-5.0974905e-01 0.0000000e+00 -1.6111176e-02 
-5.0937372e-01 0.0000000e+00 -4.5863301e-02 
-5.0899839e-01 0.0000000e+00 -6.7608908e-02 
-5.0862306e-01 0.0000000e+00 -5.9536964e-02 
ADJOINT_ROTATION 3 30  float
0.0000000e+00 -4.8463657e-02 0.0000000e+00 
0.0000000e+00 -5.1917776e-02 0.0000000e+00 
0.0000000e+00 -6.2280130e-02 0.0000000e+00 
0.0000000e+00 -7.9550713e-02 0.0000000e+00 
0.0000000e+00 -1.0372954e-01 0.0000000e+00 
0.0000000e+00 -1.3481659e-01 0.0000000e+00 
0.0000000e+00 -9.1661617e-02 0.0000000e+00 
0.0000000e+00 -5.6513719e-02 0.0000000e+00 
0.0000000e+00 -2.9372901e-02 0.0000000e+00 
0.0000000e+00 -1.0239165e-02 0.0000000e+00 
0.0000000e+00 8.8749017e-04 0.0000000e+00 
0.0000000e+00 -1.0609667e-01 0.0000000e+00 
0.0000000e+00 -1.0264255e-01 0.0000000e+00 
0.0000000e+00 -9.2280194e-02 0.0000000e+00 
0.0000000e+00 -7.5009614e-02 0.0000000e+00 
0.0000000e+00 -5.0830789e-02 0.0000000e+00 
0.0000000e+00 -1.9743731e-02 0.0000000e+00 
0.0000000e+00 -4.1087668e-02 0.0000000e+00 
0.0000000e+00 -5.4424521e-02 0.0000000e+00 
0.0000000e+00 -5.9754293e-02 0.0000000e+00 
0.0000000e+00 -5.7076987e-02 0.0000000e+00 
0.0000000e+00 -4.6392597e-02 0.0000000e+00 
0.0000000e+00 -3.3361307e-01 0.0000000e+00 
0.0000000e+00 -5.2150398e-01 0.0000000e+00 
0.0000000e+00 3.0151057e-01 0.0000000e+00 
0.0000000e+00 1.3543065e-01 0.0000000e+00 
0.0000000e+00 1.3242517e-02 0.0000000e+00 
0.0000000e+00 1.4692021e-02 0.0000000e+00 
0.0000000e+00 5.2360031e-03 0.0000000e+00 
0.0000000e+00 -1.5125536e-02 0.0000000e+00 
SHAPE_SENSITIVITY 3 30  float
0.0000000e+00 0.0000000e+00 0.0000000e+00 
0.0000000e+00 0.0000000e+00 0.0000000e+00 
0.0000000e+00 0.0000000e+00 0.0000000e+00 
0.0000000e+00 0.0000000e+00 0.0000000e+00 
0.0000000e+00 0.0000000e+00 0.0000000e+00 
0.0000000e+00 0.0000000e+00 0.0000000e+00 
0.0000000e+00 0.0000000e+00 0.0000000e+00 
0.0000000e+00 0.0000000e+00 0.0000000e+00 
0.0000000e+00 0.0000000e+00 0.0000000e+00 
0.0000000e+00 0.0000000e+00 0.0000000e+00 
0.0000000e+00 0.0000000e+00 0.0000000e+00 
0.0000000e+00 0.0000000e+00 0.0000000e+00 
0.0000000e+00 0.0000000e+00 0.0000000e+00 
0.0000000e+00 0.0000000e+00 0.0000000e+00 
0.0000000e+00 0.0000000e+00 0.0000000e+00 
0.0000000e+00 0.0000000e+00 0.0000000e+00 
0.0000000e+00 0.0000000e+00 0.0000000e+00 
0.0000000e+00 0.0000000e+00 0.0000000e+00 
0.0000000e+00 0.0000000e+00 0.0000000e+00 
0.0000000e+00 0.0000000e+00 0.0000000e+00 
0.0000000e+00 0.0000000e+00 0.0000000e+00 
0.0000000e+00 0.0000000e+00 0.0000000e+00 
0.0000000e+00 0.0000000e+00 0.0000000e+00 
0.0000000e+00 0.0000000e+00 0.0000000e+00 
0.0000000e+00 0.0000000e+00 0.0000000e+00 
0.0000000e+00 0.0000000e+00 0.0000000e+00 
0.0000000e+00 0.0000000e+00 0.0000000e+00 
0.0000000e+00 0.0000000e+00 0.0000000e+00 
0.0000000e+00 0.0000000e+00 0.0000000e+00 
0.0000000e+00 0.0000000e+00 0.0000000e+00 
CELL_DATA 30
FIELD FieldData 1
I22_SENSITIVITY 1 30  float
-1.3494442e+05
-8.8113256e+05
-1.9309119e+06
-2.9559472e+06
-3.7922385e+06
-5.2023130e+06
-2.2641798e+06
-8.9823981e+05
3.5395844e+05
1.2217912e+06
-3.2635795e+04
-2.2845000e+05
-3.7636322e+05
3.9587900e+05
2.1989550e+06
1.5891556e+05
7.5938391e+04
-2.1705564e+05
2.9355312e+05
1.3979844e+06
-3.4225512e+07
-9.9499381e+05
1.2284564e+07
1.5737298e+07
1.5398472e+07
1.4654006e+06
6.8688156e+04
-2.3867825e+05
2.6300003e+05
3.1391950e+06
