# vtk DataFile Version 4.0
vtk output
ASCII
DATASET UNSTRUCTURED_GRID
POINTS 212 float
0.0000000e+00 0.0000000e+00 0.0000000e+00 
0.0000000e+00 0.0000000e+00 2.5000000e-01 
0.0000000e+00 0.0000000e+00 5.0000000e-01 
0.0000000e+00 0.0000000e+00 7.5000000e-01 
0.0000000e+00 0.0000000e+00 1.0000000e+00 
0.0000000e+00 0.0000000e+00 1.2500000e+00 
0.0000000e+00 0.0000000e+00 1.5000000e+00 
0.0000000e+00 0.0000000e+00 1.7500000e+00 
0.0000000e+00 0.0000000e+00 2.0000000e+00 
0.0000000e+00 0.0000000e+00 2.2500000e+00 
0.0000000e+00 0.0000000e+00 2.5000000e+00 
0.0000000e+00 0.0000000e+00 2.7500000e+00 
0.0000000e+00 0.0000000e+00 3.0000000e+00 
0.0000000e+00 0.0000000e+00 3.2500000e+00 
0.0000000e+00 0.0000000e+00 3.5000000e+00 
0.0000000e+00 0.0000000e+00 3.7500000e+00 
0.0000000e+00 0.0000000e+00 4.0000000e+00 
0.0000000e+00 0.0000000e+00 4.2500000e+00 
0.0000000e+00 0.0000000e+00 4.5000000e+00 
0.0000000e+00 0.0000000e+00 4.7500000e+00 
0.0000000e+00 0.0000000e+00 5.0000000e+00 
0.0000000e+00 0.0000000e+00 5.2500000e+00 
0.0000000e+00 0.0000000e+00 5.5000000e+00 
0.0000000e+00 0.0000000e+00 5.7500000e+00 
0.0000000e+00 0.0000000e+00 6.0000000e+00 
0.0000000e+00 0.0000000e+00 6.2500000e+00 
0.0000000e+00 0.0000000e+00 6.5000000e+00 
0.0000000e+00 0.0000000e+00 6.7500000e+00 
0.0000000e+00 0.0000000e+00 7.0000000e+00 
0.0000000e+00 0.0000000e+00 7.2500000e+00 
0.0000000e+00 0.0000000e+00 7.5000000e+00 
0.0000000e+00 0.0000000e+00 7.7500000e+00 
0.0000000e+00 0.0000000e+00 8.0000000e+00 
0.0000000e+00 0.0000000e+00 8.2500000e+00 
0.0000000e+00 0.0000000e+00 8.5000000e+00 
0.0000000e+00 0.0000000e+00 8.7500000e+00 
0.0000000e+00 0.0000000e+00 9.0000000e+00 
0.0000000e+00 0.0000000e+00 9.2500000e+00 
0.0000000e+00 0.0000000e+00 9.5000000e+00 
0.0000000e+00 0.0000000e+00 9.7500000e+00 
0.0000000e+00 0.0000000e+00 1.0000000e+01 
0.0000000e+00 0.0000000e+00 1.0250000e+01 
0.0000000e+00 0.0000000e+00 1.0500000e+01 
0.0000000e+00 0.0000000e+00 1.0750000e+01 
0.0000000e+00 0.0000000e+00 1.1000000e+01 
0.0000000e+00 0.0000000e+00 1.1250000e+01 
0.0000000e+00 0.0000000e+00 1.1500000e+01 
0.0000000e+00 0.0000000e+00 1.1750000e+01 
0.0000000e+00 0.0000000e+00 1.2000000e+01 
0.0000000e+00 0.0000000e+00 1.2250000e+01 
0.0000000e+00 0.0000000e+00 1.2500000e+01 
0.0000000e+00 0.0000000e+00 1.2750000e+01 
0.0000000e+00 0.0000000e+00 1.3000000e+01 
0.0000000e+00 0.0000000e+00 1.3250000e+01 
0.0000000e+00 0.0000000e+00 1.3500000e+01 
0.0000000e+00 0.0000000e+00 1.3750000e+01 
0.0000000e+00 0.0000000e+00 1.4000000e+01 
0.0000000e+00 0.0000000e+00 1.4250000e+01 
0.0000000e+00 0.0000000e+00 1.4500000e+01 
0.0000000e+00 0.0000000e+00 1.4750000e+01 
0.0000000e+00 0.0000000e+00 1.5000000e+01 
0.0000000e+00 0.0000000e+00 1.5250000e+01 
0.0000000e+00 0.0000000e+00 1.5500000e+01 
0.0000000e+00 0.0000000e+00 1.5750000e+01 
0.0000000e+00 0.0000000e+00 1.6000000e+01 
0.0000000e+00 0.0000000e+00 1.6250000e+01 
0.0000000e+00 0.0000000e+00 1.6500000e+01 
0.0000000e+00 0.0000000e+00 1.6750000e+01 
0.0000000e+00 0.0000000e+00 1.7000000e+01 
0.0000000e+00 0.0000000e+00 1.7250000e+01 
0.0000000e+00 0.0000000e+00 1.7500000e+01 
0.0000000e+00 0.0000000e+00 1.7750000e+01 
0.0000000e+00 0.0000000e+00 1.8000000e+01 
5.0000000e-01 0.0000000e+00 3.0000000e+00 
5.0000000e-01 0.0000000e+00 6.0000000e+00 
5.0000000e-01 0.0000000e+00 9.0000000e+00 
5.0000000e-01 0.0000000e+00 1.2000000e+01 
5.0000000e-01 0.0000000e+00 1.5000000e+01 
5.0000000e-01 0.0000000e+00 1.8000000e+01 
1.0000000e+00 0.0000000e+00 3.0000000e+00 
1.0000000e+00 0.0000000e+00 6.0000000e+00 
1.0000000e+00 0.0000000e+00 9.0000000e+00 
1.0000000e+00 0.0000000e+00 1.2000000e+01 
1.0000000e+00 0.0000000e+00 1.5000000e+01 
1.0000000e+00 0.0000000e+00 1.8000000e+01 
1.5000000e+00 0.0000000e+00 3.0000000e+00 
1.5000000e+00 0.0000000e+00 6.0000000e+00 
1.5000000e+00 0.0000000e+00 9.0000000e+00 
1.5000000e+00 0.0000000e+00 1.2000000e+01 
1.5000000e+00 0.0000000e+00 1.5000000e+01 
1.5000000e+00 0.0000000e+00 1.8000000e+01 
2.0000000e+00 0.0000000e+00 3.0000000e+00 
2.0000000e+00 0.0000000e+00 6.0000000e+00 
2.0000000e+00 0.0000000e+00 9.0000000e+00 
2.0000000e+00 0.0000000e+00 1.2000000e+01 
2.0000000e+00 0.0000000e+00 1.5000000e+01 
2.0000000e+00 0.0000000e+00 1.8000000e+01 
2.5000000e+00 0.0000000e+00 3.0000000e+00 
2.5000000e+00 0.0000000e+00 6.0000000e+00 
2.5000000e+00 0.0000000e+00 9.0000000e+00 
2.5000000e+00 0.0000000e+00 1.2000000e+01 
2.5000000e+00 0.0000000e+00 1.5000000e+01 
2.5000000e+00 0.0000000e+00 1.8000000e+01 
3.0000000e+00 0.0000000e+00 3.0000000e+00 
3.0000000e+00 0.0000000e+00 6.0000000e+00 
3.0000000e+00 0.0000000e+00 9.0000000e+00 
3.0000000e+00 0.0000000e+00 1.2000000e+01 
3.0000000e+00 0.0000000e+00 1.5000000e+01 
3.0000000e+00 0.0000000e+00 1.8000000e+01 
3.5000000e+00 0.0000000e+00 3.0000000e+00 
3.5000000e+00 0.0000000e+00 6.0000000e+00 
3.5000000e+00 0.0000000e+00 9.0000000e+00 
3.5000000e+00 0.0000000e+00 1.2000000e+01 
3.5000000e+00 0.0000000e+00 1.5000000e+01 
3.5000000e+00 0.0000000e+00 1.8000000e+01 
4.0000000e+00 0.0000000e+00 3.0000000e+00 
4.0000000e+00 0.0000000e+00 6.0000000e+00 
4.0000000e+00 0.0000000e+00 9.0000000e+00 
4.0000000e+00 0.0000000e+00 1.2000000e+01 
4.0000000e+00 0.0000000e+00 1.5000000e+01 
4.0000000e+00 0.0000000e+00 1.8000000e+01 
4.5000000e+00 0.0000000e+00 3.0000000e+00 
4.5000000e+00 0.0000000e+00 6.0000000e+00 
4.5000000e+00 0.0000000e+00 9.0000000e+00 
4.5000000e+00 0.0000000e+00 1.2000000e+01 
4.5000000e+00 0.0000000e+00 1.5000000e+01 
4.5000000e+00 0.0000000e+00 1.8000000e+01 
5.0000000e+00 0.0000000e+00 3.0000000e+00 
5.0000000e+00 0.0000000e+00 6.0000000e+00 
5.0000000e+00 0.0000000e+00 9.0000000e+00 
5.0000000e+00 0.0000000e+00 1.2000000e+01 
5.0000000e+00 0.0000000e+00 1.5000000e+01 
5.0000000e+00 0.0000000e+00 1.8000000e+01 
5.5000000e+00 0.0000000e+00 3.0000000e+00 
5.5000000e+00 0.0000000e+00 6.0000000e+00 
5.5000000e+00 0.0000000e+00 9.0000000e+00 
5.5000000e+00 0.0000000e+00 1.2000000e+01 
5.5000000e+00 0.0000000e+00 1.5000000e+01 
5.5000000e+00 0.0000000e+00 1.8000000e+01 
6.0000000e+00 0.0000000e+00 0.0000000e+00 
6.0000000e+00 0.0000000e+00 2.5000000e-01 
6.0000000e+00 0.0000000e+00 5.0000000e-01 
6.0000000e+00 0.0000000e+00 7.5000000e-01 
6.0000000e+00 0.0000000e+00 1.0000000e+00 
6.0000000e+00 0.0000000e+00 1.2500000e+00 
6.0000000e+00 0.0000000e+00 1.5000000e+00 
6.0000000e+00 0.0000000e+00 1.7500000e+00 
6.0000000e+00 0.0000000e+00 2.0000000e+00 
6.0000000e+00 0.0000000e+00 2.2500000e+00 
6.0000000e+00 0.0000000e+00 2.5000000e+00 
6.0000000e+00 0.0000000e+00 2.7500000e+00 
6.0000000e+00 0.0000000e+00 3.0000000e+00 
6.0000000e+00 0.0000000e+00 3.2500000e+00 
6.0000000e+00 0.0000000e+00 3.5000000e+00 
6.0000000e+00 0.0000000e+00 3.7500000e+00 
6.0000000e+00 0.0000000e+00 4.0000000e+00 
6.0000000e+00 0.0000000e+00 4.2500000e+00 
6.0000000e+00 0.0000000e+00 4.5000000e+00 
6.0000000e+00 0.0000000e+00 4.7500000e+00 
6.0000000e+00 0.0000000e+00 5.0000000e+00 
6.0000000e+00 0.0000000e+00 5.2500000e+00 
6.0000000e+00 0.0000000e+00 5.5000000e+00 
6.0000000e+00 0.0000000e+00 5.7500000e+00 
6.0000000e+00 0.0000000e+00 6.0000000e+00 
6.0000000e+00 0.0000000e+00 6.2500000e+00 
6.0000000e+00 0.0000000e+00 6.5000000e+00 
6.0000000e+00 0.0000000e+00 6.7500000e+00 
6.0000000e+00 0.0000000e+00 7.0000000e+00 
6.0000000e+00 0.0000000e+00 7.2500000e+00 
6.0000000e+00 0.0000000e+00 7.5000000e+00 
6.0000000e+00 0.0000000e+00 7.7500000e+00 
6.0000000e+00 0.0000000e+00 8.0000000e+00 
6.0000000e+00 0.0000000e+00 8.2500000e+00 
6.0000000e+00 0.0000000e+00 8.5000000e+00 
6.0000000e+00 0.0000000e+00 8.7500000e+00 
6.0000000e+00 0.0000000e+00 9.0000000e+00 
6.0000000e+00 0.0000000e+00 9.2500000e+00 
6.0000000e+00 0.0000000e+00 9.5000000e+00 
6.0000000e+00 0.0000000e+00 9.7500000e+00 
6.0000000e+00 0.0000000e+00 1.0000000e+01 
6.0000000e+00 0.0000000e+00 1.0250000e+01 
6.0000000e+00 0.0000000e+00 1.0500000e+01 
6.0000000e+00 0.0000000e+00 1.0750000e+01 
6.0000000e+00 0.0000000e+00 1.1000000e+01 
6.0000000e+00 0.0000000e+00 1.1250000e+01 
6.0000000e+00 0.0000000e+00 1.1500000e+01 
6.0000000e+00 0.0000000e+00 1.1750000e+01 
6.0000000e+00 0.0000000e+00 1.2000000e+01 
6.0000000e+00 0.0000000e+00 1.2250000e+01 
6.0000000e+00 0.0000000e+00 1.2500000e+01 
6.0000000e+00 0.0000000e+00 1.2750000e+01 
6.0000000e+00 0.0000000e+00 1.3000000e+01 
6.0000000e+00 0.0000000e+00 1.3250000e+01 
6.0000000e+00 0.0000000e+00 1.3500000e+01 
6.0000000e+00 0.0000000e+00 1.3750000e+01 
6.0000000e+00 0.0000000e+00 1.4000000e+01 
6.0000000e+00 0.0000000e+00 1.4250000e+01 
6.0000000e+00 0.0000000e+00 1.4500000e+01 
6.0000000e+00 0.0000000e+00 1.4750000e+01 
6.0000000e+00 0.0000000e+00 1.5000000e+01 
6.0000000e+00 0.0000000e+00 1.5250000e+01 
6.0000000e+00 0.0000000e+00 1.5500000e+01 
6.0000000e+00 0.0000000e+00 1.5750000e+01 
6.0000000e+00 0.0000000e+00 1.6000000e+01 
6.0000000e+00 0.0000000e+00 1.6250000e+01 
6.0000000e+00 0.0000000e+00 1.6500000e+01 
6.0000000e+00 0.0000000e+00 1.6750000e+01 
6.0000000e+00 0.0000000e+00 1.7000000e+01 
6.0000000e+00 0.0000000e+00 1.7250000e+01 
6.0000000e+00 0.0000000e+00 1.7500000e+01 
6.0000000e+00 0.0000000e+00 1.7750000e+01 
6.0000000e+00 0.0000000e+00 1.8000000e+01 

CELLS 216 648
2 0 1
2 1 2
2 2 3
2 3 4
2 4 5
2 5 6
2 6 7
2 7 8
2 8 9
2 9 10
2 10 11
2 11 12
2 12 13
2 13 14
2 14 15
2 15 16
2 16 17
2 17 18
2 18 19
2 19 20
2 20 21
2 21 22
2 22 23
2 23 24
2 24 25
2 25 26
2 26 27
2 27 28
2 28 29
2 29 30
2 30 31
2 31 32
2 32 33
2 33 34
2 34 35
2 35 36
2 36 37
2 37 38
2 38 39
2 39 40
2 40 41
2 41 42
2 42 43
2 43 44
2 44 45
2 45 46
2 46 47
2 47 48
2 48 49
2 49 50
2 50 51
2 51 52
2 52 53
2 53 54
2 54 55
2 55 56
2 56 57
2 57 58
2 58 59
2 59 60
2 60 61
2 61 62
2 62 63
2 63 64
2 64 65
2 65 66
2 66 67
2 67 68
2 68 69
2 69 70
2 70 71
2 71 72
2 139 140
2 140 141
2 141 142
2 142 143
2 143 144
2 144 145
2 145 146
2 146 147
2 147 148
2 148 149
2 149 150
2 150 151
2 151 152
2 152 153
2 153 154
2 154 155
2 155 156
2 156 157
2 157 158
2 158 159
2 159 160
2 160 161
2 161 162
2 162 163
2 163 164
2 164 165
2 165 166
2 166 167
2 167 168
2 168 169
2 169 170
2 170 171
2 171 172
2 172 173
2 173 174
2 174 175
2 175 176
2 176 177
2 177 178
2 178 179
2 179 180
2 180 181
2 181 182
2 182 183
2 183 184
2 184 185
2 185 186
2 186 187
2 187 188
2 188 189
2 189 190
2 190 191
2 191 192
2 192 193
2 193 194
2 194 195
2 195 196
2 196 197
2 197 198
2 198 199
2 199 200
2 200 201
2 201 202
2 202 203
2 203 204
2 204 205
2 205 206
2 206 207
2 207 208
2 208 209
2 209 210
2 210 211
2 12 73
2 73 79
2 79 85
2 85 91
2 91 97
2 97 103
2 103 109
2 109 115
2 115 121
2 121 127
2 127 133
2 133 151
2 24 74
2 74 80
2 80 86
2 86 92
2 92 98
2 98 104
2 104 110
2 110 116
2 116 122
2 122 128
2 128 134
2 134 163
2 36 75
2 75 81
2 81 87
2 87 93
2 93 99
2 99 105
2 105 111
2 111 117
2 117 123
2 123 129
2 129 135
2 135 175
2 48 76
2 76 82
2 82 88
2 88 94
2 94 100
2 100 106
2 106 112
2 112 118
2 118 124
2 124 130
2 130 136
2 136 187
2 60 77
2 77 83
2 83 89
2 89 95
2 95 101
2 101 107
2 107 113
2 113 119
2 119 125
2 125 131
2 131 137
2 137 199
2 72 78
2 78 84
2 84 90
2 90 96
2 96 102
2 102 108
2 108 114
2 114 120
2 120 126
2 126 132
2 132 138
2 138 211

CELL_TYPES 216
3
3
3
3
3
3
3
3
3
3
3
3
3
3
3
3
3
3
3
3
3
3
3
3
3
3
3
3
3
3
3
3
3
3
3
3
3
3
3
3
3
3
3
3
3
3
3
3
3
3
3
3
3
3
3
3
3
3
3
3
3
3
3
3
3
3
3
3
3
3
3
3
3
3
3
3
3
3
3
3
3
3
3
3
3
3
3
3
3
3
3
3
3
3
3
3
3
3
3
3
3
3
3
3
3
3
3
3
3
3
3
3
3
3
3
3
3
3
3
3
3
3
3
3
3
3
3
3
3
3
3
3
3
3
3
3
3
3
3
3
3
3
3
3
3
3
3
3
3
3
3
3
3
3
3
3
3
3
3
3
3
3
3
3
3
3
3
3
3
3
3
3
3
3
3
3
3
3
3
3
3
3
3
3
3
3
3
3
3
3
3
3
3
3
3
3
3
3
3
3
3
3
3
3
3
3
3
3
3
3
3
3
3
3
3
3
POINT_DATA 212
FIELD FieldData 8
DISPLACEMENT 3 212  float
0.0000000e+00 0.0000000e+00 0.0000000e+00 
-4.4159060e-05 0.0000000e+00 -3.7117203e-05 
-8.6497130e-05 0.0000000e+00 -7.3976902e-05 
-1.2519321e-04 0.0000000e+00 -1.1057910e-04 
-1.5842631e-04 0.0000000e+00 -1.4692379e-04 
-1.8437544e-04 0.0000000e+00 -1.8301098e-04 
-2.0121962e-04 0.0000000e+00 -2.1884067e-04 
-2.0713783e-04 0.0000000e+00 -2.5441285e-04 
-2.0030909e-04 0.0000000e+00 -2.8972753e-04 
-1.7891241e-04 0.0000000e+00 -3.2478472e-04 
-1.4112679e-04 0.0000000e+00 -3.5958440e-04 
-8.5131251e-05 0.0000000e+00 -3.9412655e-04 
-9.1047878e-06 0.0000000e+00 -4.2841124e-04 
5.9596037e-05 0.0000000e+00 -4.5932079e-04 
9.6329750e-05 0.0000000e+00 -4.8997282e-04 
1.0698997e-04 0.0000000e+00 -5.2036735e-04 
9.7470322e-05 0.0000000e+00 -5.5050437e-04 
7.3664429e-05 0.0000000e+00 -5.8038393e-04 
4.1465908e-05 0.0000000e+00 -6.1000593e-04 
6.7683864e-06 0.0000000e+00 -6.3937047e-04 
-2.4534516e-05 0.0000000e+00 -6.6847750e-04 
-4.6549176e-05 0.0000000e+00 -6.9732702e-04 
-5.3381977e-05 0.0000000e+00 -7.2591903e-04 
-3.9139290e-05 0.0000000e+00 -7.5425353e-04 
2.0725042e-06 0.0000000e+00 -7.8233052e-04 
4.4886692e-05 0.0000000e+00 -8.0703245e-04 
6.3318541e-05 0.0000000e+00 -8.3147682e-04 
6.2334620e-05 0.0000000e+00 -8.5566367e-04 
4.6901510e-05 0.0000000e+00 -8.7959308e-04 
2.1985790e-05 0.0000000e+00 -9.0326491e-04 
-7.4459631e-06 0.0000000e+00 -9.2667929e-04 
-3.6427173e-05 0.0000000e+00 -9.4983616e-04 
-5.9991260e-05 0.0000000e+00 -9.7273552e-04 
-7.3171650e-05 0.0000000e+00 -9.9537743e-04 
-7.1001756e-05 0.0000000e+00 -1.0177618e-03 
-4.8515012e-05 0.0000000e+00 -1.0398886e-03 
-7.4483575e-07 0.0000000e+00 -1.0617579e-03 
4.6450328e-05 0.0000000e+00 -1.0802522e-03 
6.7434143e-05 0.0000000e+00 -1.0984889e-03 
6.7506357e-05 0.0000000e+00 -1.1164681e-03 
5.1966712e-05 0.0000000e+00 -1.1341898e-03 
2.6114965e-05 0.0000000e+00 -1.1516541e-03 
-4.7491403e-06 0.0000000e+00 -1.1688607e-03 
-3.5325858e-05 0.0000000e+00 -1.1858100e-03 
-6.0315440e-05 0.0000000e+00 -1.2025017e-03 
-7.4418138e-05 0.0000000e+00 -1.2189358e-03 
-7.2334209e-05 0.0000000e+00 -1.2351125e-03 
-4.8763897e-05 0.0000000e+00 -1.2510318e-03 
1.5925392e-06 0.0000000e+00 -1.2666935e-03 
5.3179265e-05 0.0000000e+00 -1.2789801e-03 
7.9965539e-05 0.0000000e+00 -1.2910091e-03 
8.6538756e-05 0.0000000e+00 -1.3027806e-03 
7.7486315e-05 0.0000000e+00 -1.3142946e-03 
5.7395602e-05 0.0000000e+00 -1.3255513e-03 
3.0854018e-05 0.0000000e+00 -1.3365503e-03 
2.4489568e-06 0.0000000e+00 -1.3472919e-03 
-2.3232187e-05 0.0000000e+00 -1.3577759e-03 
-4.1602019e-05 0.0000000e+00 -1.3680024e-03 
-4.8073147e-05 0.0000000e+00 -1.3779715e-03 
-3.8058177e-05 0.0000000e+00 -1.3876830e-03 
-6.9697085e-06 0.0000000e+00 -1.3971371e-03 
1.8630648e-05 0.0000000e+00 -1.4032159e-03 
1.4259689e-05 0.0000000e+00 -1.4090374e-03 
-1.2377599e-05 0.0000000e+00 -1.4146012e-03 
-5.3576226e-05 0.0000000e+00 -1.4199077e-03 
-1.0163120e-04 0.0000000e+00 -1.4249565e-03 
-1.4883754e-04 0.0000000e+00 -1.4297479e-03 
-1.8749024e-04 0.0000000e+00 -1.4342818e-03 
-2.0988433e-04 0.0000000e+00 -1.4385582e-03 
-2.0831480e-04 0.0000000e+00 -1.4425771e-03 
-1.7507668e-04 0.0000000e+00 -1.4463385e-03 
-1.0246498e-04 0.0000000e+00 -1.4498424e-03 
1.7225308e-05 0.0000000e+00 -1.4530887e-03 
-7.5873227e-06 0.0000000e+00 -6.9975975e-04 
1.7270869e-06 0.0000000e+00 -9.9870109e-04 
-6.2069643e-07 0.0000000e+00 -1.2880404e-03 
1.3271160e-06 0.0000000e+00 -1.4992985e-03 
-5.8080905e-06 0.0000000e+00 -1.5887455e-03 
1.4354423e-05 0.0000000e+00 -1.8328771e-03 
-6.0698580e-06 0.0000000e+00 -1.0891160e-03 
1.3816694e-06 0.0000000e+00 -1.3430752e-03 
-4.9655716e-07 0.0000000e+00 -1.6405244e-03 
1.0616928e-06 0.0000000e+00 -1.8569554e-03 
-4.6464725e-06 0.0000000e+00 -1.9128599e-03 
1.1483538e-05 0.0000000e+00 -2.3109568e-03 
-4.5523939e-06 0.0000000e+00 -1.4960736e-03 
1.0362521e-06 0.0000000e+00 -1.7150468e-03 
-3.7241787e-07 0.0000000e+00 -2.0188035e-03 
7.9626960e-07 0.0000000e+00 -2.2392580e-03 
-3.4848542e-06 0.0000000e+00 -2.2690739e-03 
8.6126538e-06 0.0000000e+00 -2.7869216e-03 
-3.0349290e-06 0.0000000e+00 -1.8425388e-03 
6.9083472e-07 0.0000000e+00 -2.0365219e-03 
-2.4827858e-07 0.0000000e+00 -2.3447843e-03 
5.3084642e-07 0.0000000e+00 -2.5681127e-03 
-2.3232362e-06 0.0000000e+00 -2.5792937e-03 
5.7417692e-06 0.0000000e+00 -3.1826776e-03 
-1.5174645e-06 0.0000000e+00 -2.0727306e-03 
3.4541736e-07 0.0000000e+00 -2.2517196e-03 
-1.2413929e-07 0.0000000e+00 -2.5626852e-03 
2.6542321e-07 0.0000000e+00 -2.7877379e-03 
-1.1616181e-06 0.0000000e+00 -2.7877379e-03 
2.8708846e-06 0.0000000e+00 -3.4424437e-03 
7.2081027e-16 0.0000000e+00 -2.1531798e-03 
9.9560253e-16 0.0000000e+00 -2.3271709e-03 
1.1712548e-15 0.0000000e+00 -2.6390376e-03 
1.2719056e-15 0.0000000e+00 -2.8646649e-03 
1.1934797e-15 0.0000000e+00 -2.8609382e-03 
1.0269928e-15 0.0000000e+00 -3.5327512e-03 
1.5174645e-06 0.0000000e+00 -2.0727306e-03 
-3.4541736e-07 0.0000000e+00 -2.2517196e-03 
1.2413929e-07 0.0000000e+00 -2.5626852e-03 
-2.6542321e-07 0.0000000e+00 -2.7877379e-03 
1.1616181e-06 0.0000000e+00 -2.7877379e-03 
-2.8708846e-06 0.0000000e+00 -3.4424437e-03 
3.0349290e-06 0.0000000e+00 -1.8425388e-03 
-6.9083472e-07 0.0000000e+00 -2.0365219e-03 
2.4827858e-07 0.0000000e+00 -2.3447843e-03 
-5.3084642e-07 0.0000000e+00 -2.5681127e-03 
2.3232362e-06 0.0000000e+00 -2.5792937e-03 
-5.7417692e-06 0.0000000e+00 -3.1826776e-03 
4.5523939e-06 0.0000000e+00 -1.4960736e-03 
-1.0362521e-06 0.0000000e+00 -1.7150468e-03 
3.7241787e-07 0.0000000e+00 -2.0188035e-03 
-7.9626960e-07 0.0000000e+00 -2.2392580e-03 
3.4848542e-06 0.0000000e+00 -2.2690739e-03 
-8.6126538e-06 0.0000000e+00 -2.7869216e-03 
6.0698580e-06 0.0000000e+00 -1.0891160e-03 
-1.3816694e-06 0.0000000e+00 -1.3430752e-03 
4.9655716e-07 0.0000000e+00 -1.6405244e-03 
-1.0616928e-06 0.0000000e+00 -1.8569554e-03 
4.6464725e-06 0.0000000e+00 -1.9128599e-03 
-1.1483538e-05 0.0000000e+00 -2.3109568e-03 
7.5873227e-06 0.0000000e+00 -6.9975975e-04 
-1.7270869e-06 0.0000000e+00 -9.9870109e-04 
6.2069643e-07 0.0000000e+00 -1.2880404e-03 
-1.3271160e-06 0.0000000e+00 -1.4992985e-03 
5.8080905e-06 0.0000000e+00 -1.5887455e-03 
-1.4354423e-05 0.0000000e+00 -1.8328771e-03 
0.0000000e+00 0.0000000e+00 0.0000000e+00 
4.4159060e-05 0.0000000e+00 -3.7117203e-05 
8.6497130e-05 0.0000000e+00 -7.3976902e-05 
1.2519321e-04 0.0000000e+00 -1.1057910e-04 
1.5842631e-04 0.0000000e+00 -1.4692379e-04 
1.8437544e-04 0.0000000e+00 -1.8301098e-04 
2.0121962e-04 0.0000000e+00 -2.1884067e-04 
2.0713783e-04 0.0000000e+00 -2.5441285e-04 
2.0030909e-04 0.0000000e+00 -2.8972753e-04 
1.7891241e-04 0.0000000e+00 -3.2478472e-04 
1.4112679e-04 0.0000000e+00 -3.5958440e-04 
8.5131251e-05 0.0000000e+00 -3.9412655e-04 
9.1047878e-06 0.0000000e+00 -4.2841124e-04 
-5.9596037e-05 0.0000000e+00 -4.5932079e-04 
-9.6329750e-05 0.0000000e+00 -4.8997282e-04 
-1.0698997e-04 0.0000000e+00 -5.2036735e-04 
-9.7470322e-05 0.0000000e+00 -5.5050437e-04 
-7.3664429e-05 0.0000000e+00 -5.8038393e-04 
-4.1465908e-05 0.0000000e+00 -6.1000593e-04 
-6.7683864e-06 0.0000000e+00 -6.3937047e-04 
2.4534516e-05 0.0000000e+00 -6.6847750e-04 
4.6549176e-05 0.0000000e+00 -6.9732702e-04 
5.3381977e-05 0.0000000e+00 -7.2591903e-04 
3.9139290e-05 0.0000000e+00 -7.5425353e-04 
-2.0725042e-06 0.0000000e+00 -7.8233052e-04 
-4.4886692e-05 0.0000000e+00 -8.0703245e-04 
-6.3318541e-05 0.0000000e+00 -8.3147682e-04 
-6.2334620e-05 0.0000000e+00 -8.5566367e-04 
-4.6901510e-05 0.0000000e+00 -8.7959308e-04 
-2.1985790e-05 0.0000000e+00 -9.0326491e-04 
7.4459631e-06 0.0000000e+00 -9.2667929e-04 
3.6427173e-05 0.0000000e+00 -9.4983616e-04 
5.9991260e-05 0.0000000e+00 -9.7273552e-04 
7.3171650e-05 0.0000000e+00 -9.9537743e-04 
7.1001756e-05 0.0000000e+00 -1.0177618e-03 
4.8515012e-05 0.0000000e+00 -1.0398886e-03 
7.4483575e-07 0.0000000e+00 -1.0617579e-03 
-4.6450328e-05 0.0000000e+00 -1.0802522e-03 
-6.7434143e-05 0.0000000e+00 -1.0984889e-03 
-6.7506357e-05 0.0000000e+00 -1.1164681e-03 
-5.1966712e-05 0.0000000e+00 -1.1341898e-03 
-2.6114965e-05 0.0000000e+00 -1.1516541e-03 
4.7491403e-06 0.0000000e+00 -1.1688607e-03 
3.5325858e-05 0.0000000e+00 -1.1858100e-03 
6.0315440e-05 0.0000000e+00 -1.2025017e-03 
7.4418138e-05 0.0000000e+00 -1.2189358e-03 
7.2334209e-05 0.0000000e+00 -1.2351125e-03 
4.8763897e-05 0.0000000e+00 -1.2510318e-03 
-1.5925392e-06 0.0000000e+00 -1.2666935e-03 
-5.3179265e-05 0.0000000e+00 -1.2789801e-03 
-7.9965539e-05 0.0000000e+00 -1.2910091e-03 
-8.6538756e-05 0.0000000e+00 -1.3027806e-03 
-7.7486315e-05 0.0000000e+00 -1.3142946e-03 
-5.7395602e-05 0.0000000e+00 -1.3255513e-03 
-3.0854018e-05 0.0000000e+00 -1.3365503e-03 
-2.4489568e-06 0.0000000e+00 -1.3472919e-03 
2.3232187e-05 0.0000000e+00 -1.3577759e-03 
4.1602019e-05 0.0000000e+00 -1.3680024e-03 
4.8073147e-05 0.0000000e+00 -1.3779715e-03 
3.8058177e-05 0.0000000e+00 -1.3876830e-03 
6.9697085e-06 0.0000000e+00 -1.3971371e-03 
-1.8630648e-05 0.0000000e+00 -1.4032159e-03 
-1.4259689e-05 0.0000000e+00 -1.4090374e-03 
1.2377599e-05 0.0000000e+00 -1.4146012e-03 
5.3576226e-05 0.0000000e+00 -1.4199077e-03 
1.0163120e-04 0.0000000e+00 -1.4249565e-03 
1.4883754e-04 0.0000000e+00 -1.4297479e-03 
1.8749024e-04 0.0000000e+00 -1.4342818e-03 
2.0988433e-04 0.0000000e+00 -1.4385582e-03 
2.0831480e-04 0.0000000e+00 -1.4425771e-03 
1.7507668e-04 0.0000000e+00 -1.4463385e-03 
1.0246498e-04 0.0000000e+00 -1.4498424e-03 
-1.7225308e-05 0.0000000e+00 -1.4530887e-03 
ROTATION 3 212  float
0.0000000e+00 -1.7785023e-04 0.0000000e+00 
0.0000000e+00 -1.7420825e-04 0.0000000e+00 
0.0000000e+00 -1.6328230e-04 0.0000000e+00 
0.0000000e+00 -1.4507236e-04 0.0000000e+00 
0.0000000e+00 -1.1957846e-04 0.0000000e+00 
0.0000000e+00 -8.6800595e-05 0.0000000e+00 
0.0000000e+00 -4.6738754e-05 0.0000000e+00 
0.0000000e+00 6.0705645e-07 0.0000000e+00 
0.0000000e+00 5.5236840e-05 0.0000000e+00 
0.0000000e+00 1.1715059e-04 0.0000000e+00 
0.0000000e+00 1.8634832e-04 0.0000000e+00 
0.0000000e+00 2.6283003e-04 0.0000000e+00 
0.0000000e+00 3.4659568e-04 0.0000000e+00 
0.0000000e+00 2.0693999e-04 0.0000000e+00 
0.0000000e+00 9.0858783e-05 0.0000000e+00 
0.0000000e+00 -1.6479346e-06 0.0000000e+00 
0.0000000e+00 -7.0580165e-05 0.0000000e+00 
0.0000000e+00 -1.1593791e-04 0.0000000e+00 
0.0000000e+00 -1.3772116e-04 0.0000000e+00 
0.0000000e+00 -1.3592993e-04 0.0000000e+00 
0.0000000e+00 -1.1056421e-04 0.0000000e+00 
0.0000000e+00 -6.1623999e-05 0.0000000e+00 
0.0000000e+00 1.0890695e-05 0.0000000e+00 
0.0000000e+00 1.0697988e-04 0.0000000e+00 
0.0000000e+00 2.2664355e-04 0.0000000e+00 
0.0000000e+00 1.1918102e-04 0.0000000e+00 
0.0000000e+00 3.1584797e-05 0.0000000e+00 
0.0000000e+00 -3.6145109e-05 0.0000000e+00 
0.0000000e+00 -8.4008709e-05 0.0000000e+00 
0.0000000e+00 -1.1200600e-04 0.0000000e+00 
0.0000000e+00 -1.2013697e-04 0.0000000e+00 
0.0000000e+00 -1.0840165e-04 0.0000000e+00 
0.0000000e+00 -7.6800003e-05 0.0000000e+00 
0.0000000e+00 -2.5332047e-05 0.0000000e+00 
0.0000000e+00 4.6002217e-05 0.0000000e+00 
0.0000000e+00 1.3720279e-04 0.0000000e+00 
0.0000000e+00 2.4826967e-04 0.0000000e+00 
0.0000000e+00 1.3282479e-04 0.0000000e+00 
0.0000000e+00 3.8578888e-05 0.0000000e+00 
0.0000000e+00 -3.4468019e-05 0.0000000e+00 
0.0000000e+00 -8.6315944e-05 0.0000000e+00 
0.0000000e+00 -1.1696487e-04 0.0000000e+00 
0.0000000e+00 -1.2641482e-04 0.0000000e+00 
0.0000000e+00 -1.1466577e-04 0.0000000e+00 
0.0000000e+00 -8.1717728e-05 0.0000000e+00 
0.0000000e+00 -2.7570699e-05 0.0000000e+00 
0.0000000e+00 4.7775320e-05 0.0000000e+00 
0.0000000e+00 1.4432032e-04 0.0000000e+00 
0.0000000e+00 2.6206434e-04 0.0000000e+00 
0.0000000e+00 1.5368774e-04 0.0000000e+00 
0.0000000e+00 6.3660722e-05 0.0000000e+00 
0.0000000e+00 -8.0167147e-06 0.0000000e+00 
0.0000000e+00 -6.1344574e-05 0.0000000e+00 
0.0000000e+00 -9.6322852e-05 0.0000000e+00 
0.0000000e+00 -1.1295155e-04 0.0000000e+00 
0.0000000e+00 -1.1123067e-04 0.0000000e+00 
0.0000000e+00 -9.1160218e-05 0.0000000e+00 
0.0000000e+00 -5.2740186e-05 0.0000000e+00 
0.0000000e+00 4.0294267e-06 0.0000000e+00 
0.0000000e+00 7.9148616e-05 0.0000000e+00 
0.0000000e+00 1.7261738e-04 0.0000000e+00 
0.0000000e+00 3.7322134e-05 0.0000000e+00 
0.0000000e+00 -6.7153152e-05 0.0000000e+00 
0.0000000e+00 -1.4080849e-04 0.0000000e+00 
0.0000000e+00 -1.8364386e-04 0.0000000e+00 
0.0000000e+00 -1.9565928e-04 0.0000000e+00 
0.0000000e+00 -1.7685474e-04 0.0000000e+00 
0.0000000e+00 -1.2723025e-04 0.0000000e+00 
0.0000000e+00 -4.6785786e-05 0.0000000e+00 
0.0000000e+00 6.4478627e-05 0.0000000e+00 
0.0000000e+00 2.0656300e-04 0.0000000e+00 
0.0000000e+00 3.7946732e-04 0.0000000e+00 
0.0000000e+00 5.8319164e-04 0.0000000e+00 
0.0000000e+00 6.9789228e-04 0.0000000e+00 
0.0000000e+00 5.9793214e-04 0.0000000e+00 
0.0000000e+00 6.1595393e-04 0.0000000e+00 
0.0000000e+00 6.2744948e-04 0.0000000e+00 
0.0000000e+00 5.5291032e-04 0.0000000e+00 
0.0000000e+00 8.9505553e-04 0.0000000e+00 
0.0000000e+00 8.2606380e-04 0.0000000e+00 
0.0000000e+00 7.4609573e-04 0.0000000e+00 
0.0000000e+00 7.6051312e-04 0.0000000e+00 
0.0000000e+00 7.6970959e-04 0.0000000e+00 
0.0000000e+00 7.1007828e-04 0.0000000e+00 
0.0000000e+00 9.8379445e-04 0.0000000e+00 
0.0000000e+00 7.7573536e-04 0.0000000e+00 
0.0000000e+00 7.1575929e-04 0.0000000e+00 
0.0000000e+00 7.2657235e-04 0.0000000e+00 
0.0000000e+00 7.3346967e-04 0.0000000e+00 
0.0000000e+00 6.8874622e-04 0.0000000e+00 
0.0000000e+00 8.9403335e-04 0.0000000e+00 
0.0000000e+00 5.9153192e-04 0.0000000e+00 
0.0000000e+00 5.5154786e-04 0.0000000e+00 
0.0000000e+00 5.5875658e-04 0.0000000e+00 
0.0000000e+00 5.6335481e-04 0.0000000e+00 
0.0000000e+00 5.3353916e-04 0.0000000e+00 
0.0000000e+00 6.7039725e-04 0.0000000e+00 
0.0000000e+00 3.1807847e-04 0.0000000e+00 
0.0000000e+00 2.9808644e-04 0.0000000e+00 
0.0000000e+00 3.0169080e-04 0.0000000e+00 
0.0000000e+00 3.0398989e-04 0.0000000e+00 
0.0000000e+00 2.8908209e-04 0.0000000e+00 
0.0000000e+00 3.5751110e-04 0.0000000e+00 
0.0000000e+00 -5.0358785e-17 0.0000000e+00 
0.0000000e+00 -3.3047953e-17 0.0000000e+00 
0.0000000e+00 -2.9900528e-17 0.0000000e+00 
0.0000000e+00 -4.7211362e-18 0.0000000e+00 
0.0000000e+00 -1.1015984e-17 0.0000000e+00 
0.0000000e+00 3.2299940e-17 0.0000000e+00 
0.0000000e+00 -3.1807847e-04 0.0000000e+00 
0.0000000e+00 -2.9808644e-04 0.0000000e+00 
0.0000000e+00 -3.0169080e-04 0.0000000e+00 
0.0000000e+00 -3.0398989e-04 0.0000000e+00 
0.0000000e+00 -2.8908209e-04 0.0000000e+00 
0.0000000e+00 -3.5751110e-04 0.0000000e+00 
0.0000000e+00 -5.9153192e-04 0.0000000e+00 
0.0000000e+00 -5.5154786e-04 0.0000000e+00 
0.0000000e+00 -5.5875658e-04 0.0000000e+00 
0.0000000e+00 -5.6335481e-04 0.0000000e+00 
0.0000000e+00 -5.3353916e-04 0.0000000e+00 
0.0000000e+00 -6.7039725e-04 0.0000000e+00 
0.0000000e+00 -7.7573536e-04 0.0000000e+00 
0.0000000e+00 -7.1575929e-04 0.0000000e+00 
0.0000000e+00 -7.2657235e-04 0.0000000e+00 
0.0000000e+00 -7.3346967e-04 0.0000000e+00 
0.0000000e+00 -6.8874622e-04 0.0000000e+00 
0.0000000e+00 -8.9403335e-04 0.0000000e+00 
0.0000000e+00 -8.2606380e-04 0.0000000e+00 
0.0000000e+00 -7.4609573e-04 0.0000000e+00 
0.0000000e+00 -7.6051312e-04 0.0000000e+00 
0.0000000e+00 -7.6970959e-04 0.0000000e+00 
0.0000000e+00 -7.1007828e-04 0.0000000e+00 
0.0000000e+00 -9.8379445e-04 0.0000000e+00 
0.0000000e+00 -6.9789228e-04 0.0000000e+00 
0.0000000e+00 -5.9793214e-04 0.0000000e+00 
0.0000000e+00 -6.1595393e-04 0.0000000e+00 
0.0000000e+00 -6.2744948e-04 0.0000000e+00 
0.0000000e+00 -5.5291032e-04 0.0000000e+00 
0.0000000e+00 -8.9505553e-04 0.0000000e+00 
0.0000000e+00 1.7785023e-04 0.0000000e+00 
0.0000000e+00 1.7420825e-04 0.0000000e+00 
0.0000000e+00 1.6328230e-04 0.0000000e+00 
0.0000000e+00 1.4507236e-04 0.0000000e+00 
0.0000000e+00 1.1957846e-04 0.0000000e+00 
0.0000000e+00 8.6800595e-05 0.0000000e+00 
0.0000000e+00 4.6738754e-05 0.0000000e+00 
0.0000000e+00 -6.0705645e-07 0.0000000e+00 
0.0000000e+00 -5.5236840e-05 0.0000000e+00 
0.0000000e+00 -1.1715059e-04 0.0000000e+00 
0.0000000e+00 -1.8634832e-04 0.0000000e+00 
0.0000000e+00 -2.6283003e-04 0.0000000e+00 
0.0000000e+00 -3.4659568e-04 0.0000000e+00 
0.0000000e+00 -2.0693999e-04 0.0000000e+00 
0.0000000e+00 -9.0858783e-05 0.0000000e+00 
0.0000000e+00 1.6479346e-06 0.0000000e+00 
0.0000000e+00 7.0580165e-05 0.0000000e+00 
0.0000000e+00 1.1593791e-04 0.0000000e+00 
0.0000000e+00 1.3772116e-04 0.0000000e+00 
0.0000000e+00 1.3592993e-04 0.0000000e+00 
0.0000000e+00 1.1056421e-04 0.0000000e+00 
0.0000000e+00 6.1623999e-05 0.0000000e+00 
0.0000000e+00 -1.0890695e-05 0.0000000e+00 
0.0000000e+00 -1.0697988e-04 0.0000000e+00 
0.0000000e+00 -2.2664355e-04 0.0000000e+00 
0.0000000e+00 -1.1918102e-04 0.0000000e+00 
0.0000000e+00 -3.1584797e-05 0.0000000e+00 
0.0000000e+00 3.6145109e-05 0.0000000e+00 
0.0000000e+00 8.4008709e-05 0.0000000e+00 
0.0000000e+00 1.1200600e-04 0.0000000e+00 
0.0000000e+00 1.2013697e-04 0.0000000e+00 
0.0000000e+00 1.0840165e-04 0.0000000e+00 
0.0000000e+00 7.6800003e-05 0.0000000e+00 
0.0000000e+00 2.5332047e-05 0.0000000e+00 
0.0000000e+00 -4.6002217e-05 0.0000000e+00 
0.0000000e+00 -1.3720279e-04 0.0000000e+00 
0.0000000e+00 -2.4826967e-04 0.0000000e+00 
0.0000000e+00 -1.3282479e-04 0.0000000e+00 
0.0000000e+00 -3.8578888e-05 0.0000000e+00 
0.0000000e+00 3.4468019e-05 0.0000000e+00 
0.0000000e+00 8.6315944e-05 0.0000000e+00 
0.0000000e+00 1.1696487e-04 0.0000000e+00 
0.0000000e+00 1.2641482e-04 0.0000000e+00 
0.0000000e+00 1.1466577e-04 0.0000000e+00 
0.0000000e+00 8.1717728e-05 0.0000000e+00 
0.0000000e+00 2.7570699e-05 0.0000000e+00 
0.0000000e+00 -4.7775320e-05 0.0000000e+00 
0.0000000e+00 -1.4432032e-04 0.0000000e+00 
0.0000000e+00 -2.6206434e-04 0.0000000e+00 
0.0000000e+00 -1.5368774e-04 0.0000000e+00 
0.0000000e+00 -6.3660722e-05 0.0000000e+00 
0.0000000e+00 8.0167147e-06 0.0000000e+00 
0.0000000e+00 6.1344574e-05 0.0000000e+00 
0.0000000e+00 9.6322852e-05 0.0000000e+00 
0.0000000e+00 1.1295155e-04 0.0000000e+00 
0.0000000e+00 1.1123067e-04 0.0000000e+00 
0.0000000e+00 9.1160218e-05 0.0000000e+00 
0.0000000e+00 5.2740186e-05 0.0000000e+00 
0.0000000e+00 -4.0294267e-06 0.0000000e+00 
0.0000000e+00 -7.9148616e-05 0.0000000e+00 
0.0000000e+00 -1.7261738e-04 0.0000000e+00 
0.0000000e+00 -3.7322134e-05 0.0000000e+00 
0.0000000e+00 6.7153152e-05 0.0000000e+00 
0.0000000e+00 1.4080849e-04 0.0000000e+00 
0.0000000e+00 1.8364386e-04 0.0000000e+00 