# vtk DataFile Version 4.0
vtk output
ASCII
DATASET UNSTRUCTURED_GRID
POINTS 212 float
0.0000000e+00 0.0000000e+00 0.0000000e+00 
0.0000000e+00 0.0000000e+00 2.5000000e-01 
0.0000000e+00 0.0000000e+00 5.0000000e-01 
0.0000000e+00 0.0000000e+00 7.5000000e-01 
0.0000000e+00 0.0000000e+00 1.0000000e+00 
0.0000000e+00 0.0000000e+00 1.2500000e+00 
0.0000000e+00 0.0000000e+00 1.5000000e+00 
0.0000000e+00 0.0000000e+00 1.7500000e+00 
0.0000000e+00 0.0000000e+00 2.0000000e+00 
0.0000000e+00 0.0000000e+00 2.2500000e+00 
0.0000000e+00 0.0000000e+00 2.5000000e+00 
0.0000000e+00 0.0000000e+00 2.7500000e+00 
0.0000000e+00 0.0000000e+00 3.0000000e+00 
0.0000000e+00 0.0000000e+00 3.2500000e+00 
0.0000000e+00 0.0000000e+00 3.5000000e+00 
0.0000000e+00 0.0000000e+00 3.7500000e+00 
0.0000000e+00 0.0000000e+00 4.0000000e+00 
0.0000000e+00 0.0000000e+00 4.2500000e+00 
0.0000000e+00 0.0000000e+00 4.5000000e+00 
0.0000000e+00 0.0000000e+00 4.7500000e+00 
0.0000000e+00 0.0000000e+00 5.0000000e+00 
0.0000000e+00 0.0000000e+00 5.2500000e+00 
0.0000000e+00 0.0000000e+00 5.5000000e+00 
0.0000000e+00 0.0000000e+00 5.7500000e+00 
0.0000000e+00 0.0000000e+00 6.0000000e+00 
0.0000000e+00 0.0000000e+00 6.2500000e+00 
0.0000000e+00 0.0000000e+00 6.5000000e+00 
0.0000000e+00 0.0000000e+00 6.7500000e+00 
0.0000000e+00 0.0000000e+00 7.0000000e+00 
0.0000000e+00 0.0000000e+00 7.2500000e+00 
0.0000000e+00 0.0000000e+00 7.5000000e+00 
0.0000000e+00 0.0000000e+00 7.7500000e+00 
0.0000000e+00 0.0000000e+00 8.0000000e+00 
0.0000000e+00 0.0000000e+00 8.2500000e+00 
0.0000000e+00 0.0000000e+00 8.5000000e+00 
0.0000000e+00 0.0000000e+00 8.7500000e+00 
0.0000000e+00 0.0000000e+00 9.0000000e+00 
0.0000000e+00 0.0000000e+00 9.2500000e+00 
0.0000000e+00 0.0000000e+00 9.5000000e+00 
0.0000000e+00 0.0000000e+00 9.7500000e+00 
0.0000000e+00 0.0000000e+00 1.0000000e+01 
0.0000000e+00 0.0000000e+00 1.0250000e+01 
0.0000000e+00 0.0000000e+00 1.0500000e+01 
0.0000000e+00 0.0000000e+00 1.0750000e+01 
0.0000000e+00 0.0000000e+00 1.1000000e+01 
0.0000000e+00 0.0000000e+00 1.1250000e+01 
0.0000000e+00 0.0000000e+00 1.1500000e+01 
0.0000000e+00 0.0000000e+00 1.1750000e+01 
0.0000000e+00 0.0000000e+00 1.2000000e+01 
0.0000000e+00 0.0000000e+00 1.2250000e+01 
0.0000000e+00 0.0000000e+00 1.2500000e+01 
0.0000000e+00 0.0000000e+00 1.2750000e+01 
0.0000000e+00 0.0000000e+00 1.3000000e+01 
0.0000000e+00 0.0000000e+00 1.3250000e+01 
0.0000000e+00 0.0000000e+00 1.3500000e+01 
0.0000000e+00 0.0000000e+00 1.3750000e+01 
0.0000000e+00 0.0000000e+00 1.4000000e+01 
0.0000000e+00 0.0000000e+00 1.4250000e+01 
0.0000000e+00 0.0000000e+00 1.4500000e+01 
0.0000000e+00 0.0000000e+00 1.4750000e+01 
0.0000000e+00 0.0000000e+00 1.5000000e+01 
0.0000000e+00 0.0000000e+00 1.5250000e+01 
0.0000000e+00 0.0000000e+00 1.5500000e+01 
0.0000000e+00 0.0000000e+00 1.5750000e+01 
0.0000000e+00 0.0000000e+00 1.6000000e+01 
0.0000000e+00 0.0000000e+00 1.6250000e+01 
0.0000000e+00 0.0000000e+00 1.6500000e+01 
0.0000000e+00 0.0000000e+00 1.6750000e+01 
0.0000000e+00 0.0000000e+00 1.7000000e+01 
0.0000000e+00 0.0000000e+00 1.7250000e+01 
0.0000000e+00 0.0000000e+00 1.7500000e+01 
0.0000000e+00 0.0000000e+00 1.7750000e+01 
0.0000000e+00 0.0000000e+00 1.8000000e+01 
6.0000000e+00 0.0000000e+00 0.0000000e+00 
6.0000000e+00 0.0000000e+00 2.5000000e-01 
6.0000000e+00 0.0000000e+00 5.0000000e-01 
6.0000000e+00 0.0000000e+00 7.5000000e-01 
6.0000000e+00 0.0000000e+00 1.0000000e+00 
6.0000000e+00 0.0000000e+00 1.2500000e+00 
6.0000000e+00 0.0000000e+00 1.5000000e+00 
6.0000000e+00 0.0000000e+00 1.7500000e+00 
6.0000000e+00 0.0000000e+00 2.0000000e+00 
6.0000000e+00 0.0000000e+00 2.2500000e+00 
6.0000000e+00 0.0000000e+00 2.5000000e+00 
6.0000000e+00 0.0000000e+00 2.7500000e+00 
6.0000000e+00 0.0000000e+00 3.0000000e+00 
6.0000000e+00 0.0000000e+00 3.2500000e+00 
6.0000000e+00 0.0000000e+00 3.5000000e+00 
6.0000000e+00 0.0000000e+00 3.7500000e+00 
6.0000000e+00 0.0000000e+00 4.0000000e+00 
6.0000000e+00 0.0000000e+00 4.2500000e+00 
6.0000000e+00 0.0000000e+00 4.5000000e+00 
6.0000000e+00 0.0000000e+00 4.7500000e+00 
6.0000000e+00 0.0000000e+00 5.0000000e+00 
6.0000000e+00 0.0000000e+00 5.2500000e+00 
6.0000000e+00 0.0000000e+00 5.5000000e+00 
6.0000000e+00 0.0000000e+00 5.7500000e+00 
6.0000000e+00 0.0000000e+00 6.0000000e+00 
6.0000000e+00 0.0000000e+00 6.2500000e+00 
6.0000000e+00 0.0000000e+00 6.5000000e+00 
6.0000000e+00 0.0000000e+00 6.7500000e+00 
6.0000000e+00 0.0000000e+00 7.0000000e+00 
6.0000000e+00 0.0000000e+00 7.2500000e+00 
6.0000000e+00 0.0000000e+00 7.5000000e+00 
6.0000000e+00 0.0000000e+00 7.7500000e+00 
6.0000000e+00 0.0000000e+00 8.0000000e+00 
6.0000000e+00 0.0000000e+00 8.2500000e+00 
6.0000000e+00 0.0000000e+00 8.5000000e+00 
6.0000000e+00 0.0000000e+00 8.7500000e+00 
6.0000000e+00 0.0000000e+00 9.0000000e+00 
6.0000000e+00 0.0000000e+00 9.2500000e+00 
6.0000000e+00 0.0000000e+00 9.5000000e+00 
6.0000000e+00 0.0000000e+00 9.7500000e+00 
6.0000000e+00 0.0000000e+00 1.0000000e+01 
6.0000000e+00 0.0000000e+00 1.0250000e+01 
6.0000000e+00 0.0000000e+00 1.0500000e+01 
6.0000000e+00 0.0000000e+00 1.0750000e+01 
6.0000000e+00 0.0000000e+00 1.1000000e+01 
6.0000000e+00 0.0000000e+00 1.1250000e+01 
6.0000000e+00 0.0000000e+00 1.1500000e+01 
6.0000000e+00 0.0000000e+00 1.1750000e+01 
6.0000000e+00 0.0000000e+00 1.2000000e+01 
6.0000000e+00 0.0000000e+00 1.2250000e+01 
6.0000000e+00 0.0000000e+00 1.2500000e+01 
6.0000000e+00 0.0000000e+00 1.2750000e+01 
6.0000000e+00 0.0000000e+00 1.3000000e+01 
6.0000000e+00 0.0000000e+00 1.3250000e+01 
6.0000000e+00 0.0000000e+00 1.3500000e+01 
6.0000000e+00 0.0000000e+00 1.3750000e+01 
6.0000000e+00 0.0000000e+00 1.4000000e+01 
6.0000000e+00 0.0000000e+00 1.4250000e+01 
6.0000000e+00 0.0000000e+00 1.4500000e+01 
6.0000000e+00 0.0000000e+00 1.4750000e+01 
6.0000000e+00 0.0000000e+00 1.5000000e+01 
6.0000000e+00 0.0000000e+00 1.5250000e+01 
6.0000000e+00 0.0000000e+00 1.5500000e+01 
6.0000000e+00 0.0000000e+00 1.5750000e+01 
6.0000000e+00 0.0000000e+00 1.6000000e+01 
6.0000000e+00 0.0000000e+00 1.6250000e+01 
6.0000000e+00 0.0000000e+00 1.6500000e+01 
6.0000000e+00 0.0000000e+00 1.6750000e+01 
6.0000000e+00 0.0000000e+00 1.7000000e+01 
6.0000000e+00 0.0000000e+00 1.7250000e+01 
6.0000000e+00 0.0000000e+00 1.7500000e+01 
6.0000000e+00 0.0000000e+00 1.7750000e+01 
6.0000000e+00 0.0000000e+00 1.8000000e+01 
5.0000000e-01 0.0000000e+00 3.0000000e+00 
1.0000000e+00 0.0000000e+00 3.0000000e+00 
1.5000000e+00 0.0000000e+00 3.0000000e+00 
2.0000000e+00 0.0000000e+00 3.0000000e+00 
2.5000000e+00 0.0000000e+00 3.0000000e+00 
3.0000000e+00 0.0000000e+00 3.0000000e+00 
3.5000000e+00 0.0000000e+00 3.0000000e+00 
4.0000000e+00 0.0000000e+00 3.0000000e+00 
4.5000000e+00 0.0000000e+00 3.0000000e+00 
5.0000000e+00 0.0000000e+00 3.0000000e+00 
5.5000000e+00 0.0000000e+00 3.0000000e+00 
5.0000000e-01 0.0000000e+00 6.0000000e+00 
1.0000000e+00 0.0000000e+00 6.0000000e+00 
1.5000000e+00 0.0000000e+00 6.0000000e+00 
2.0000000e+00 0.0000000e+00 6.0000000e+00 
2.5000000e+00 0.0000000e+00 6.0000000e+00 
3.0000000e+00 0.0000000e+00 6.0000000e+00 
3.5000000e+00 0.0000000e+00 6.0000000e+00 
4.0000000e+00 0.0000000e+00 6.0000000e+00 
4.5000000e+00 0.0000000e+00 6.0000000e+00 
5.0000000e+00 0.0000000e+00 6.0000000e+00 
5.5000000e+00 0.0000000e+00 6.0000000e+00 
5.0000000e-01 0.0000000e+00 9.0000000e+00 
1.0000000e+00 0.0000000e+00 9.0000000e+00 
1.5000000e+00 0.0000000e+00 9.0000000e+00 
2.0000000e+00 0.0000000e+00 9.0000000e+00 
2.5000000e+00 0.0000000e+00 9.0000000e+00 
3.0000000e+00 0.0000000e+00 9.0000000e+00 
3.5000000e+00 0.0000000e+00 9.0000000e+00 
4.0000000e+00 0.0000000e+00 9.0000000e+00 
4.5000000e+00 0.0000000e+00 9.0000000e+00 
5.0000000e+00 0.0000000e+00 9.0000000e+00 
5.5000000e+00 0.0000000e+00 9.0000000e+00 
5.0000000e-01 0.0000000e+00 1.2000000e+01 
1.0000000e+00 0.0000000e+00 1.2000000e+01 
1.5000000e+00 0.0000000e+00 1.2000000e+01 
2.0000000e+00 0.0000000e+00 1.2000000e+01 
2.5000000e+00 0.0000000e+00 1.2000000e+01 
3.0000000e+00 0.0000000e+00 1.2000000e+01 
3.5000000e+00 0.0000000e+00 1.2000000e+01 
4.0000000e+00 0.0000000e+00 1.2000000e+01 
4.5000000e+00 0.0000000e+00 1.2000000e+01 
5.0000000e+00 0.0000000e+00 1.2000000e+01 
5.5000000e+00 0.0000000e+00 1.2000000e+01 
5.0000000e-01 0.0000000e+00 1.5000000e+01 
1.0000000e+00 0.0000000e+00 1.5000000e+01 
1.5000000e+00 0.0000000e+00 1.5000000e+01 
2.0000000e+00 0.0000000e+00 1.5000000e+01 
2.5000000e+00 0.0000000e+00 1.5000000e+01 
3.0000000e+00 0.0000000e+00 1.5000000e+01 
3.5000000e+00 0.0000000e+00 1.5000000e+01 
4.0000000e+00 0.0000000e+00 1.5000000e+01 
4.5000000e+00 0.0000000e+00 1.5000000e+01 
5.0000000e+00 0.0000000e+00 1.5000000e+01 
5.5000000e+00 0.0000000e+00 1.5000000e+01 
5.0000000e-01 0.0000000e+00 1.8000000e+01 
1.0000000e+00 0.0000000e+00 1.8000000e+01 
1.5000000e+00 0.0000000e+00 1.8000000e+01 
2.0000000e+00 0.0000000e+00 1.8000000e+01 
2.5000000e+00 0.0000000e+00 1.8000000e+01 
3.0000000e+00 0.0000000e+00 1.8000000e+01 
3.5000000e+00 0.0000000e+00 1.8000000e+01 
4.0000000e+00 0.0000000e+00 1.8000000e+01 
4.5000000e+00 0.0000000e+00 1.8000000e+01 
5.0000000e+00 0.0000000e+00 1.8000000e+01 
5.5000000e+00 0.0000000e+00 1.8000000e+01 

CELLS 216 648
2 0 1
2 1 2
2 2 3
2 3 4
2 4 5
2 5 6
2 6 7
2 7 8
2 8 9
2 9 10
2 10 11
2 11 12
2 12 13
2 13 14
2 14 15
2 15 16
2 16 17
2 17 18
2 18 19
2 19 20
2 20 21
2 21 22
2 22 23
2 23 24
2 24 25
2 25 26
2 26 27
2 27 28
2 28 29
2 29 30
2 30 31
2 31 32
2 32 33
2 33 34
2 34 35
2 35 36
2 36 37
2 37 38
2 38 39
2 39 40
2 40 41
2 41 42
2 42 43
2 43 44
2 44 45
2 45 46
2 46 47
2 47 48
2 48 49
2 49 50
2 50 51
2 51 52
2 52 53
2 53 54
2 54 55
2 55 56
2 56 57
2 57 58
2 58 59
2 59 60
2 60 61
2 61 62
2 62 63
2 63 64
2 64 65
2 65 66
2 66 67
2 67 68
2 68 69
2 69 70
2 70 71
2 71 72
2 73 74
2 74 75
2 75 76
2 76 77
2 77 78
2 78 79
2 79 80
2 80 81
2 81 82
2 82 83
2 83 84
2 84 85
2 85 86
2 86 87
2 87 88
2 88 89
2 89 90
2 90 91
2 91 92
2 92 93
2 93 94
2 94 95
2 95 96
2 96 97
2 97 98
2 98 99
2 99 100
2 100 101
2 101 102
2 102 103
2 103 104
2 104 105
2 105 106
2 106 107
2 107 108
2 108 109
2 109 110
2 110 111
2 111 112
2 112 113
2 113 114
2 114 115
2 115 116
2 116 117
2 117 118
2 118 119
2 119 120
2 120 121
2 121 122
2 122 123
2 123 124
2 124 125
2 125 126
2 126 127
2 127 128
2 128 129
2 129 130
2 130 131
2 131 132
2 132 133
2 133 134
2 134 135
2 135 136
2 136 137
2 137 138
2 138 139
2 139 140
2 140 141
2 141 142
2 142 143
2 143 144
2 144 145
2 12 146
2 146 147
2 147 148
2 148 149
2 149 150
2 150 151
2 151 152
2 152 153
2 153 154
2 154 155
2 155 156
2 156 85
2 24 157
2 157 158
2 158 159
2 159 160
2 160 161
2 161 162
2 162 163
2 163 164
2 164 165
2 165 166
2 166 167
2 167 97
2 36 168
2 168 169
2 169 170
2 170 171
2 171 172
2 172 173
2 173 174
2 174 175
2 175 176
2 176 177
2 177 178
2 178 109
2 48 179
2 179 180
2 180 181
2 181 182
2 182 183
2 183 184
2 184 185
2 185 186
2 186 187
2 187 188
2 188 189
2 189 121
2 60 190
2 190 191
2 191 192
2 192 193
2 193 194
2 194 195
2 195 196
2 196 197
2 197 198
2 198 199
2 199 200
2 200 133
2 72 201
2 201 202
2 202 203
2 203 204
2 204 205
2 205 206
2 206 207
2 207 208
2 208 209
2 209 210
2 210 211
2 211 145

CELL_TYPES 216
3
3
3
3
3
3
3
3
3
3
3
3
3
3
3
3
3
3
3
3
3
3
3
3
3
3
3
3
3
3
3
3
3
3
3
3
3
3
3
3
3
3
3
3
3
3
3
3
3
3
3
3
3
3
3
3
3
3
3
3
3
3
3
3
3
3
3
3
3
3
3
3
3
3
3
3
3
3
3
3
3
3
3
3
3
3
3
3
3
3
3
3
3
3
3
3
3
3
3
3
3
3
3
3
3
3
3
3
3
3
3
3
3
3
3
3
3
3
3
3
3
3
3
3
3
3
3
3
3
3
3
3
3
3
3
3
3
3
3
3
3
3
3
3
3
3
3
3
3
3
3
3
3
3
3
3
3
3
3
3
3
3
3
3
3
3
3
3
3
3
3
3
3
3
3
3
3
3
3
3
3
3
3
3
3
3
3
3
3
3
3
3
3
3
3
3
3
3
3
3
3
3
3
3
3
3
3
3
3
3
3
3
3
3
3
3
POINT_DATA 212
FIELD FieldData 3
ADJOINT_DISPLACEMENT 3 212  float
0.0000000e+00 0.0000000e+00 0.0000000e+00 
8.2421452e-03 0.0000000e+00 -2.6805689e-20 
1.6138477e-02 0.0000000e+00 -5.3611378e-20 
2.3343187e-02 0.0000000e+00 -8.0417071e-20 
2.9510461e-02 0.0000000e+00 -1.0722276e-19 
3.4294486e-02 0.0000000e+00 -1.3402845e-19 
3.7349451e-02 0.0000000e+00 -1.6083414e-19 
3.8329545e-02 0.0000000e+00 -1.8763982e-19 
3.6888957e-02 0.0000000e+00 -2.1444551e-19 
3.2681871e-02 0.0000000e+00 -2.4125121e-19 
2.5362479e-02 0.0000000e+00 -2.6805690e-19 
1.4584967e-02 0.0000000e+00 -2.9486259e-19 
3.5242995e-06 0.0000000e+00 -3.2166828e-19 
-1.4241533e-02 0.0000000e+00 -2.7024986e-19 
-2.4132259e-02 0.0000000e+00 -2.1730859e-19 
-3.0198025e-02 0.0000000e+00 5.4568685e-20 
-3.2968197e-02 0.0000000e+00 1.5065371e-19 
-3.2972146e-02 0.0000000e+00 2.3965077e-19 
-3.0739240e-02 0.0000000e+00 3.1018479e-19 
-2.6798850e-02 0.0000000e+00 3.8600037e-19 
-2.1680344e-02 0.0000000e+00 4.6081022e-19 
-1.5913090e-02 0.0000000e+00 5.3578634e-19 
-1.0026461e-02 0.0000000e+00 6.0831328e-19 
-4.5498223e-03 0.0000000e+00 6.8054362e-19 
-1.2545458e-05 0.0000000e+00 7.5263706e-19 
3.3270337e-03 0.0000000e+00 7.6607420e-19 
5.6461841e-03 0.0000000e+00 7.7071235e-19 
7.0689465e-03 0.0000000e+00 7.5344599e-19 
7.7193598e-03 0.0000000e+00 7.5255026e-19 
7.7214655e-03 0.0000000e+00 7.5391790e-19 
7.1993028e-03 0.0000000e+00 7.5473102e-19 
6.2769121e-03 0.0000000e+00 7.5348084e-19 
5.0783330e-03 0.0000000e+00 7.5272965e-19 
3.7276063e-03 0.0000000e+00 7.5202903e-19 
2.3487716e-03 0.0000000e+00 7.5120201e-19 
1.0658692e-03 0.0000000e+00 7.5019522e-19 
2.9391542e-06 0.0000000e+00 7.4954113e-19 
-7.7947520e-04 0.0000000e+00 7.4741279e-19 
-1.3228845e-03 0.0000000e+00 7.4261375e-19 
-1.6563295e-03 0.0000000e+00 7.3840061e-19 
-1.8088511e-03 0.0000000e+00 7.3601466e-19 
-1.8094904e-03 0.0000000e+00 7.3461274e-19 
-1.6872878e-03 0.0000000e+00 7.3376850e-19 
-1.4712845e-03 0.0000000e+00 7.3294117e-19 
-1.1905214e-03 0.0000000e+00 7.3217675e-19 
-8.7403919e-04 0.0000000e+00 7.3147096e-19 
-5.5087882e-04 0.0000000e+00 7.3076423e-19 
-2.5008110e-04 0.0000000e+00 7.3008212e-19 
-6.8695942e-07 0.0000000e+00 7.2940699e-19 
1.8314313e-04 0.0000000e+00 7.2930964e-19 
3.1110141e-04 0.0000000e+00 7.2937860e-19 
3.8992614e-04 0.0000000e+00 7.2999537e-19 
4.2635560e-04 0.0000000e+00 7.3058758e-19 
4.2712808e-04 0.0000000e+00 7.3120688e-19 
3.9898182e-04 0.0000000e+00 7.3191520e-19 
3.4865513e-04 0.0000000e+00 7.3251181e-19 
2.8288626e-04 0.0000000e+00 7.3310345e-19 
2.0841348e-04 0.0000000e+00 7.3368558e-19 
1.3197506e-04 0.0000000e+00 7.3426538e-19 
6.0309274e-05 0.0000000e+00 7.3484777e-19 
1.5439890e-07 0.0000000e+00 7.3542912e-19 
-4.5264620e-05 0.0000000e+00 7.3560174e-19 
-7.8083904e-05 0.0000000e+00 7.3573719e-19 
-9.9606790e-05 0.0000000e+00 7.3590454e-19 
-1.1113661e-04 0.0000000e+00 7.3610513e-19 
-1.1397670e-04 0.0000000e+00 7.3630495e-19 
-1.0943040e-04 0.0000000e+00 7.3647023e-19 
-9.8801029e-05 0.0000000e+00 7.3663122e-19 
-8.3391940e-05 0.0000000e+00 7.3679360e-19 
-6.4506457e-05 0.0000000e+00 7.3695594e-19 
-4.3447923e-05 0.0000000e+00 7.3711905e-19 
-2.1519665e-05 0.0000000e+00 7.3728143e-19 
-2.5023978e-08 0.0000000e+00 7.3744367e-19 
0.0000000e+00 0.0000000e+00 0.0000000e+00 
-8.2421452e-03 0.0000000e+00 -8.5299020e-20 
-1.6138477e-02 0.0000000e+00 -1.7058387e-19 
-2.3343187e-02 0.0000000e+00 -2.5592045e-19 
-2.9510461e-02 0.0000000e+00 -3.4128976e-19 
-3.4294486e-02 0.0000000e+00 -4.2664379e-19 
-3.7349451e-02 0.0000000e+00 -5.1183863e-19 
-3.8329545e-02 0.0000000e+00 -5.9693530e-19 
-3.6888957e-02 0.0000000e+00 -6.8205358e-19 
-3.2681871e-02 0.0000000e+00 -7.6772964e-19 
-2.5362479e-02 0.0000000e+00 -8.5298291e-19 
-1.4584967e-02 0.0000000e+00 -9.3810708e-19 
-3.5242995e-06 0.0000000e+00 -1.0228952e-18 
1.4241533e-02 0.0000000e+00 -1.0541297e-18 
2.4132259e-02 0.0000000e+00 -1.0853375e-18 
3.0198025e-02 0.0000000e+00 -1.1164615e-18 
3.2968197e-02 0.0000000e+00 -1.1473512e-18 
3.2972146e-02 0.0000000e+00 -1.1785259e-18 
3.0739240e-02 0.0000000e+00 -1.2096488e-18 
2.6798850e-02 0.0000000e+00 -1.2407762e-18 
2.1680344e-02 0.0000000e+00 -1.2717107e-18 
1.5913090e-02 0.0000000e+00 -1.3026240e-18 
1.0026461e-02 0.0000000e+00 -1.3334693e-18 
4.5498223e-03 0.0000000e+00 -1.3643158e-18 
1.2545458e-05 0.0000000e+00 -1.3952011e-18 
-3.3270337e-03 0.0000000e+00 -1.4000394e-18 
-5.6461841e-03 0.0000000e+00 -1.4049938e-18 
-7.0689465e-03 0.0000000e+00 -1.4099775e-18 
-7.7193598e-03 0.0000000e+00 -1.4149626e-18 
-7.7214655e-03 0.0000000e+00 -1.4199666e-18 
-7.1993028e-03 0.0000000e+00 -1.4249846e-18 
-6.2769121e-03 0.0000000e+00 -1.4299946e-18 
-5.0783330e-03 0.0000000e+00 -1.4350215e-18 
-3.7276063e-03 0.0000000e+00 -1.4400515e-18 
-2.3487716e-03 0.0000000e+00 -1.4450812e-18 
-1.0658692e-03 0.0000000e+00 -1.4501110e-18 
-2.9391542e-06 0.0000000e+00 -1.4551408e-18 
7.7947520e-04 0.0000000e+00 -1.4567082e-18 
1.3228845e-03 0.0000000e+00 -1.4582959e-18 
1.6563295e-03 0.0000000e+00 -1.4598706e-18 
1.8088511e-03 0.0000000e+00 -1.4614337e-18 
1.8094904e-03 0.0000000e+00 -1.4629982e-18 
1.6872878e-03 0.0000000e+00 -1.4645652e-18 
1.4712845e-03 0.0000000e+00 -1.4661341e-18 
1.1905214e-03 0.0000000e+00 -1.4677024e-18 
8.7403919e-04 0.0000000e+00 -1.4692701e-18 
5.5087882e-04 0.0000000e+00 -1.4708385e-18 
2.5008110e-04 0.0000000e+00 -1.4724069e-18 
6.8695948e-07 0.0000000e+00 -1.4739754e-18 
-1.8314313e-04 0.0000000e+00 -1.4748347e-18 
-3.1110141e-04 0.0000000e+00 -1.4756923e-18 
-3.8992614e-04 0.0000000e+00 -1.4765547e-18 
-4.2635560e-04 0.0000000e+00 -1.4774172e-18 
-4.2712808e-04 0.0000000e+00 -1.4782761e-18 
-3.9898182e-04 0.0000000e+00 -1.4791345e-18 
-3.4865513e-04 0.0000000e+00 -1.4799925e-18 
-2.8288626e-04 0.0000000e+00 -1.4808511e-18 
-2.0841348e-04 0.0000000e+00 -1.4817097e-18 
-1.3197506e-04 0.0000000e+00 -1.4825682e-18 
-6.0309274e-05 0.0000000e+00 -1.4834266e-18 
-1.5439879e-07 0.0000000e+00 -1.4842851e-18 
4.5264620e-05 0.0000000e+00 -1.4843752e-18 
7.8083904e-05 0.0000000e+00 -1.4844671e-18 
9.9606790e-05 0.0000000e+00 -1.4845591e-18 
1.1113661e-04 0.0000000e+00 -1.4846500e-18 
1.1397670e-04 0.0000000e+00 -1.4847405e-18 
1.0943040e-04 0.0000000e+00 -1.4848311e-18 
9.8801029e-05 0.0000000e+00 -1.4849212e-18 
8.3391940e-05 0.0000000e+00 -1.4850114e-18 
6.4506457e-05 0.0000000e+00 -1.4851018e-18 
4.3447923e-05 0.0000000e+00 -1.4851920e-18 
2.1519667e-05 0.0000000e+00 -1.4852824e-18 
2.5024081e-08 0.0000000e+00 -1.4853728e-18 
2.9369164e-06 0.0000000e+00 5.1264245e-02 
2.3495331e-06 0.0000000e+00 1.3866226e-01 
1.7621499e-06 0.0000000e+00 2.6219407e-01 
1.1747666e-06 0.0000000e+00 4.2185962e-01 
5.8738328e-07 0.0000000e+00 6.1765897e-01 
2.0857207e-14 0.0000000e+00 8.4959209e-01 
-5.8738323e-07 0.0000000e+00 6.1765897e-01 
-1.1747665e-06 0.0000000e+00 4.2185962e-01 
-1.7621497e-06 0.0000000e+00 2.6219407e-01 
-2.3495329e-06 0.0000000e+00 1.3866226e-01 
-2.9369162e-06 0.0000000e+00 5.1264245e-02 
-1.0454549e-05 0.0000000e+00 -7.1337568e-03 
-8.3636387e-06 0.0000000e+00 -1.2970467e-02 
-6.2727290e-06 0.0000000e+00 -1.7510131e-02 
-4.1818193e-06 0.0000000e+00 -2.0752747e-02 
-2.0909097e-06 0.0000000e+00 -2.2698317e-02 
4.6444971e-14 0.0000000e+00 -2.3346839e-02 
2.0909097e-06 0.0000000e+00 -2.2698317e-02 
4.1818193e-06 0.0000000e+00 -2.0752747e-02 
6.2727290e-06 0.0000000e+00 -1.7510131e-02 
8.3636387e-06 0.0000000e+00 -1.2970467e-02 
1.0454549e-05 0.0000000e+00 -7.1337568e-03 
2.4492954e-06 0.0000000e+00 1.6712616e-03 
1.9594363e-06 0.0000000e+00 3.0386574e-03 
1.4695772e-06 0.0000000e+00 4.1021877e-03 
9.7971815e-07 0.0000000e+00 4.8618517e-03 
4.8985908e-07 0.0000000e+00 5.3176503e-03 
5.1019146e-14 0.0000000e+00 5.4695834e-03 
-4.8985902e-07 0.0000000e+00 5.3176503e-03 
-9.7971804e-07 0.0000000e+00 4.8618517e-03 
-1.4695771e-06 0.0000000e+00 4.1021877e-03 
-1.9594361e-06 0.0000000e+00 3.0386574e-03 
-2.4492952e-06 0.0000000e+00 1.6712616e-03 
-5.7246615e-07 0.0000000e+00 -3.9235549e-04 
-4.5797290e-07 0.0000000e+00 -7.1337359e-04 
-3.4347968e-07 0.0000000e+00 -9.6305436e-04 
-2.2898644e-07 0.0000000e+00 -1.1413977e-03 
-1.1449319e-07 0.0000000e+00 -1.2484038e-03 
5.0985939e-14 0.0000000e+00 -1.2840725e-03 
1.1449329e-07 0.0000000e+00 -1.2484038e-03 
2.2898654e-07 0.0000000e+00 -1.1413977e-03 
3.4347977e-07 0.0000000e+00 -9.6305436e-04 
4.5797302e-07 0.0000000e+00 -7.1337359e-04 
5.7246626e-07 0.0000000e+00 -3.9235549e-04 
1.2866576e-07 0.0000000e+00 9.5614436e-05 
1.0293262e-07 0.0000000e+00 1.7384444e-04 
7.7199473e-08 0.0000000e+00 2.3468999e-04 
5.1466333e-08 0.0000000e+00 2.7815110e-04 
2.5733193e-08 0.0000000e+00 3.0422775e-04 
5.1227909e-14 0.0000000e+00 3.1291999e-04 
-2.5733090e-08 0.0000000e+00 3.0422775e-04 
-5.1466230e-08 0.0000000e+00 2.7815110e-04 
-7.7199374e-08 0.0000000e+00 2.3468999e-04 
-1.0293252e-07 0.0000000e+00 1.7384444e-04 
-1.2866566e-07 0.0000000e+00 9.5614436e-05 
-2.0853307e-08 0.0000000e+00 -3.8212882e-05 
-1.6682636e-08 0.0000000e+00 -6.9477966e-05 
-1.2511963e-08 0.0000000e+00 -9.3795257e-05 
-8.3412921e-09 0.0000000e+00 -1.1116474e-04 
-4.1706203e-09 0.0000000e+00 -1.2158644e-04 
5.1335624e-14 0.0000000e+00 -1.2506034e-04 
4.1707229e-09 0.0000000e+00 -1.2158644e-04 
8.3413942e-09 0.0000000e+00 -1.1116474e-04 
1.2512066e-08 0.0000000e+00 -9.3795257e-05 
1.6682737e-08 0.0000000e+00 -6.9477966e-05 
2.0853410e-08 0.0000000e+00 -3.8212882e-05 
ADJOINT_ROTATION 3 212  float
0.0000000e+00 3.3199120e-02 0.0000000e+00 
0.0000000e+00 3.2507498e-02 0.0000000e+00 
0.0000000e+00 3.0432625e-02 0.0000000e+00 
0.0000000e+00 2.6974507e-02 0.0000000e+00 
0.0000000e+00 2.2133138e-02 0.0000000e+00 
0.0000000e+00 1.5908524e-02 0.0000000e+00 
0.0000000e+00 8.3006611e-03 0.0000000e+00 
0.0000000e+00 -6.9044909e-04 0.0000000e+00 
0.0000000e+00 -1.1064807e-02 0.0000000e+00 
0.0000000e+00 -2.2822414e-02 0.0000000e+00 
0.0000000e+00 -3.5963267e-02 0.0000000e+00 
0.0000000e+00 -5.0487369e-02 0.0000000e+00 
0.0000000e+00 -6.6394717e-02 0.0000000e+00 
0.0000000e+00 -4.7918655e-02 0.0000000e+00 
0.0000000e+00 -3.1560071e-02 0.0000000e+00 
0.0000000e+00 -1.7318960e-02 0.0000000e+00 
0.0000000e+00 -5.1953290e-03 0.0000000e+00 
0.0000000e+00 4.8108259e-03 0.0000000e+00 
0.0000000e+00 1.2699504e-02 0.0000000e+00 
0.0000000e+00 1.8470706e-02 0.0000000e+00 
0.0000000e+00 2.2124430e-02 0.0000000e+00 
0.0000000e+00 2.3660678e-02 0.0000000e+00 
0.0000000e+00 2.3079449e-02 0.0000000e+00 
0.0000000e+00 2.0380743e-02 0.0000000e+00 
0.0000000e+00 1.5564560e-02 0.0000000e+00 
0.0000000e+00 1.1234766e-02 0.0000000e+00 
0.0000000e+00 7.4011320e-03 0.0000000e+00 
0.0000000e+00 4.0636584e-03 0.0000000e+00 
0.0000000e+00 1.2223450e-03 0.0000000e+00 
0.0000000e+00 -1.1228080e-03 0.0000000e+00 
0.0000000e+00 -2.9718005e-03 0.0000000e+00 
0.0000000e+00 -4.3246327e-03 0.0000000e+00 
0.0000000e+00 -5.1813046e-03 0.0000000e+00 
0.0000000e+00 -5.5418164e-03 0.0000000e+00 
0.0000000e+00 -5.4061674e-03 0.0000000e+00 
0.0000000e+00 -4.7743581e-03 0.0000000e+00 
0.0000000e+00 -3.6463889e-03 0.0000000e+00 
0.0000000e+00 -2.6322866e-03 0.0000000e+00 
0.0000000e+00 -1.7343480e-03 0.0000000e+00 
0.0000000e+00 -9.5257279e-04 0.0000000e+00 
0.0000000e+00 -2.8696103e-04 0.0000000e+00 
0.0000000e+00 2.6248724e-04 0.0000000e+00 
0.0000000e+00 6.9577206e-04 0.0000000e+00 
0.0000000e+00 1.0128934e-03 0.0000000e+00 
0.0000000e+00 1.2138514e-03 0.0000000e+00 
0.0000000e+00 1.2986457e-03 0.0000000e+00 
0.0000000e+00 1.2672768e-03 0.0000000e+00 
0.0000000e+00 1.1197443e-03 0.0000000e+00 
0.0000000e+00 8.5604831e-04 0.0000000e+00 
0.0000000e+00 6.1908452e-04 0.0000000e+00 
0.0000000e+00 4.0907384e-04 0.0000000e+00 
0.0000000e+00 2.2601623e-04 0.0000000e+00 
0.0000000e+00 6.9911708e-05 0.0000000e+00 
0.0000000e+00 -5.9239723e-05 0.0000000e+00 
0.0000000e+00 -1.6143807e-04 0.0000000e+00 
0.0000000e+00 -2.3668334e-04 0.0000000e+00 
0.0000000e+00 -2.8497551e-04 0.0000000e+00 
0.0000000e+00 -3.0631459e-04 0.0000000e+00 
0.0000000e+00 -3.0070057e-04 0.0000000e+00 
0.0000000e+00 -2.6813350e-04 0.0000000e+00 
0.0000000e+00 -2.0861332e-04 0.0000000e+00 
0.0000000e+00 -1.5560772e-04 0.0000000e+00 
0.0000000e+00 -1.0781545e-04 0.0000000e+00 
0.0000000e+00 -6.5236520e-05 0.0000000e+00 
0.0000000e+00 -2.7870930e-05 0.0000000e+00 
0.0000000e+00 4.2813194e-06 0.0000000e+00 
0.0000000e+00 3.1220228e-05 0.0000000e+00 
0.0000000e+00 5.2945801e-05 0.0000000e+00 
0.0000000e+00 6.9458030e-05 0.0000000e+00 
0.0000000e+00 8.0756923e-05 0.0000000e+00 
0.0000000e+00 8.6842476e-05 0.0000000e+00 
0.0000000e+00 8.7714689e-05 0.0000000e+00 
0.0000000e+00 8.3373561e-05 0.0000000e+00 
0.0000000e+00 -3.3199120e-02 0.0000000e+00 
0.0000000e+00 -3.2507498e-02 0.0000000e+00 
0.0000000e+00 -3.0432625e-02 0.0000000e+00 
0.0000000e+00 -2.6974507e-02 0.0000000e+00 
0.0000000e+00 -2.2133138e-02 0.0000000e+00 
0.0000000e+00 -1.5908524e-02 0.0000000e+00 
0.0000000e+00 -8.3006611e-03 0.0000000e+00 
0.0000000e+00 6.9044909e-04 0.0000000e+00 
0.0000000e+00 1.1064807e-02 0.0000000e+00 
0.0000000e+00 2.2822414e-02 0.0000000e+00 
0.0000000e+00 3.5963267e-02 0.0000000e+00 
0.0000000e+00 5.0487369e-02 0.0000000e+00 
0.0000000e+00 6.6394717e-02 0.0000000e+00 
0.0000000e+00 4.7918655e-02 0.0000000e+00 
0.0000000e+00 3.1560071e-02 0.0000000e+00 
0.0000000e+00 1.7318960e-02 0.0000000e+00 
0.0000000e+00 5.1953290e-03 0.0000000e+00 
0.0000000e+00 -4.8108259e-03 0.0000000e+00 
0.0000000e+00 -1.2699504e-02 0.0000000e+00 
0.0000000e+00 -1.8470706e-02 0.0000000e+00 
0.0000000e+00 -2.2124430e-02 0.0000000e+00 
0.0000000e+00 -2.3660678e-02 0.0000000e+00 
0.0000000e+00 -2.3079449e-02 0.0000000e+00 
0.0000000e+00 -2.0380743e-02 0.0000000e+00 
0.0000000e+00 -1.5564560e-02 0.0000000e+00 
0.0000000e+00 -1.1234766e-02 0.0000000e+00 
0.0000000e+00 -7.4011320e-03 0.0000000e+00 
0.0000000e+00 -4.0636584e-03 0.0000000e+00 
0.0000000e+00 -1.2223450e-03 0.0000000e+00 
0.0000000e+00 1.1228080e-03 0.0000000e+00 
0.0000000e+00 2.9718005e-03 0.0000000e+00 
0.0000000e+00 4.3246327e-03 0.0000000e+00 
0.0000000e+00 5.1813046e-03 0.0000000e+00 
0.0000000e+00 5.5418164e-03 0.0000000e+00 
0.0000000e+00 5.4061674e-03 0.0000000e+00 
0.0000000e+00 4.7743581e-03 0.0000000e+00 
0.0000000e+00 3.6463889e-03 0.0000000e+00 
0.0000000e+00 2.6322866e-03 0.0000000e+00 
0.0000000e+00 1.7343480e-03 0.0000000e+00 
0.0000000e+00 9.5257279e-04 0.0000000e+00 
0.0000000e+00 2.8696103e-04 0.0000000e+00 
0.0000000e+00 -2.6248724e-04 0.0000000e+00 
0.0000000e+00 -6.9577206e-04 0.0000000e+00 
0.0000000e+00 -1.0128934e-03 0.0000000e+00 
0.0000000e+00 -1.2138514e-03 0.0000000e+00 
0.0000000e+00 -1.2986457e-03 0.0000000e+00 
0.0000000e+00 -1.2672768e-03 0.0000000e+00 
0.0000000e+00 -1.1197443e-03 0.0000000e+00 
0.0000000e+00 -8.5604831e-04 0.0000000e+00 
0.0000000e+00 -6.1908452e-04 0.0000000e+00 
0.0000000e+00 -4.0907384e-04 0.0000000e+00 
0.0000000e+00 -2.2601623e-04 0.0000000e+00 
0.0000000e+00 -6.9911708e-05 0.0000000e+00 
0.0000000e+00 5.9239723e-05 0.0000000e+00 
0.0000000e+00 1.6143807e-04 0.0000000e+00 
0.0000000e+00 2.3668334e-04 0.0000000e+00 
0.0000000e+00 2.8497551e-04 0.0000000e+00 
0.0000000e+00 3.0631459e-04 0.0000000e+00 
0.0000000e+00 3.0070057e-04 0.0000000e+00 
0.0000000e+00 2.6813350e-04 0.0000000e+00 
0.0000000e+00 2.0861332e-04 0.0000000e+00 
0.0000000e+00 1.5560772e-04 0.0000000e+00 
0.0000000e+00 1.0781545e-04 0.0000000e+00 
0.0000000e+00 6.5236520e-05 0.0000000e+00 
0.0000000e+00 2.7870930e-05 0.0000000e+00 
0.0000000e+00 -4.2813194e-06 0.0000000e+00 
0.0000000e+00 -3.1220228e-05 0.0000000e+00 
0.0000000e+00 -5.2945801e-05 0.0000000e+00 
0.0000000e+00 -6.9458030e-05 0.0000000e+00 
0.0000000e+00 -8.0756923e-05 0.0000000e+00 
0.0000000e+00 -8.6842476e-05 0.0000000e+00 
0.0000000e+00 -8.7714689e-05 0.0000000e+00 
0.0000000e+00 -8.3373561e-05 0.0000000e+00 
0.0000000e+00 -1.3866226e-01 0.0000000e+00 
0.0000000e+00 -2.1092981e-01 0.0000000e+00 
0.0000000e+00 -2.8319737e-01 0.0000000e+00 
0.0000000e+00 -3.5546491e-01 0.0000000e+00 
0.0000000e+00 -4.2773247e-01 0.0000000e+00 
0.0000000e+00 -5.0000000e-01 0.0000000e+00 
0.0000000e+00 4.2773247e-01 0.0000000e+00 
0.0000000e+00 3.5546491e-01 0.0000000e+00 
0.0000000e+00 2.8319737e-01 0.0000000e+00 
0.0000000e+00 2.1092981e-01 0.0000000e+00 
0.0000000e+00 1.3866226e-01 0.0000000e+00 
0.0000000e+00 1.2970467e-02 0.0000000e+00 
0.0000000e+00 1.0376373e-02 0.0000000e+00 
0.0000000e+00 7.7822800e-03 0.0000000e+00 
0.0000000e+00 5.1881867e-03 0.0000000e+00 
0.0000000e+00 2.5940933e-03 0.0000000e+00 
0.0000000e+00 -1.9281288e-15 0.0000000e+00 
0.0000000e+00 -2.5940933e-03 0.0000000e+00 
0.0000000e+00 -5.1881867e-03 0.0000000e+00 
0.0000000e+00 -7.7822800e-03 0.0000000e+00 
0.0000000e+00 -1.0376373e-02 0.0000000e+00 
0.0000000e+00 -1.2970467e-02 0.0000000e+00 
0.0000000e+00 -3.0386574e-03 0.0000000e+00 
0.0000000e+00 -2.4309258e-03 0.0000000e+00 
0.0000000e+00 -1.8231944e-03 0.0000000e+00 
0.0000000e+00 -1.2154629e-03 0.0000000e+00 
0.0000000e+00 -6.0773146e-04 0.0000000e+00 
0.0000000e+00 1.2126596e-17 0.0000000e+00 
0.0000000e+00 6.0773146e-04 0.0000000e+00 
0.0000000e+00 1.2154629e-03 0.0000000e+00 
0.0000000e+00 1.8231944e-03 0.0000000e+00 
0.0000000e+00 2.4309258e-03 0.0000000e+00 
0.0000000e+00 3.0386574e-03 0.0000000e+00 
0.0000000e+00 7.1337359e-04 0.0000000e+00 
0.0000000e+00 5.7069887e-04 0.0000000e+00 
0.0000000e+00 4.2802416e-04 0.0000000e+00 
0.0000000e+00 2.8534944e-04 0.0000000e+00 
0.0000000e+00 1.4267472e-04 0.0000000e+00 
0.0000000e+00 -1.4400333e-17 0.0000000e+00 
0.0000000e+00 -1.4267472e-04 0.0000000e+00 
0.0000000e+00 -2.8534944e-04 0.0000000e+00 
0.0000000e+00 -4.2802416e-04 0.0000000e+00 
0.0000000e+00 -5.7069887e-04 0.0000000e+00 
0.0000000e+00 -7.1337359e-04 0.0000000e+00 
0.0000000e+00 -1.7384444e-04 0.0000000e+00 
0.0000000e+00 -1.3907555e-04 0.0000000e+00 
0.0000000e+00 -1.0430666e-04 0.0000000e+00 
0.0000000e+00 -6.9537775e-05 0.0000000e+00 
0.0000000e+00 -3.4768887e-05 0.0000000e+00 
0.0000000e+00 -1.9326762e-17 0.0000000e+00 
0.0000000e+00 3.4768887e-05 0.0000000e+00 
0.0000000e+00 6.9537775e-05 0.0000000e+00 
0.0000000e+00 1.0430666e-04 0.0000000e+00 
0.0000000e+00 1.3907555e-04 0.0000000e+00 
0.0000000e+00 1.7384444e-04 0.0000000e+00 
0.0000000e+00 6.9477966e-05 0.0000000e+00 
0.0000000e+00 5.5582372e-05 0.0000000e+00 
0.0000000e+00 4.1686781e-05 0.0000000e+00 
0.0000000e+00 2.7791186e-05 0.0000000e+00 
0.0000000e+00 1.3895593e-05 0.0000000e+00 