# vtk DataFile Version 4.0
vtk output
ASCII
DATASET UNSTRUCTURED_GRID
POINTS 212 float
0.0000000e+00 0.0000000e+00 0.0000000e+00 
0.0000000e+00 0.0000000e+00 2.5000000e-01 
0.0000000e+00 0.0000000e+00 5.0000000e-01 
0.0000000e+00 0.0000000e+00 7.5000000e-01 
0.0000000e+00 0.0000000e+00 1.0000000e+00 
0.0000000e+00 0.0000000e+00 1.2500000e+00 
0.0000000e+00 0.0000000e+00 1.5000000e+00 
0.0000000e+00 0.0000000e+00 1.7500000e+00 
0.0000000e+00 0.0000000e+00 2.0000000e+00 
0.0000000e+00 0.0000000e+00 2.2500000e+00 
0.0000000e+00 0.0000000e+00 2.5000000e+00 
0.0000000e+00 0.0000000e+00 2.7500000e+00 
0.0000000e+00 0.0000000e+00 3.0000000e+00 
0.0000000e+00 0.0000000e+00 3.2500000e+00 
0.0000000e+00 0.0000000e+00 3.5000000e+00 
0.0000000e+00 0.0000000e+00 3.7500000e+00 
0.0000000e+00 0.0000000e+00 4.0000000e+00 
0.0000000e+00 0.0000000e+00 4.2500000e+00 
0.0000000e+00 0.0000000e+00 4.5000000e+00 
0.0000000e+00 0.0000000e+00 4.7500000e+00 
0.0000000e+00 0.0000000e+00 5.0000000e+00 
0.0000000e+00 0.0000000e+00 5.2500000e+00 
0.0000000e+00 0.0000000e+00 5.5000000e+00 
0.0000000e+00 0.0000000e+00 5.7500000e+00 
0.0000000e+00 0.0000000e+00 6.0000000e+00 
0.0000000e+00 0.0000000e+00 6.2500000e+00 
0.0000000e+00 0.0000000e+00 6.5000000e+00 
0.0000000e+00 0.0000000e+00 6.7500000e+00 
0.0000000e+00 0.0000000e+00 7.0000000e+00 
0.0000000e+00 0.0000000e+00 7.2500000e+00 
0.0000000e+00 0.0000000e+00 7.5000000e+00 
0.0000000e+00 0.0000000e+00 7.7500000e+00 
0.0000000e+00 0.0000000e+00 8.0000000e+00 
0.0000000e+00 0.0000000e+00 8.2500000e+00 
0.0000000e+00 0.0000000e+00 8.5000000e+00 
0.0000000e+00 0.0000000e+00 8.7500000e+00 
0.0000000e+00 0.0000000e+00 9.0000000e+00 
0.0000000e+00 0.0000000e+00 9.2500000e+00 
0.0000000e+00 0.0000000e+00 9.5000000e+00 
0.0000000e+00 0.0000000e+00 9.7500000e+00 
0.0000000e+00 0.0000000e+00 1.0000000e+01 
0.0000000e+00 0.0000000e+00 1.0250000e+01 
0.0000000e+00 0.0000000e+00 1.0500000e+01 
0.0000000e+00 0.0000000e+00 1.0750000e+01 
0.0000000e+00 0.0000000e+00 1.1000000e+01 
0.0000000e+00 0.0000000e+00 1.1250000e+01 
0.0000000e+00 0.0000000e+00 1.1500000e+01 
0.0000000e+00 0.0000000e+00 1.1750000e+01 
0.0000000e+00 0.0000000e+00 1.2000000e+01 
0.0000000e+00 0.0000000e+00 1.2250000e+01 
0.0000000e+00 0.0000000e+00 1.2500000e+01 
0.0000000e+00 0.0000000e+00 1.2750000e+01 
0.0000000e+00 0.0000000e+00 1.3000000e+01 
0.0000000e+00 0.0000000e+00 1.3250000e+01 
0.0000000e+00 0.0000000e+00 1.3500000e+01 
0.0000000e+00 0.0000000e+00 1.3750000e+01 
0.0000000e+00 0.0000000e+00 1.4000000e+01 
0.0000000e+00 0.0000000e+00 1.4250000e+01 
0.0000000e+00 0.0000000e+00 1.4500000e+01 
0.0000000e+00 0.0000000e+00 1.4750000e+01 
0.0000000e+00 0.0000000e+00 1.5000000e+01 
0.0000000e+00 0.0000000e+00 1.5250000e+01 
0.0000000e+00 0.0000000e+00 1.5500000e+01 
0.0000000e+00 0.0000000e+00 1.5750000e+01 
0.0000000e+00 0.0000000e+00 1.6000000e+01 
0.0000000e+00 0.0000000e+00 1.6250000e+01 
0.0000000e+00 0.0000000e+00 1.6500000e+01 
0.0000000e+00 0.0000000e+00 1.6750000e+01 
0.0000000e+00 0.0000000e+00 1.7000000e+01 
0.0000000e+00 0.0000000e+00 1.7250000e+01 
0.0000000e+00 0.0000000e+00 1.7500000e+01 
0.0000000e+00 0.0000000e+00 1.7750000e+01 
0.0000000e+00 0.0000000e+00 1.8000000e+01 
6.0000000e+00 0.0000000e+00 0.0000000e+00 
6.0000000e+00 0.0000000e+00 2.5000000e-01 
6.0000000e+00 0.0000000e+00 5.0000000e-01 
6.0000000e+00 0.0000000e+00 7.5000000e-01 
6.0000000e+00 0.0000000e+00 1.0000000e+00 
6.0000000e+00 0.0000000e+00 1.2500000e+00 
6.0000000e+00 0.0000000e+00 1.5000000e+00 
6.0000000e+00 0.0000000e+00 1.7500000e+00 
6.0000000e+00 0.0000000e+00 2.0000000e+00 
6.0000000e+00 0.0000000e+00 2.2500000e+00 
6.0000000e+00 0.0000000e+00 2.5000000e+00 
6.0000000e+00 0.0000000e+00 2.7500000e+00 
6.0000000e+00 0.0000000e+00 3.0000000e+00 
6.0000000e+00 0.0000000e+00 3.2500000e+00 
6.0000000e+00 0.0000000e+00 3.5000000e+00 
6.0000000e+00 0.0000000e+00 3.7500000e+00 
6.0000000e+00 0.0000000e+00 4.0000000e+00 
6.0000000e+00 0.0000000e+00 4.2500000e+00 
6.0000000e+00 0.0000000e+00 4.5000000e+00 
6.0000000e+00 0.0000000e+00 4.7500000e+00 
6.0000000e+00 0.0000000e+00 5.0000000e+00 
6.0000000e+00 0.0000000e+00 5.2500000e+00 
6.0000000e+00 0.0000000e+00 5.5000000e+00 
6.0000000e+00 0.0000000e+00 5.7500000e+00 
6.0000000e+00 0.0000000e+00 6.0000000e+00 
6.0000000e+00 0.0000000e+00 6.2500000e+00 
6.0000000e+00 0.0000000e+00 6.5000000e+00 
6.0000000e+00 0.0000000e+00 6.7500000e+00 
6.0000000e+00 0.0000000e+00 7.0000000e+00 
6.0000000e+00 0.0000000e+00 7.2500000e+00 
6.0000000e+00 0.0000000e+00 7.5000000e+00 
6.0000000e+00 0.0000000e+00 7.7500000e+00 
6.0000000e+00 0.0000000e+00 8.0000000e+00 
6.0000000e+00 0.0000000e+00 8.2500000e+00 
6.0000000e+00 0.0000000e+00 8.5000000e+00 
6.0000000e+00 0.0000000e+00 8.7500000e+00 
6.0000000e+00 0.0000000e+00 9.0000000e+00 
6.0000000e+00 0.0000000e+00 9.2500000e+00 
6.0000000e+00 0.0000000e+00 9.5000000e+00 
6.0000000e+00 0.0000000e+00 9.7500000e+00 
6.0000000e+00 0.0000000e+00 1.0000000e+01 
6.0000000e+00 0.0000000e+00 1.0250000e+01 
6.0000000e+00 0.0000000e+00 1.0500000e+01 
6.0000000e+00 0.0000000e+00 1.0750000e+01 
6.0000000e+00 0.0000000e+00 1.1000000e+01 
6.0000000e+00 0.0000000e+00 1.1250000e+01 
6.0000000e+00 0.0000000e+00 1.1500000e+01 
6.0000000e+00 0.0000000e+00 1.1750000e+01 
6.0000000e+00 0.0000000e+00 1.2000000e+01 
6.0000000e+00 0.0000000e+00 1.2250000e+01 
6.0000000e+00 0.0000000e+00 1.2500000e+01 
6.0000000e+00 0.0000000e+00 1.2750000e+01 
6.0000000e+00 0.0000000e+00 1.3000000e+01 
6.0000000e+00 0.0000000e+00 1.3250000e+01 
6.0000000e+00 0.0000000e+00 1.3500000e+01 
6.0000000e+00 0.0000000e+00 1.3750000e+01 
6.0000000e+00 0.0000000e+00 1.4000000e+01 
6.0000000e+00 0.0000000e+00 1.4250000e+01 
6.0000000e+00 0.0000000e+00 1.4500000e+01 
6.0000000e+00 0.0000000e+00 1.4750000e+01 
6.0000000e+00 0.0000000e+00 1.5000000e+01 
6.0000000e+00 0.0000000e+00 1.5250000e+01 
6.0000000e+00 0.0000000e+00 1.5500000e+01 
6.0000000e+00 0.0000000e+00 1.5750000e+01 
6.0000000e+00 0.0000000e+00 1.6000000e+01 
6.0000000e+00 0.0000000e+00 1.6250000e+01 
6.0000000e+00 0.0000000e+00 1.6500000e+01 
6.0000000e+00 0.0000000e+00 1.6750000e+01 
6.0000000e+00 0.0000000e+00 1.7000000e+01 
6.0000000e+00 0.0000000e+00 1.7250000e+01 
6.0000000e+00 0.0000000e+00 1.7500000e+01 
6.0000000e+00 0.0000000e+00 1.7750000e+01 
6.0000000e+00 0.0000000e+00 1.8000000e+01 
5.0000000e-01 0.0000000e+00 3.0000000e+00 
1.0000000e+00 0.0000000e+00 3.0000000e+00 
1.5000000e+00 0.0000000e+00 3.0000000e+00 
2.0000000e+00 0.0000000e+00 3.0000000e+00 
2.5000000e+00 0.0000000e+00 3.0000000e+00 
3.0000000e+00 0.0000000e+00 3.0000000e+00 
3.5000000e+00 0.0000000e+00 3.0000000e+00 
4.0000000e+00 0.0000000e+00 3.0000000e+00 
4.5000000e+00 0.0000000e+00 3.0000000e+00 
5.0000000e+00 0.0000000e+00 3.0000000e+00 
5.5000000e+00 0.0000000e+00 3.0000000e+00 
5.0000000e-01 0.0000000e+00 6.0000000e+00 
1.0000000e+00 0.0000000e+00 6.0000000e+00 
1.5000000e+00 0.0000000e+00 6.0000000e+00 
2.0000000e+00 0.0000000e+00 6.0000000e+00 
2.5000000e+00 0.0000000e+00 6.0000000e+00 
3.0000000e+00 0.0000000e+00 6.0000000e+00 
3.5000000e+00 0.0000000e+00 6.0000000e+00 
4.0000000e+00 0.0000000e+00 6.0000000e+00 
4.5000000e+00 0.0000000e+00 6.0000000e+00 
5.0000000e+00 0.0000000e+00 6.0000000e+00 
5.5000000e+00 0.0000000e+00 6.0000000e+00 
5.0000000e-01 0.0000000e+00 9.0000000e+00 
1.0000000e+00 0.0000000e+00 9.0000000e+00 
1.5000000e+00 0.0000000e+00 9.0000000e+00 
2.0000000e+00 0.0000000e+00 9.0000000e+00 
2.5000000e+00 0.0000000e+00 9.0000000e+00 
3.0000000e+00 0.0000000e+00 9.0000000e+00 
3.5000000e+00 0.0000000e+00 9.0000000e+00 
4.0000000e+00 0.0000000e+00 9.0000000e+00 
4.5000000e+00 0.0000000e+00 9.0000000e+00 
5.0000000e+00 0.0000000e+00 9.0000000e+00 
5.5000000e+00 0.0000000e+00 9.0000000e+00 
5.0000000e-01 0.0000000e+00 1.2000000e+01 
1.0000000e+00 0.0000000e+00 1.2000000e+01 
1.5000000e+00 0.0000000e+00 1.2000000e+01 
2.0000000e+00 0.0000000e+00 1.2000000e+01 
2.5000000e+00 0.0000000e+00 1.2000000e+01 
3.0000000e+00 0.0000000e+00 1.2000000e+01 
3.5000000e+00 0.0000000e+00 1.2000000e+01 
4.0000000e+00 0.0000000e+00 1.2000000e+01 
4.5000000e+00 0.0000000e+00 1.2000000e+01 
5.0000000e+00 0.0000000e+00 1.2000000e+01 
5.5000000e+00 0.0000000e+00 1.2000000e+01 
5.0000000e-01 0.0000000e+00 1.5000000e+01 
1.0000000e+00 0.0000000e+00 1.5000000e+01 
1.5000000e+00 0.0000000e+00 1.5000000e+01 
2.0000000e+00 0.0000000e+00 1.5000000e+01 
2.5000000e+00 0.0000000e+00 1.5000000e+01 
3.0000000e+00 0.0000000e+00 1.5000000e+01 
3.5000000e+00 0.0000000e+00 1.5000000e+01 
4.0000000e+00 0.0000000e+00 1.5000000e+01 
4.5000000e+00 0.0000000e+00 1.5000000e+01 
5.0000000e+00 0.0000000e+00 1.5000000e+01 
5.5000000e+00 0.0000000e+00 1.5000000e+01 
5.0000000e-01 0.0000000e+00 1.8000000e+01 
1.0000000e+00 0.0000000e+00 1.8000000e+01 
1.5000000e+00 0.0000000e+00 1.8000000e+01 
2.0000000e+00 0.0000000e+00 1.8000000e+01 
2.5000000e+00 0.0000000e+00 1.8000000e+01 
3.0000000e+00 0.0000000e+00 1.8000000e+01 
3.5000000e+00 0.0000000e+00 1.8000000e+01 
4.0000000e+00 0.0000000e+00 1.8000000e+01 
4.5000000e+00 0.0000000e+00 1.8000000e+01 
5.0000000e+00 0.0000000e+00 1.8000000e+01 
5.5000000e+00 0.0000000e+00 1.8000000e+01 

CELLS 216 648
2 0 1
2 1 2
2 2 3
2 3 4
2 4 5
2 5 6
2 6 7
2 7 8
2 8 9
2 9 10
2 10 11
2 11 12
2 12 13
2 13 14
2 14 15
2 15 16
2 16 17
2 17 18
2 18 19
2 19 20
2 20 21
2 21 22
2 22 23
2 23 24
2 24 25
2 25 26
2 26 27
2 27 28
2 28 29
2 29 30
2 30 31
2 31 32
2 32 33
2 33 34
2 34 35
2 35 36
2 36 37
2 37 38
2 38 39
2 39 40
2 40 41
2 41 42
2 42 43
2 43 44
2 44 45
2 45 46
2 46 47
2 47 48
2 48 49
2 49 50
2 50 51
2 51 52
2 52 53
2 53 54
2 54 55
2 55 56
2 56 57
2 57 58
2 58 59
2 59 60
2 60 61
2 61 62
2 62 63
2 63 64
2 64 65
2 65 66
2 66 67
2 67 68
2 68 69
2 69 70
2 70 71
2 71 72
2 73 74
2 74 75
2 75 76
2 76 77
2 77 78
2 78 79
2 79 80
2 80 81
2 81 82
2 82 83
2 83 84
2 84 85
2 85 86
2 86 87
2 87 88
2 88 89
2 89 90
2 90 91
2 91 92
2 92 93
2 93 94
2 94 95
2 95 96
2 96 97
2 97 98
2 98 99
2 99 100
2 100 101
2 101 102
2 102 103
2 103 104
2 104 105
2 105 106
2 106 107
2 107 108
2 108 109
2 109 110
2 110 111
2 111 112
2 112 113
2 113 114
2 114 115
2 115 116
2 116 117
2 117 118
2 118 119
2 119 120
2 120 121
2 121 122
2 122 123
2 123 124
2 124 125
2 125 126
2 126 127
2 127 128
2 128 129
2 129 130
2 130 131
2 131 132
2 132 133
2 133 134
2 134 135
2 135 136
2 136 137
2 137 138
2 138 139
2 139 140
2 140 141
2 141 142
2 142 143
2 143 144
2 144 145
2 12 146
2 146 147
2 147 148
2 148 149
2 149 150
2 150 151
2 151 152
2 152 153
2 153 154
2 154 155
2 155 156
2 156 85
2 24 157
2 157 158
2 158 159
2 159 160
2 160 161
2 161 162
2 162 163
2 163 164
2 164 165
2 165 166
2 166 167
2 167 97
2 36 168
2 168 169
2 169 170
2 170 171
2 171 172
2 172 173
2 173 174
2 174 175
2 175 176
2 176 177
2 177 178
2 178 109
2 48 179
2 179 180
2 180 181
2 181 182
2 182 183
2 183 184
2 184 185
2 185 186
2 186 187
2 187 188
2 188 189
2 189 121
2 60 190
2 190 191
2 191 192
2 192 193
2 193 194
2 194 195
2 195 196
2 196 197
2 197 198
2 198 199
2 199 200
2 200 133
2 72 201
2 201 202
2 202 203
2 203 204
2 204 205
2 205 206
2 206 207
2 207 208
2 208 209
2 209 210
2 210 211
2 211 145

CELL_TYPES 216
3
3
3
3
3
3
3
3
3
3
3
3
3
3
3
3
3
3
3
3
3
3
3
3
3
3
3
3
3
3
3
3
3
3
3
3
3
3
3
3
3
3
3
3
3
3
3
3
3
3
3
3
3
3
3
3
3
3
3
3
3
3
3
3
3
3
3
3
3
3
3
3
3
3
3
3
3
3
3
3
3
3
3
3
3
3
3
3
3
3
3
3
3
3
3
3
3
3
3
3
3
3
3
3
3
3
3
3
3
3
3
3
3
3
3
3
3
3
3
3
3
3
3
3
3
3
3
3
3
3
3
3
3
3
3
3
3
3
3
3
3
3
3
3
3
3
3
3
3
3
3
3
3
3
3
3
3
3
3
3
3
3
3
3
3
3
3
3
3
3
3
3
3
3
3
3
3
3
3
3
3
3
3
3
3
3
3
3
3
3
3
3
3
3
3
3
3
3
3
3
3
3
3
3
3
3
3
3
3
3
3
3
3
3
3
3
POINT_DATA 212
FIELD FieldData 3
ADJOINT_DISPLACEMENT 3 212  float
0.0000000e+00 0.0000000e+00 0.0000000e+00 
-3.4015444e-05 0.0000000e+00 -3.0086086e-16 
-6.7596753e-05 0.0000000e+00 -6.0172172e-16 
-1.0030979e-04 0.0000000e+00 -9.0258253e-16 
-1.3172042e-04 0.0000000e+00 -1.2034434e-15 
-1.6139449e-04 0.0000000e+00 -1.5043043e-15 
-1.8889790e-04 0.0000000e+00 -1.8051651e-15 
-2.1379649e-04 0.0000000e+00 -2.1060261e-15 
-2.3565613e-04 0.0000000e+00 -2.4068869e-15 
-2.5404268e-04 0.0000000e+00 -2.7077477e-15 
-2.6852201e-04 0.0000000e+00 -3.0086085e-15 
-2.7865995e-04 0.0000000e+00 -3.3094695e-15 
-2.8402245e-04 0.0000000e+00 -3.6103301e-15 
-2.8677270e-04 0.0000000e+00 7.8910939e-10 
-2.9110099e-04 0.0000000e+00 1.5782224e-09 
-2.9961354e-04 0.0000000e+00 2.3673354e-09 
-3.1491663e-04 0.0000000e+00 3.1564484e-09 
-3.3961647e-04 0.0000000e+00 3.9455612e-09 
-3.7631931e-04 0.0000000e+00 4.7346744e-09 
-4.2763143e-04 0.0000000e+00 5.5237876e-09 
-4.9615907e-04 0.0000000e+00 6.3129004e-09 
-5.8450847e-04 0.0000000e+00 7.1020136e-09 
-6.9528591e-04 0.0000000e+00 7.8911269e-09 
-8.3109760e-04 0.0000000e+00 8.6802396e-09 
-9.9454983e-04 0.0000000e+00 9.4693524e-09 
-1.2012444e-03 0.0000000e+00 1.3414945e-08 
-1.4575109e-03 0.0000000e+00 1.7360538e-08 
-1.7520468e-03 0.0000000e+00 2.1306130e-08 
-2.0735494e-03 0.0000000e+00 2.5251722e-08 
-2.4107166e-03 0.0000000e+00 2.9197315e-08 
-2.7522456e-03 0.0000000e+00 3.3142907e-08 
-3.0868342e-03 0.0000000e+00 3.7088498e-08 
-3.4031796e-03 0.0000000e+00 4.1034092e-08 
-3.6899797e-03 0.0000000e+00 4.4979682e-08 
-3.9359317e-03 0.0000000e+00 4.8925276e-08 
-4.1297330e-03 0.0000000e+00 5.2870867e-08 
-4.2600818e-03 0.0000000e+00 5.6816461e-08 
-4.3670428e-03 0.0000000e+00 7.5755437e-08 
-4.5304126e-03 0.0000000e+00 9.4694421e-08 
-4.7984817e-03 0.0000000e+00 1.1363340e-07 
-5.2195424e-03 0.0000000e+00 1.3257238e-07 
-5.8418866e-03 0.0000000e+00 1.5151136e-07 
-6.7138053e-03 0.0000000e+00 1.7045035e-07 
-7.8835906e-03 0.0000000e+00 1.8938933e-07 
-9.3995342e-03 0.0000000e+00 2.0832830e-07 
-1.1309927e-02 0.0000000e+00 2.2726728e-07 
-1.3663063e-02 0.0000000e+00 2.4620627e-07 
-1.6507231e-02 0.0000000e+00 2.6514525e-07 
-1.9890724e-02 0.0000000e+00 2.8408422e-07 
-2.4151837e-02 0.0000000e+00 3.7483417e-07 
-2.9459229e-02 0.0000000e+00 4.6558412e-07 
-3.5606731e-02 0.0000000e+00 5.5633404e-07 
-4.2388175e-02 0.0000000e+00 6.4708399e-07 
-4.9597394e-02 0.0000000e+00 7.3783394e-07 
-5.7028223e-02 0.0000000e+00 8.2858389e-07 
-6.4474493e-02 0.0000000e+00 9.1933384e-07 
-7.1730040e-02 0.0000000e+00 1.0100838e-06 
-7.8588687e-02 0.0000000e+00 1.1008337e-06 
-8.4844284e-02 0.0000000e+00 1.1915837e-06 
-9.0290643e-02 0.0000000e+00 1.2823336e-06 
-9.4721615e-02 0.0000000e+00 1.3730836e-06 
-9.9132806e-02 0.0000000e+00 1.8078973e-06 
-1.0524385e-01 0.0000000e+00 2.2427112e-06 
-1.1393464e-01 0.0000000e+00 2.6775249e-06 
-1.2608506e-01 0.0000000e+00 3.1123386e-06 
-1.4257497e-01 0.0000000e+00 3.5471523e-06 
-1.6428426e-01 0.0000000e+00 3.9819661e-06 
-1.9209282e-01 0.0000000e+00 4.4167800e-06 
-2.2688052e-01 0.0000000e+00 4.8515935e-06 
-2.6952726e-01 0.0000000e+00 5.2864075e-06 
-3.2091290e-01 0.0000000e+00 5.7212210e-06 
-3.8191730e-01 0.0000000e+00 6.1560349e-06 
-4.5342040e-01 0.0000000e+00 6.5908484e-06 
0.0000000e+00 0.0000000e+00 0.0000000e+00 
-1.3331360e-05 0.0000000e+00 2.9734959e-16 
-2.7096856e-05 0.0000000e+00 5.9469924e-16 
-4.1730622e-05 0.0000000e+00 8.9204883e-16 
-5.7666795e-05 0.0000000e+00 1.1893985e-15 
-7.5339514e-05 0.0000000e+00 1.4867481e-15 
-9.5182913e-05 0.0000000e+00 1.7840977e-15 
-1.1763113e-04 0.0000000e+00 2.0814475e-15 
-1.4311829e-04 0.0000000e+00 2.3787972e-15 
-1.7207855e-04 0.0000000e+00 2.6761468e-15 
-2.0494602e-04 0.0000000e+00 2.9734965e-15 
-2.4215486e-04 0.0000000e+00 3.2708461e-15 
-2.8413918e-04 0.0000000e+00 3.5681957e-15 
-3.3465406e-04 0.0000000e+00 -7.8910944e-10 
-3.9542763e-04 0.0000000e+00 -1.5782224e-09 
-4.6385362e-04 0.0000000e+00 -2.3673354e-09 
-5.3732580e-04 0.0000000e+00 -3.1564484e-09 
-6.1323791e-04 0.0000000e+00 -3.9455617e-09 
-6.8898365e-04 0.0000000e+00 -4.7346744e-09 
-7.6195691e-04 0.0000000e+00 -5.5237876e-09 
-8.2955131e-04 0.0000000e+00 -6.3129004e-09 
-8.8916061e-04 0.0000000e+00 -7.1020136e-09 
-9.3817862e-04 0.0000000e+00 -7.8911269e-09 
-9.7399909e-04 0.0000000e+00 -8.6802396e-09 
-9.9401572e-04 0.0000000e+00 -9.4693524e-09 
-1.0063002e-03 0.0000000e+00 -1.3414945e-08 
-1.0281968e-03 0.0000000e+00 -1.7360538e-08 
-1.0710078e-03 0.0000000e+00 -2.1306130e-08 
-1.1460359e-03 0.0000000e+00 -2.5251722e-08 
-1.2645834e-03 0.0000000e+00 -2.9197315e-08 
-1.4379529e-03 0.0000000e+00 -3.3142907e-08 
-1.6774469e-03 0.0000000e+00 -3.7088498e-08 
-1.9943677e-03 0.0000000e+00 -4.1034092e-08 
-2.4000180e-03 0.0000000e+00 -4.4979682e-08 
-2.9057001e-03 0.0000000e+00 -4.8925276e-08 
-3.5227167e-03 0.0000000e+00 -5.2870867e-08 
-4.2623701e-03 0.0000000e+00 -5.6816461e-08 
-5.1970449e-03 0.0000000e+00 -7.5755437e-08 
-6.3593960e-03 0.0000000e+00 -9.4694421e-08 
-7.7011324e-03 0.0000000e+00 -1.1363340e-07 
-9.1739623e-03 0.0000000e+00 -1.3257238e-07 
-1.0729593e-02 0.0000000e+00 -1.5151136e-07 
-1.2319734e-02 0.0000000e+00 -1.7045035e-07 
-1.3896093e-02 0.0000000e+00 -1.8938933e-07 
-1.5410379e-02 0.0000000e+00 -2.0832830e-07 
-1.6814299e-02 0.0000000e+00 -2.2726728e-07 
-1.8059563e-02 0.0000000e+00 -2.4620627e-07 
-1.9097878e-02 0.0000000e+00 -2.6514525e-07 
-1.9880952e-02 0.0000000e+00 -2.8408422e-07 
-2.0609073e-02 0.0000000e+00 -3.7483417e-07 
-2.1652168e-02 0.0000000e+00 -4.6558412e-07 
-2.3216398e-02 0.0000000e+00 -5.5633404e-07 
-2.5507936e-02 0.0000000e+00 -6.4708399e-07 
-2.8732948e-02 0.0000000e+00 -7.3783394e-07 
-3.3097599e-02 0.0000000e+00 -8.2858389e-07 
-3.8808059e-02 0.0000000e+00 -9.1933384e-07 
-4.6070494e-02 0.0000000e+00 -1.0100838e-06 
-5.5091072e-02 0.0000000e+00 -1.1008337e-06 
-6.6075958e-02 0.0000000e+00 -1.1915837e-06 
-7.9231314e-02 0.0000000e+00 -1.2823336e-06 
-9.4763324e-02 0.0000000e+00 -1.3730836e-06 
-1.1425684e-01 0.0000000e+00 -1.8078973e-06 
-1.3857269e-01 0.0000000e+00 -2.2427112e-06 
-1.6683103e-01 0.0000000e+00 -2.6775249e-06 
-1.9815193e-01 0.0000000e+00 -3.1123386e-06 
-2.3165555e-01 0.0000000e+00 -3.5471523e-06 
-2.6646200e-01 0.0000000e+00 -3.9819661e-06 
-3.0169138e-01 0.0000000e+00 -4.4167800e-06 
-3.3646381e-01 0.0000000e+00 -4.8515935e-06 
-3.6989945e-01 0.0000000e+00 -5.2864075e-06 
-4.0111837e-01 0.0000000e+00 -5.7212210e-06 
-4.2924070e-01 0.0000000e+00 -6.1560349e-06 
-4.5338660e-01 0.0000000e+00 -6.5908484e-06 
-2.8403217e-04 0.0000000e+00 -2.0451880e-06 
-2.8404189e-04 0.0000000e+00 -1.6870412e-05 
-2.8405161e-04 0.0000000e+00 -4.0530107e-05 
-2.8406136e-04 0.0000000e+00 -6.9078706e-05 
-2.8407108e-04 0.0000000e+00 -9.8570636e-05 
-2.8408080e-04 0.0000000e+00 -1.2506034e-04 
-2.8409055e-04 0.0000000e+00 -1.4460225e-04 
-2.8410027e-04 0.0000000e+00 -1.5325079e-04 
-2.8410999e-04 0.0000000e+00 -1.4706040e-04 
-2.8411971e-04 0.0000000e+00 -1.2208552e-04 
-2.8412946e-04 0.0000000e+00 -7.4380572e-05 
-9.9450524e-04 0.0000000e+00 2.9766717e-04 
-9.9446077e-04 0.0000000e+00 4.8859697e-04 
-9.9441630e-04 0.0000000e+00 5.8858137e-04 
-9.9437172e-04 0.0000000e+00 6.1340269e-04 
-9.9432725e-04 0.0000000e+00 5.7884335e-04 
-9.9428277e-04 0.0000000e+00 5.0068571e-04 
-9.9423819e-04 0.0000000e+00 3.9471220e-04 
-9.9419372e-04 0.0000000e+00 2.7670525e-04 
-9.9414925e-04 0.0000000e+00 1.6244719e-04 
-9.9410478e-04 0.0000000e+00 6.7720459e-05 
-9.9406019e-04 0.0000000e+00 8.3074410e-06 
-4.2602723e-03 0.0000000e+00 3.6516667e-05 
-4.2604632e-03 0.0000000e+00 -1.8354406e-04 
-4.2606536e-03 0.0000000e+00 -5.8515847e-04 
-4.2608446e-03 0.0000000e+00 -1.0933595e-03 
-4.2610350e-03 0.0000000e+00 -1.6331804e-03 
-4.2612259e-03 0.0000000e+00 -2.1296542e-03 
-4.2614164e-03 0.0000000e+00 -2.5078137e-03 
-4.2616073e-03 0.0000000e+00 -2.6926922e-03 
-4.2617978e-03 0.0000000e+00 -2.6093228e-03 
-4.2619887e-03 0.0000000e+00 -2.1827382e-03 
-4.2621791e-03 0.0000000e+00 -1.3379720e-03 
-1.9889910e-02 0.0000000e+00 6.0689766e-03 
-1.9889096e-02 0.0000000e+00 9.8374123e-03 
-1.9888282e-02 0.0000000e+00 1.1664646e-02 
-1.9887466e-02 0.0000000e+00 1.1909734e-02 
-1.9886652e-02 0.0000000e+00 1.0931728e-02 
-1.9885838e-02 0.0000000e+00 9.0896860e-03 
-1.9885024e-02 0.0000000e+00 6.7426604e-03 
-1.9884210e-02 0.0000000e+00 4.2497078e-03 
-1.9883396e-02 0.0000000e+00 1.9698823e-03 
-1.9882582e-02 0.0000000e+00 2.6223849e-04 
-1.9881766e-02 0.0000000e+00 -5.1416853e-04 
-9.4725095e-02 0.0000000e+00 3.9141127e-03 
-9.4728567e-02 0.0000000e+00 1.3810069e-03 
-9.4732046e-02 0.0000000e+00 -5.8776257e-03 
-9.4735518e-02 0.0000000e+00 -1.6141467e-02 
-9.4738998e-02 0.0000000e+00 -2.7690195e-02 
-9.4742469e-02 0.0000000e+00 -3.8803492e-02 
-9.4745941e-02 0.0000000e+00 -4.7761042e-02 
-9.4749421e-02 0.0000000e+00 -5.2842520e-02 
-9.4752893e-02 0.0000000e+00 -5.2327614e-02 
-9.4756372e-02 0.0000000e+00 -4.4496000e-02 
-9.4759844e-02 0.0000000e+00 -2.7627358e-02 
-4.5341757e-01 0.0000000e+00 1.7649277e-01 
-4.5341477e-01 0.0000000e+00 3.9631906e-01 
-4.5341194e-01 0.0000000e+00 6.5731138e-01 
-4.5340914e-01 0.0000000e+00 4.5729572e-01 
-4.5340630e-01 0.0000000e+00 2.9409796e-01 
-4.5340350e-01 0.0000000e+00 1.6554405e-01 
-4.5340067e-01 0.0000000e+00 6.9459900e-02 
-4.5339787e-01 0.0000000e+00 3.6714652e-03 
-4.5339504e-01 0.0000000e+00 -3.3995334e-02 
-4.5339224e-01 0.0000000e+00 -4.5714565e-02 
-4.5338941e-01 0.0000000e+00 -3.3660293e-02 
ADJOINT_ROTATION 3 212  float
0.0000000e+00 -1.3635120e-04 0.0000000e+00 
0.0000000e+00 -1.3548293e-04 0.0000000e+00 
0.0000000e+00 -1.3287811e-04 0.0000000e+00 
0.0000000e+00 -1.2853675e-04 0.0000000e+00 
0.0000000e+00 -1.2245885e-04 0.0000000e+00 
0.0000000e+00 -1.1464440e-04 0.0000000e+00 
0.0000000e+00 -1.0509341e-04 0.0000000e+00 
0.0000000e+00 -9.3805873e-05 0.0000000e+00 
0.0000000e+00 -8.0781792e-05 0.0000000e+00 
0.0000000e+00 -6.6021174e-05 0.0000000e+00 
0.0000000e+00 -4.9524002e-05 0.0000000e+00 
0.0000000e+00 -3.1290292e-05 0.0000000e+00 
0.0000000e+00 -1.1320038e-05 0.0000000e+00 
0.0000000e+00 -1.2419612e-05 0.0000000e+00 
0.0000000e+00 -2.3944187e-05 0.0000000e+00 
0.0000000e+00 -4.5893757e-05 0.0000000e+00 
0.0000000e+00 -7.8268327e-05 0.0000000e+00 
0.0000000e+00 -1.2106790e-04 0.0000000e+00 
0.0000000e+00 -1.7429247e-04 0.0000000e+00 
0.0000000e+00 -2.3794203e-04 0.0000000e+00 
0.0000000e+00 -3.1201661e-04 0.0000000e+00 
0.0000000e+00 -3.9651614e-04 0.0000000e+00 
0.0000000e+00 -4.9144070e-04 0.0000000e+00 
0.0000000e+00 -5.9679028e-04 0.0000000e+00 
0.0000000e+00 -7.1256486e-04 0.0000000e+00 
0.0000000e+00 -9.3345717e-04 0.0000000e+00 
0.0000000e+00 -1.1091396e-03 0.0000000e+00 
0.0000000e+00 -1.2396121e-03 0.0000000e+00 
0.0000000e+00 -1.3248747e-03 0.0000000e+00 
0.0000000e+00 -1.3649274e-03 0.0000000e+00 
0.0000000e+00 -1.3597701e-03 0.0000000e+00 
0.0000000e+00 -1.3094030e-03 0.0000000e+00 
0.0000000e+00 -1.2138259e-03 0.0000000e+00 
0.0000000e+00 -1.0730388e-03 0.0000000e+00 
0.0000000e+00 -8.8704191e-04 0.0000000e+00 
0.0000000e+00 -6.5583503e-04 0.0000000e+00 
0.0000000e+00 -3.7941826e-04 0.0000000e+00 
0.0000000e+00 -5.0846738e-04 0.0000000e+00 
0.0000000e+00 -8.3068328e-04 0.0000000e+00 
0.0000000e+00 -1.3460659e-03 0.0000000e+00 
0.0000000e+00 -2.0546152e-03 0.0000000e+00 
0.0000000e+00 -2.9563312e-03 0.0000000e+00 
0.0000000e+00 -4.0512136e-03 0.0000000e+00 
0.0000000e+00 -5.3392635e-03 0.0000000e+00 
0.0000000e+00 -6.8204794e-03 0.0000000e+00 
0.0000000e+00 -8.4948624e-03 0.0000000e+00 
0.0000000e+00 -1.0362412e-02 0.0000000e+00 
0.0000000e+00 -1.2423128e-02 0.0000000e+00 
0.0000000e+00 -1.4677011e-02 0.0000000e+00 
0.0000000e+00 -1.9274455e-02 0.0000000e+00 
0.0000000e+00 -2.3047229e-02 0.0000000e+00 
0.0000000e+00 -2.5995336e-02 0.0000000e+00 
0.0000000e+00 -2.8118772e-02 0.0000000e+00 
0.0000000e+00 -2.9417543e-02 0.0000000e+00 
0.0000000e+00 -2.9891642e-02 0.0000000e+00 
0.0000000e+00 -2.9541075e-02 0.0000000e+00 
0.0000000e+00 -2.8365837e-02 0.0000000e+00 
0.0000000e+00 -2.6365932e-02 0.0000000e+00 
0.0000000e+00 -2.3541359e-02 0.0000000e+00 
0.0000000e+00 -1.9892115e-02 0.0000000e+00 
0.0000000e+00 -1.5418204e-02 0.0000000e+00 
0.0000000e+00 -2.0457886e-02 0.0000000e+00 
0.0000000e+00 -2.9017089e-02 0.0000000e+00 
0.0000000e+00 -4.1095812e-02 0.0000000e+00 
0.0000000e+00 -5.6694061e-02 0.0000000e+00 
0.0000000e+00 -7.5811833e-02 0.0000000e+00 
0.0000000e+00 -9.8449126e-02 0.0000000e+00 
0.0000000e+00 -1.2460594e-01 0.0000000e+00 
0.0000000e+00 -1.5428227e-01 0.0000000e+00 
0.0000000e+00 -1.8747814e-01 0.0000000e+00 
0.0000000e+00 -2.2419351e-01 0.0000000e+00 
0.0000000e+00 -2.6442844e-01 0.0000000e+00 
0.0000000e+00 -3.0818284e-01 0.0000000e+00 
0.0000000e+00 -5.3036016e-05 0.0000000e+00 
0.0000000e+00 -5.3904285e-05 0.0000000e+00 
0.0000000e+00 -5.6509103e-05 0.0000000e+00 
0.0000000e+00 -6.0850460e-05 0.0000000e+00 
0.0000000e+00 -6.6928362e-05 0.0000000e+00 
0.0000000e+00 -7.4742813e-05 0.0000000e+00 
0.0000000e+00 -8.4293803e-05 0.0000000e+00 
0.0000000e+00 -9.5581330e-05 0.0000000e+00 
0.0000000e+00 -1.0860541e-04 0.0000000e+00 
0.0000000e+00 -1.2336603e-04 0.0000000e+00 
0.0000000e+00 -1.3986320e-04 0.0000000e+00 
0.0000000e+00 -1.5809691e-04 0.0000000e+00 
0.0000000e+00 -1.7806716e-04 0.0000000e+00 
0.0000000e+00 -2.2431438e-04 0.0000000e+00 
0.0000000e+00 -2.6013658e-04 0.0000000e+00 
0.0000000e+00 -2.8553381e-04 0.0000000e+00 
0.0000000e+00 -3.0050604e-04 0.0000000e+00 
0.0000000e+00 -3.0505328e-04 0.0000000e+00 
0.0000000e+00 -2.9917550e-04 0.0000000e+00 
0.0000000e+00 -2.8287273e-04 0.0000000e+00 
0.0000000e+00 -2.5614497e-04 0.0000000e+00 
0.0000000e+00 -2.1899218e-04 0.0000000e+00 
0.0000000e+00 -1.7141442e-04 0.0000000e+00 
0.0000000e+00 -1.1341165e-04 0.0000000e+00 
0.0000000e+00 -4.4983888e-05 0.0000000e+00 
0.0000000e+00 -6.0827089e-05 0.0000000e+00 
0.0000000e+00 -1.2188021e-04 0.0000000e+00 
0.0000000e+00 -2.2814325e-04 0.0000000e+00 
0.0000000e+00 -3.7961622e-04 0.0000000e+00 
0.0000000e+00 -5.7629909e-04 0.0000000e+00 
0.0000000e+00 -8.1819191e-04 0.0000000e+00 
0.0000000e+00 -1.1052947e-03 0.0000000e+00 
0.0000000e+00 -1.4376072e-03 0.0000000e+00 
0.0000000e+00 -1.8151299e-03 0.0000000e+00 
0.0000000e+00 -2.2378622e-03 0.0000000e+00 
0.0000000e+00 -2.7058048e-03 0.0000000e+00 
0.0000000e+00 -3.2189570e-03 0.0000000e+00 
0.0000000e+00 -4.2262468e-03 0.0000000e+00 
0.0000000e+00 -5.0403699e-03 0.0000000e+00 
0.0000000e+00 -5.6613260e-03 0.0000000e+00 
0.0000000e+00 -6.0891155e-03 0.0000000e+00 
0.0000000e+00 -6.3237385e-03 0.0000000e+00 
0.0000000e+00 -6.3651945e-03 0.0000000e+00 
0.0000000e+00 -6.2134839e-03 0.0000000e+00 
0.0000000e+00 -5.8686067e-03 0.0000000e+00 
0.0000000e+00 -5.3305626e-03 0.0000000e+00 
0.0000000e+00 -4.5993519e-03 0.0000000e+00 
0.0000000e+00 -3.6749744e-03 0.0000000e+00 
0.0000000e+00 -2.5574304e-03 0.0000000e+00 
0.0000000e+00 -3.4049833e-03 0.0000000e+00 
0.0000000e+00 -5.0772051e-03 0.0000000e+00 
0.0000000e+00 -7.5740954e-03 0.0000000e+00 
0.0000000e+00 -1.0895655e-02 0.0000000e+00 
0.0000000e+00 -1.5041882e-02 0.0000000e+00 
0.0000000e+00 -2.0012777e-02 0.0000000e+00 
0.0000000e+00 -2.5808342e-02 0.0000000e+00 
0.0000000e+00 -3.2428578e-02 0.0000000e+00 
0.0000000e+00 -3.9873477e-02 0.0000000e+00 
0.0000000e+00 -4.8143048e-02 0.0000000e+00 
0.0000000e+00 -5.7237286e-02 0.0000000e+00 
0.0000000e+00 -6.7156196e-02 0.0000000e+00 
0.0000000e+00 -8.8205338e-02 0.0000000e+00 
0.0000000e+00 -1.0573496e-01 0.0000000e+00 
0.0000000e+00 -1.1974506e-01 0.0000000e+00 
0.0000000e+00 -1.3023564e-01 0.0000000e+00 
0.0000000e+00 -1.3720669e-01 0.0000000e+00 
0.0000000e+00 -1.4065823e-01 0.0000000e+00 
0.0000000e+00 -1.4059024e-01 0.0000000e+00 
0.0000000e+00 -1.3700272e-01 0.0000000e+00 
0.0000000e+00 -1.2989569e-01 0.0000000e+00 
0.0000000e+00 -1.1926913e-01 0.0000000e+00 
0.0000000e+00 -1.0512306e-01 0.0000000e+00 
0.0000000e+00 -8.7457456e-02 0.0000000e+00 
0.0000000e+00 1.8185601e-05 0.0000000e+00 
0.0000000e+00 3.9800107e-05 0.0000000e+00 
0.0000000e+00 5.3523479e-05 0.0000000e+00 
0.0000000e+00 5.9355720e-05 0.0000000e+00 
0.0000000e+00 5.7296824e-05 0.0000000e+00 
0.0000000e+00 4.7346799e-05 0.0000000e+00 
0.0000000e+00 2.9505638e-05 0.0000000e+00 
0.0000000e+00 3.7733460e-06 0.0000000e+00 
0.0000000e+00 -2.9850080e-05 0.0000000e+00 
0.0000000e+00 -7.1364637e-05 0.0000000e+00 
0.0000000e+00 -1.2077033e-04 0.0000000e+00 
0.0000000e+00 -4.8332673e-04 0.0000000e+00 
0.0000000e+00 -2.8565340e-04 0.0000000e+00 
0.0000000e+00 -1.1954489e-04 0.0000000e+00 
0.0000000e+00 1.4998838e-05 0.0000000e+00 
0.0000000e+00 1.1797778e-04 0.0000000e+00 
0.0000000e+00 1.8939191e-04 0.0000000e+00 
0.0000000e+00 2.2924127e-04 0.0000000e+00 
0.0000000e+00 2.3752582e-04 0.0000000e+00 
0.0000000e+00 2.1424558e-04 0.0000000e+00 
0.0000000e+00 1.5940056e-04 0.0000000e+00 
0.0000000e+00 7.2990726e-05 0.0000000e+00 
0.0000000e+00 2.0858987e-04 0.0000000e+00 
0.0000000e+00 6.4666412e-04 0.0000000e+00 
0.0000000e+00 9.3480444e-04 0.0000000e+00 
0.0000000e+00 1.0730110e-03 0.0000000e+00 
0.0000000e+00 1.0612835e-03 0.0000000e+00 
0.0000000e+00 8.9962222e-04 0.0000000e+00 
0.0000000e+00 5.8802706e-04 0.0000000e+00 
0.0000000e+00 1.2649801e-04 0.0000000e+00 
0.0000000e+00 -4.8496493e-04 0.0000000e+00 
0.0000000e+00 -1.2463618e-03 0.0000000e+00 
0.0000000e+00 -2.1576926e-03 0.0000000e+00 
0.0000000e+00 -9.7174430e-03 0.0000000e+00 
0.0000000e+00 -5.4759849e-03 0.0000000e+00 
0.0000000e+00 -1.9526361e-03 0.0000000e+00 
0.0000000e+00 8.5260306e-04 0.0000000e+00 
0.0000000e+00 2.9397325e-03 0.0000000e+00 
0.0000000e+00 4.3087522e-03 0.0000000e+00 
0.0000000e+00 4.9596624e-03 0.0000000e+00 
0.0000000e+00 4.8924633e-03 0.0000000e+00 
0.0000000e+00 4.1071544e-03 0.0000000e+00 
0.0000000e+00 2.6037358e-03 0.0000000e+00 
0.0000000e+00 3.8220751e-04 0.0000000e+00 
0.0000000e+00 -8.0619415e-04 0.0000000e+00 
0.0000000e+00 1.0365178e-02 0.0000000e+00 
0.0000000e+00 1.8095912e-02 0.0000000e+00 
0.0000000e+00 2.2386009e-02 0.0000000e+00 
0.0000000e+00 2.3235466e-02 0.0000000e+00 
0.0000000e+00 2.0644287e-02 0.0000000e+00 
0.0000000e+00 1.4612468e-02 0.0000000e+00 
0.0000000e+00 5.1400117e-03 0.0000000e+00 
0.0000000e+00 -7.7730827e-03 0.0000000e+00 
0.0000000e+00 -2.4126815e-02 0.0000000e+00 
0.0000000e+00 -4.3921188e-02 0.0000000e+00 
0.0000000e+00 -3.9703715e-01 0.0000000e+00 