# vtk DataFile Version 4.0
vtk output
ASCII
DATASET UNSTRUCTURED_GRID
POINTS 30 float
0.0000000e+00 0.0000000e+00 0.0000000e+00 
0.0000000e+00 0.0000000e+00 8.0000001e-01 
0.0000000e+00 0.0000000e+00 1.6000000e+00 
0.0000000e+00 0.0000000e+00 2.4000001e+00 
0.0000000e+00 0.0000000e+00 3.2000000e+00 
0.0000000e+00 0.0000000e+00 4.0000000e+00 
0.0000000e+00 0.0000000e+00 4.8000002e+00 
0.0000000e+00 0.0000000e+00 5.5999999e+00 
0.0000000e+00 0.0000000e+00 6.4000001e+00 
0.0000000e+00 0.0000000e+00 7.1999998e+00 
0.0000000e+00 0.0000000e+00 8.0000000e+00 
1.0000000e+01 0.0000000e+00 0.0000000e+00 
1.0000000e+01 0.0000000e+00 8.0000001e-01 
1.0000000e+01 0.0000000e+00 1.6000000e+00 
1.0000000e+01 0.0000000e+00 2.4000001e+00 
1.0000000e+01 0.0000000e+00 3.2000000e+00 
1.0000000e+01 0.0000000e+00 4.0000000e+00 
1.0000000e+01 0.0000000e+00 4.8000002e+00 
1.0000000e+01 0.0000000e+00 5.5999999e+00 
1.0000000e+01 0.0000000e+00 6.4000001e+00 
1.0000000e+01 0.0000000e+00 7.1999998e+00 
1.0000000e+01 0.0000000e+00 8.0000000e+00 
2.0000000e+00 0.0000000e+00 4.0000000e+00 
4.0000000e+00 0.0000000e+00 4.0000000e+00 
6.0000000e+00 0.0000000e+00 4.0000000e+00 
8.0000000e+00 0.0000000e+00 4.0000000e+00 
2.0000000e+00 0.0000000e+00 8.0000000e+00 
4.0000000e+00 0.0000000e+00 8.0000000e+00 
6.0000000e+00 0.0000000e+00 8.0000000e+00 
8.0000000e+00 0.0000000e+00 8.0000000e+00 

CELLS 30 90
2 0 1
2 1 2
2 2 3
2 3 4
2 4 5
2 5 6
2 6 7
2 7 8
2 8 9
2 9 10
2 11 12
2 12 13
2 13 14
2 14 15
2 15 16
2 16 17
2 17 18
2 18 19
2 19 20
2 20 21
2 5 22
2 22 23
2 23 24
2 24 25
2 25 16
2 10 26
2 26 27
2 27 28
2 28 29
2 29 21

CELL_TYPES 30
3
3
3
3
3
3
3
3
3
3
3
3
3
3
3
3
3
3
3
3
3
3
3
3
3
3
3
3
3
3
POINT_DATA 30
FIELD FieldData 7
DISPLACEMENT 3 30  float
0.0000000e+00 0.0000000e+00 0.0000000e+00 
-2.4738952e-03 0.0000000e+00 -1.7908384e-06 
-4.6641435e-03 0.0000000e+00 -6.5177433e-06 
-6.3758744e-03 0.0000000e+00 -1.1244649e-05 
-7.4364096e-03 0.0000000e+00 -1.5971553e-05 
-7.6837447e-03 0.0000000e+00 -2.2418135e-05 
-7.2440142e-03 0.0000000e+00 -2.2494960e-05 
-6.5001836e-03 0.0000000e+00 -2.2571787e-05 
-5.6901877e-03 0.0000000e+00 -2.0680811e-05 
-4.9796388e-03 0.0000000e+00 -1.5052687e-05 
-4.5947707e-03 0.0000000e+00 -9.9372328e-06 
0.0000000e+00 0.0000000e+00 0.0000000e+00 
-2.0512235e-03 0.0000000e+00 -5.2213509e-06 
-3.9892970e-03 0.0000000e+00 -7.9579249e-06 
-5.6722579e-03 0.0000000e+00 -1.0694500e-05 
-6.9564874e-03 0.0000000e+00 -1.2622225e-05 
-7.7451109e-03 0.0000000e+00 -1.4371973e-05 
-7.9878913e-03 0.0000000e+00 -1.2155496e-05 
-7.6830732e-03 0.0000000e+00 -9.9390190e-06 
-6.9210003e-03 0.0000000e+00 -7.8001067e-06 
-5.8587440e-03 0.0000000e+00 -5.4485267e-06 
-4.5750272e-03 0.0000000e+00 -3.0969463e-06 
-7.7031925e-03 0.0000000e+00 -1.2078952e-03 
-7.7197277e-03 0.0000000e+00 -2.2648959e-03 
-7.7312635e-03 0.0000000e+00 -2.3568464e-03 
-7.7427998e-03 0.0000000e+00 -1.4833274e-03 
-4.5845280e-03 0.0000000e+00 1.2067455e-03 
-4.5791999e-03 0.0000000e+00 3.8322948e-03 
-4.5740409e-03 0.0000000e+00 5.0003896e-03 
-4.5765387e-03 0.0000000e+00 3.4160879e-03 
ROTATION 3 30  float
0.0000000e+00 -3.1560855e-03 0.0000000e+00 
0.0000000e+00 -2.9649355e-03 0.0000000e+00 
0.0000000e+00 -2.4747117e-03 0.0000000e+00 
0.0000000e+00 -1.7686407e-03 0.0000000e+00 
0.0000000e+00 -8.4672245e-04 0.0000000e+00 
0.0000000e+00 2.5101664e-04 0.0000000e+00 
0.0000000e+00 7.9401809e-04 0.0000000e+00 
0.0000000e+00 1.0112657e-03 0.0000000e+00 
0.0000000e+00 9.8776864e-04 0.0000000e+00 
0.0000000e+00 7.3970290e-04 0.0000000e+00 
0.0000000e+00 1.6123199e-04 0.0000000e+00 
0.0000000e+00 -2.5861016e-03 0.0000000e+00 
0.0000000e+00 -2.5198851e-03 0.0000000e+00 
0.0000000e+00 -2.2942226e-03 0.0000000e+00 
0.0000000e+00 -1.8821025e-03 0.0000000e+00 
0.0000000e+00 -1.3043305e-03 0.0000000e+00 
0.0000000e+00 -6.7377568e-04 0.0000000e+00 
0.0000000e+00 5.2799605e-05 0.0000000e+00 
0.0000000e+00 6.9521897e-04 0.0000000e+00 
0.0000000e+00 1.1671657e-03 0.0000000e+00 
0.0000000e+00 1.4773542e-03 0.0000000e+00 
0.0000000e+00 1.7208159e-03 0.0000000e+00 
0.0000000e+00 7.0148485e-04 0.0000000e+00 
0.0000000e+00 3.0676080e-04 0.0000000e+00 
0.0000000e+00 -2.0510127e-04 0.0000000e+00 
0.0000000e+00 -6.5870868e-04 0.0000000e+00 
0.0000000e+00 -1.1947688e-03 0.0000000e+00 
0.0000000e+00 -1.1455051e-03 0.0000000e+00 
0.0000000e+00 8.6323220e-05 0.0000000e+00 
0.0000000e+00 1.4245226e-03 0.0000000e+00 
REACTION 3 30  float
1.8816338e+04 -0.0000000e+00 4.7009507e+03 
-1.3278623e-10 -0.0000000e+00 -0.0000000e+00 
-6.9849193e-10 -0.0000000e+00 -3.6379788e-12 
8.7311491e-10 -0.0000000e+00 7.2759576e-12 
3.5270205e-09 -0.0000000e+00 7.2759576e-12 
1.5461410e-09 -0.0000000e+00 6.3664629e-11 
-9.8953024e-10 -0.0000000e+00 2.6921043e-10 
8.2218321e-10 -0.0000000e+00 -5.0022209e-11 
-2.9231160e-09 -0.0000000e+00 2.1827873e-11 
1.2369128e-10 -0.0000000e+00 -1.0913936e-11 
6.0390448e-10 -0.0000000e+00 -7.2759576e-12 
6.5182080e+03 -0.0000000e+00 1.3706046e+04 
-7.8944140e-10 -0.0000000e+00 -9.0949470e-13 
-6.9849193e-10 -0.0000000e+00 -7.4578566e-11 
9.3041308e-10 -0.0000000e+00 -1.6370905e-11 
6.7666406e-10 -0.0000000e+00 -1.8189894e-12 
2.0536390e-09 -0.0000000e+00 1.0604708e-09 
5.4933480e-10 -0.0000000e+00 -3.6379788e-12 
4.5656634e-10 -0.0000000e+00 5.4569682e-12 
-1.9590516e-09 -0.0000000e+00 1.9663275e-09 
1.1641532e-10 -0.0000000e+00 -0.0000000e+00 
-2.3283064e-10 -0.0000000e+00 4.5838533e-10 
2.7648639e-10 -0.0000000e+00 -5.8025762e-10 
-2.2137101e-09 -0.0000000e+00 1.5097612e-10 
-0.0000000e+00 -0.0000000e+00 -1.3187673e-09 
-9.8953024e-10 -0.0000000e+00 -2.6375346e-11 
-4.7657522e-10 -0.0000000e+00 4.9112714e-11 
-6.9121597e-11 -0.0000000e+00 -1.0913936e-11 
9.9316821e-10 -0.0000000e+00 -1.4151738e-09 
-1.9645086e-10 -0.0000000e+00 3.6379788e-12 
REACTION_MOMENT 3 30  float
-0.0000000e+00 -3.2014214e-10 -0.0000000e+00 
-0.0000000e+00 -2.6193447e-10 -0.0000000e+00 
-0.0000000e+00 -1.5716068e-09 -0.0000000e+00 
-0.0000000e+00 -7.2759576e-11 -0.0000000e+00 
-0.0000000e+00 -2.2555469e-09 -0.0000000e+00 
-0.0000000e+00 1.7571438e-09 -0.0000000e+00 
-0.0000000e+00 -2.6193447e-10 -0.0000000e+00 
-0.0000000e+00 1.3096724e-10 -0.0000000e+00 
-0.0000000e+00 1.8917490e-10 -0.0000000e+00 
-0.0000000e+00 -2.2009772e-10 -0.0000000e+00 
-0.0000000e+00 1.4188117e-10 -0.0000000e+00 
-0.0000000e+00 2.9103830e-11 -0.0000000e+00 
-0.0000000e+00 -1.1641532e-10 -0.0000000e+00 
-0.0000000e+00 -1.4551915e-10 -0.0000000e+00 
-0.0000000e+00 -1.7462298e-10 -0.0000000e+00 
-0.0000000e+00 -4.5110937e-10 -0.0000000e+00 
-0.0000000e+00 4.0745363e-10 -0.0000000e+00 
-0.0000000e+00 -3.5652192e-10 -0.0000000e+00 
-0.0000000e+00 -6.2573235e-10 -0.0000000e+00 
-0.0000000e+00 -2.6193447e-10 -0.0000000e+00 
-0.0000000e+00 -1.4551915e-10 -0.0000000e+00 
-0.0000000e+00 -0.0000000e+00 -0.0000000e+00 
-0.0000000e+00 2.8012437e-10 -0.0000000e+00 
-0.0000000e+00 1.2005330e-10 -0.0000000e+00 
-0.0000000e+00 -2.5465852e-11 -0.0000000e+00 
-0.0000000e+00 -3.6379788e-11 -0.0000000e+00 
-0.0000000e+00 1.4551915e-11 -0.0000000e+00 
-0.0000000e+00 -2.1827873e-11 -0.0000000e+00 
-0.0000000e+00 -7.2759576e-12 -0.0000000e+00 
-0.0000000e+00 -5.8207661e-11 -0.0000000e+00 
VOLUME_ACCELERATION 3 30  float
0.0000000e+00 0.0000000e+00 0.0000000e+00 
0.0000000e+00 0.0000000e+00 0.0000000e+00 
0.0000000e+00 0.0000000e+00 0.0000000e+00 
0.0000000e+00 0.0000000e+00 0.0000000e+00 
0.0000000e+00 0.0000000e+00 0.0000000e+00 
0.0000000e+00 0.0000000e+00 0.0000000e+00 
0.0000000e+00 0.0000000e+00 0.0000000e+00 
0.0000000e+00 0.0000000e+00 0.0000000e+00 
0.0000000e+00 0.0000000e+00 0.0000000e+00 
0.0000000e+00 0.0000000e+00 0.0000000e+00 
0.0000000e+00 0.0000000e+00 0.0000000e+00 
0.0000000e+00 0.0000000e+00 0.0000000e+00 
0.0000000e+00 0.0000000e+00 0.0000000e+00 
0.0000000e+00 0.0000000e+00 0.0000000e+00 
0.0000000e+00 0.0000000e+00 0.0000000e+00 
0.0000000e+00 0.0000000e+00 0.0000000e+00 
0.0000000e+00 0.0000000e+00 0.0000000e+00 
0.0000000e+00 0.0000000e+00 0.0000000e+00 
0.0000000e+00 0.0000000e+00 0.0000000e+00 
0.0000000e+00 0.0000000e+00 0.0000000e+00 
0.0000000e+00 0.0000000e+00 0.0000000e+00 
0.0000000e+00 0.0000000e+00 0.0000000e+00 
0.0000000e+00 0.0000000e+00 0.0000000e+00 
0.0000000e+00 0.0000000e+00 0.0000000e+00 
0.0000000e+00 0.0000000e+00 0.0000000e+00 
0.0000000e+00 0.0000000e+00 0.0000000e+00 
0.0000000e+00 0.0000000e+00 0.0000000e+00 
0.0000000e+00 0.0000000e+00 0.0000000e+00 
0.0000000e+00 0.0000000e+00 0.0000000e+00 
0.0000000e+00 0.0000000e+00 0.0000000e+00 
POINT_LOAD 3 30  float
0.0000000e+00 0.0000000e+00 0.0000000e+00 
-8.1926094e+03 0.0000000e+00 7.7071753e+03 
0.0000000e+00 0.0000000e+00 0.0000000e+00 
0.0000000e+00 0.0000000e+00 0.0000000e+00 
-3.9400901e+03 0.0000000e+00 4.5141489e+03 
-2.2967341e+03 0.0000000e+00 -5.7125088e+03 
0.0000000e+00 0.0000000e+00 0.0000000e+00 
8.3680859e+03 0.0000000e+00 -5.1654785e+03 
-6.7757471e+03 0.0000000e+00 -9.8100137e+03 
-3.6425518e+03 0.0000000e+00 1.3457571e+03 
7.3284321e+03 0.0000000e+00 4.7744233e+03 
0.0000000e+00 0.0000000e+00 0.0000000e+00 
2.6590137e+03 0.0000000e+00 -6.5225371e+03 
0.0000000e+00 0.0000000e+00 0.0000000e+00 
-2.0480942e+03 0.0000000e+00 -2.1232302e+03 
-9.0624463e+03 0.0000000e+00 -4.6719080e+02 
-4.6354810e+03 0.0000000e+00 -3.9630828e+03 
0.0000000e+00 0.0000000e+00 0.0000000e+00 
-8.4968135e+03 0.0000000e+00 2.0360760e+02 
9.3546553e+03 0.0000000e+00 -5.5825391e+02 
0.0000000e+00 0.0000000e+00 0.0000000e+00 
4.8710425e+03 0.0000000e+00 -6.7663462e+03 
-3.0583645e+03 0.0000000e+00 -8.7044199e+03 
-5.2487480e+03 0.0000000e+00 -2.7624346e+03 
0.0000000e+00 0.0000000e+00 0.0000000e+00 
-9.6862363e+03 0.0000000e+00 -5.9895015e+03 
5.1602104e+03 0.0000000e+00 -4.8256274e+03 
1.7793922e+02 0.0000000e+00 8.3331504e+03 
8.0394404e+03 0.0000000e+00 8.6168975e+03 
-4.2094482e+03 0.0000000e+00 9.4684678e+03 
POINT_MOMENT 3 30  float
0.0000000e+00 0.0000000e+00 0.0000000e+00 
0.0000000e+00 0.0000000e+00 0.0000000e+00 
0.0000000e+00 0.0000000e+00 0.0000000e+00 
0.0000000e+00 0.0000000e+00 0.0000000e+00 
0.0000000e+00 0.0000000e+00 0.0000000e+00 
0.0000000e+00 0.0000000e+00 0.0000000e+00 
0.0000000e+00 0.0000000e+00 0.0000000e+00 
0.0000000e+00 0.0000000e+00 0.0000000e+00 
0.0000000e+00 0.0000000e+00 0.0000000e+00 
0.0000000e+00 0.0000000e+00 0.0000000e+00 
0.0000000e+00 0.0000000e+00 0.0000000e+00 
0.0000000e+00 0.0000000e+00 0.0000000e+00 
0.0000000e+00 0.0000000e+00 0.0000000e+00 
0.0000000e+00 0.0000000e+00 0.0000000e+00 
0.0000000e+00 0.0000000e+00 0.0000000e+00 
0.0000000e+00 0.0000000e+00 0.0000000e+00 
0.0000000e+00 0.0000000e+00 0.0000000e+00 
0.0000000e+00 0.0000000e+00 0.0000000e+00 
0.0000000e+00 0.0000000e+00 0.0000000e+00 
0.0000000e+00 0.0000000e+00 0.0000000e+00 
0.0000000e+00 0.0000000e+00 0.0000000e+00 
0.0000000e+00 0.0000000e+00 0.0000000e+00 
0.0000000e+00 0.0000000e+00 0.0000000e+00 
0.0000000e+00 0.0000000e+00 0.0000000e+00 
0.0000000e+00 0.0000000e+00 0.0000000e+00 
0.0000000e+00 0.0000000e+00 0.0000000e+00 
0.0000000e+00 0.0000000e+00 0.0000000e+00 
0.0000000e+00 0.0000000e+00 0.0000000e+00 
0.0000000e+00 0.0000000e+00 0.0000000e+00 
0.0000000e+00 0.0000000e+00 0.0000000e+00 
CELL_DATA 30
FIELD FieldData 9
YOUNG_MODULUS 1 30  float
2.1000000e+11
2.1000000e+11
2.1000000e+11
2.1000000e+11
2.1000000e+11
2.1000000e+11
2.1000000e+11
2.1000000e+11
2.1000000e+11
2.1000000e+11
2.1000000e+11
2.1000000e+11
2.1000000e+11
2.1000000e+11
2.1000000e+11
2.1000000e+11
2.1000000e+11
2.1000000e+11
2.1000000e+11
2.1000000e+11
2.1000000e+11
2.1000000e+11
2.1000000e+11
2.1000000e+11
2.1000000e+11
2.1000000e+11
2.1000000e+11
2.1000000e+11
2.1000000e+11
2.1000000e+11
DENSITY 1 30  float
7.8500000e+03
7.8500000e+03
7.8500000e+03
7.8500000e+03
7.8500000e+03
7.8500000e+03
7.8500000e+03
7.8500000e+03
7.8500000e+03
7.8500000e+03
7.8500000e+03
7.8500000e+03
7.8500000e+03
7.8500000e+03
7.8500000e+03
7.8500000e+03
7.8500000e+03
7.8500000e+03
7.8500000e+03
7.8500000e+03
7.8500000e+03
7.8500000e+03
7.8500000e+03
7.8500000e+03
7.8500000e+03
7.8500000e+03
7.8500000e+03
7.8500000e+03
7.8500000e+03
7.8500000e+03
CROSS_AREA 1 30  float
9.9999998e-03
9.9999998e-03
9.9999998e-03
9.9999998e-03
9.9999998e-03
9.9999998e-03
9.9999998e-03
9.9999998e-03
9.9999998e-03
9.9999998e-03
9.9999998e-03
9.9999998e-03
9.9999998e-03
9.9999998e-03
9.9999998e-03
9.9999998e-03
9.9999998e-03
9.9999998e-03
9.9999998e-03
9.9999998e-03
9.9999998e-03
9.9999998e-03
9.9999998e-03
9.9999998e-03
9.9999998e-03
9.9999998e-03
9.9999998e-03
9.9999998e-03
9.9999998e-03
9.9999998e-03
I22 1 30  float
1.5000001e-04
1.5000001e-04
1.5000001e-04
1.5000001e-04
1.5000001e-04
1.5000001e-04
1.5000001e-04
1.5000001e-04
1.5000001e-04
1.5000001e-04
1.5000001e-04
1.5000001e-04
1.5000001e-04
1.5000001e-04
1.5000001e-04
1.5000001e-04
1.5000001e-04
1.5000001e-04
1.5000001e-04
1.5000001e-04
1.5000001e-04
1.5000001e-04
1.5000001e-04
1.5000001e-04
1.5000001e-04
1.5000001e-04
1.5000001e-04
1.5000001e-04
1.5000001e-04
1.5000001e-04
I33 1 30  float
1.5000001e-04
1.5000001e-04
1.5000001e-04
1.5000001e-04
1.5000001e-04
1.5000001e-04
1.5000001e-04
1.5000001e-04
1.5000001e-04
1.5000001e-04
1.5000001e-04
1.5000001e-04
1.5000001e-04
1.5000001e-04
1.5000001e-04
1.5000001e-04
1.5000001e-04
1.5000001e-04
1.5000001e-04
1.5000001e-04
1.5000001e-04
1.5000001e-04
1.5000001e-04
1.5000001e-04
1.5000001e-04
1.5000001e-04
1.5000001e-04
1.5000001e-04
1.5000001e-04
1.5000001e-04
TORSIONAL_INERTIA 1 30  float
3.0000001e-04
3.0000001e-04
3.0000001e-04
3.0000001e-04
3.0000001e-04
3.0000001e-04
3.0000001e-04
3.0000001e-04
3.0000001e-04
3.0000001e-04
3.0000001e-04
3.0000001e-04
3.0000001e-04
3.0000001e-04
3.0000001e-04
3.0000001e-04
3.0000001e-04
3.0000001e-04
3.0000001e-04
3.0000001e-04
3.0000001e-04
3.0000001e-04
3.0000001e-04
3.0000001e-04
3.0000001e-04
3.0000001e-04
3.0000001e-04
3.0000001e-04
3.0000001e-04
3.0000001e-04
POISSON_RATIO 1 30  float
3.0000001e-01
3.0000001e-01
3.0000001e-01
3.0000001e-01
3.0000001e-01
3.0000001e-01
3.0000001e-01
3.0000001e-01
3.0000001e-01
3.0000001e-01
3.0000001e-01
3.0000001e-01
3.0000001e-01
3.0000001e-01
3.0000001e-01
3.0000001e-01
3.0000001e-01
3.0000001e-01
3.0000001e-01
3.0000001e-01
3.0000001e-01
3.0000001e-01
3.0000001e-01
3.0000001e-01
3.0000001e-01
3.0000001e-01
3.0000001e-01
3.0000001e-01
3.0000001e-01
3.0000001e-01
MOMENT 3 30  float
0.0000000e+00 7.5265352e+03 0.0000000e+00 
0.0000000e+00 1.9302562e+04 0.0000000e+00 
0.0000000e+00 2.7801547e+04 0.0000000e+00 
0.0000000e+00 3.6300531e+04 0.0000000e+00 
0.0000000e+00 4.3223477e+04 0.0000000e+00 
0.0000000e+00 2.1380682e+04 0.0000000e+00 
0.0000000e+00 8.5541240e+03 0.0000000e+00 
0.0000000e+00 -9.2519843e+02 0.0000000e+00 
0.0000000e+00 -9.7675859e+03 0.0000000e+00 
0.0000000e+00 -2.2777293e+04 0.0000000e+00 
0.0000000e+00 2.6072832e+03 0.0000000e+00 
0.0000000e+00 8.8854551e+03 0.0000000e+00 
0.0000000e+00 1.6227232e+04 0.0000000e+00 
0.0000000e+00 2.2749771e+04 0.0000000e+00 
0.0000000e+00 2.4828096e+04 0.0000000e+00 
0.0000000e+00 2.8608900e+04 0.0000000e+00 
0.0000000e+00 2.5295264e+04 0.0000000e+00 
0.0000000e+00 1.8582900e+04 0.0000000e+00 
0.0000000e+00 1.2213673e+04 0.0000000e+00 
0.0000000e+00 9.5863076e+03 0.0000000e+00 
0.0000000e+00 7.0948740e+03 0.0000000e+00 
0.0000000e+00 -6.2169038e+03 0.0000000e+00 
0.0000000e+00 -8.0618276e+03 0.0000000e+00 
0.0000000e+00 -7.1443169e+03 0.0000000e+00 
0.0000000e+00 -2.3730479e+02 0.0000000e+00 
0.0000000e+00 -2.1357012e+04 0.0000000e+00 
0.0000000e+00 7.7590326e+02 0.0000000e+00 
0.0000000e+00 1.9401297e+04 0.0000000e+00 
0.0000000e+00 2.1076641e+04 0.0000000e+00 
0.0000000e+00 4.6666196e+03 0.0000000e+00 
FORCE 3 30  float
-4.7009507e+03 0.0000000e+00 1.8816338e+04 
-1.2408126e+04 0.0000000e+00 1.0623729e+04 
-1.2408126e+04 0.0000000e+00 1.0623729e+04 
-1.2408126e+04 0.0000000e+00 1.0623729e+04 
-1.6922275e+04 0.0000000e+00 6.6836392e+03 
-2.0166759e+02 0.0000000e+00 -1.6033196e+04 
-2.0166759e+02 0.0000000e+00 -1.6033196e+04 
4.9638110e+03 0.0000000e+00 -7.6651108e+03 
1.4773824e+04 0.0000000e+00 -1.4440857e+04 
1.3428067e+04 0.0000000e+00 -1.8083410e+04 
-1.3706046e+04 0.0000000e+00 6.5182080e+03 
-7.1835088e+03 0.0000000e+00 9.1772217e+03 
-7.1835088e+03 0.0000000e+00 9.1772217e+03 
-5.0602783e+03 0.0000000e+00 7.1291274e+03 
-4.5930879e+03 0.0000000e+00 -1.9333186e+03 
5.8182520e+03 0.0000000e+00 -4.1420474e+03 
5.8182520e+03 0.0000000e+00 -4.1420474e+03 
5.6146445e+03 0.0000000e+00 -1.2638861e+04 
6.1728984e+03 0.0000000e+00 -3.2842065e+03 
6.1728984e+03 0.0000000e+00 -3.2842065e+03 
-2.0420102e+04 0.0000000e+00 -1.1008099e+04 
-1.7361736e+04 0.0000000e+00 -2.3036792e+03 
-1.2112989e+04 0.0000000e+00 4.5875534e+02 
-1.2112989e+04 0.0000000e+00 4.5875534e+02 
-2.4267520e+03 0.0000000e+00 6.4482568e+03 
1.0754978e+04 0.0000000e+00 8.6536436e+03 
5.5947671e+03 0.0000000e+00 1.3479271e+04 
5.4168281e+03 0.0000000e+00 5.1461211e+03 
-2.6226123e+03 0.0000000e+00 -3.4707766e+03 
1.5868357e+03 0.0000000e+00 -1.2939244e+04 
