# vtk DataFile Version 4.0
vtk output
ASCII
DATASET UNSTRUCTURED_GRID
POINTS 30 float
0.0000000e+00 0.0000000e+00 0.0000000e+00 
0.0000000e+00 0.0000000e+00 8.0000001e-01 
0.0000000e+00 0.0000000e+00 1.6000000e+00 
0.0000000e+00 0.0000000e+00 2.4000001e+00 
0.0000000e+00 0.0000000e+00 3.2000000e+00 
0.0000000e+00 0.0000000e+00 4.0000000e+00 
0.0000000e+00 0.0000000e+00 4.8000002e+00 
0.0000000e+00 0.0000000e+00 5.5999999e+00 
0.0000000e+00 0.0000000e+00 6.4000001e+00 
0.0000000e+00 0.0000000e+00 7.1999998e+00 
0.0000000e+00 0.0000000e+00 8.0000000e+00 
1.0000000e+01 0.0000000e+00 0.0000000e+00 
1.0000000e+01 0.0000000e+00 8.0000001e-01 
1.0000000e+01 0.0000000e+00 1.6000000e+00 
1.0000000e+01 0.0000000e+00 2.4000001e+00 
1.0000000e+01 0.0000000e+00 3.2000000e+00 
1.0000000e+01 0.0000000e+00 4.0000000e+00 
1.0000000e+01 0.0000000e+00 4.8000002e+00 
1.0000000e+01 0.0000000e+00 5.5999999e+00 
1.0000000e+01 0.0000000e+00 6.4000001e+00 
1.0000000e+01 0.0000000e+00 7.1999998e+00 
1.0000000e+01 0.0000000e+00 8.0000000e+00 
2.0000000e+00 0.0000000e+00 4.0000000e+00 
4.0000000e+00 0.0000000e+00 4.0000000e+00 
6.0000000e+00 0.0000000e+00 4.0000000e+00 
8.0000000e+00 0.0000000e+00 4.0000000e+00 
2.0000000e+00 0.0000000e+00 8.0000000e+00 
4.0000000e+00 0.0000000e+00 8.0000000e+00 
6.0000000e+00 0.0000000e+00 8.0000000e+00 
8.0000000e+00 0.0000000e+00 8.0000000e+00 

CELLS 30 90
2 0 1
2 1 2
2 2 3
2 3 4
2 4 5
2 5 6
2 6 7
2 7 8
2 8 9
2 9 10
2 11 12
2 12 13
2 13 14
2 14 15
2 15 16
2 16 17
2 17 18
2 18 19
2 19 20
2 20 21
2 5 22
2 22 23
2 23 24
2 24 25
2 25 16
2 10 26
2 26 27
2 27 28
2 28 29
2 29 21

CELL_TYPES 30
3
3
3
3
3
3
3
3
3
3
3
3
3
3
3
3
3
3
3
3
3
3
3
3
3
3
3
3
3
3
POINT_DATA 30
FIELD FieldData 7
DISPLACEMENT 3 30  float
0.0000000e+00 0.0000000e+00 0.0000000e+00 
4.5868820e-03 0.0000000e+00 2.2181653e-06 
8.9864880e-03 0.0000000e+00 4.4363305e-06 
1.3032927e-02 0.0000000e+00 9.1270740e-06 
1.6629452e-02 0.0000000e+00 1.7011002e-05 
1.9627728e-02 0.0000000e+00 2.4495184e-05 
2.2427380e-02 0.0000000e+00 2.6591993e-05 
2.5338726e-02 0.0000000e+00 2.9477960e-05 
2.8081119e-02 0.0000000e+00 3.2363925e-05 
3.0386439e-02 0.0000000e+00 3.5249894e-05 
3.2008965e-02 0.0000000e+00 3.7280981e-05 
0.0000000e+00 0.0000000e+00 0.0000000e+00 
4.5580738e-03 0.0000000e+00 -1.1848690e-05 
9.0100607e-03 0.0000000e+00 -2.5370435e-05 
1.3169397e-02 0.0000000e+00 -4.0592004e-05 
1.6779404e-02 0.0000000e+00 -5.5813573e-05 
1.9582177e-02 0.0000000e+00 -6.9183247e-05 
2.2046458e-02 0.0000000e+00 -7.5832351e-05 
2.4714956e-02 0.0000000e+00 -7.8883044e-05 
2.7393218e-02 0.0000000e+00 -8.1933737e-05 
2.9873597e-02 0.0000000e+00 -8.1178718e-05 
3.1998377e-02 0.0000000e+00 -8.0423706e-05 
1.9620527e-02 0.0000000e+00 -3.2346416e-03 
1.9613324e-02 0.0000000e+00 -1.9495859e-03 
1.9601597e-02 0.0000000e+00 8.1039325e-04 
1.9589869e-02 0.0000000e+00 2.3936655e-03 
3.2011293e-02 0.0000000e+00 -8.3768467e-04 
3.2013621e-02 0.0000000e+00 9.3123969e-04 
3.2010254e-02 0.0000000e+00 2.8713918e-03 
3.2006886e-02 0.0000000e+00 3.0170402e-03 
ROTATION 3 30  float
0.0000000e+00 5.7726186e-03 0.0000000e+00 
0.0000000e+00 5.6555709e-03 0.0000000e+00 
0.0000000e+00 5.3044278e-03 0.0000000e+00 
0.0000000e+00 4.7993870e-03 0.0000000e+00 
0.0000000e+00 4.1591381e-03 0.0000000e+00 
0.0000000e+00 3.2945629e-03 0.0000000e+00 
0.0000000e+00 3.6330591e-03 0.0000000e+00 
0.0000000e+00 3.5894450e-03 0.0000000e+00 
0.0000000e+00 3.2106794e-03 0.0000000e+00 
0.0000000e+00 2.4967624e-03 0.0000000e+00 
0.0000000e+00 1.5316878e-03 0.0000000e+00 
0.0000000e+00 5.7161963e-03 0.0000000e+00 
0.0000000e+00 5.6603835e-03 0.0000000e+00 
0.0000000e+00 5.4299966e-03 0.0000000e+00 
0.0000000e+00 4.9120919e-03 0.0000000e+00 
0.0000000e+00 4.0566740e-03 0.0000000e+00 
0.0000000e+00 2.9091367e-03 0.0000000e+00 
0.0000000e+00 3.2378009e-03 0.0000000e+00 
0.0000000e+00 3.3875857e-03 0.0000000e+00 
0.0000000e+00 3.2622081e-03 0.0000000e+00 
0.0000000e+00 2.9084806e-03 0.0000000e+00 
0.0000000e+00 2.3732169e-03 0.0000000e+00 
0.0000000e+00 2.2904703e-04 0.0000000e+00 
0.0000000e+00 -1.2496295e-03 0.0000000e+00 
0.0000000e+00 -1.2980812e-03 0.0000000e+00 
0.0000000e+00 -7.2922652e-05 0.0000000e+00 
0.0000000e+00 -4.4010591e-04 0.0000000e+00 
0.0000000e+00 -1.1122022e-03 0.0000000e+00 
0.0000000e+00 -6.7470002e-04 0.0000000e+00 
0.0000000e+00 6.8230159e-04 0.0000000e+00 
REACTION 3 30  float
-1.1521882e+04 -0.0000000e+00 -5.8226841e+03 
4.6566129e-10 -0.0000000e+00 -0.0000000e+00 
6.1390892e-10 -0.0000000e+00 3.6379788e-12 
-2.2810127e-09 -0.0000000e+00 -3.6379788e-12 
1.0259100e-09 -0.0000000e+00 -1.4551915e-11 
-6.8957888e-09 -0.0000000e+00 -9.4587449e-10 
8.0362952e-09 -0.0000000e+00 -3.8016879e-10 
3.6088750e-09 -0.0000000e+00 8.7311491e-11 
1.1641532e-10 -0.0000000e+00 -1.4551915e-10 
-1.1459633e-09 -0.0000000e+00 1.8189894e-11 
-1.0957592e-08 -0.0000000e+00 3.6379788e-11 
-5.4940811e+03 -0.0000000e+00 3.1102811e+04 
6.4210326e-10 -0.0000000e+00 1.4551915e-11 
1.2405508e-09 -0.0000000e+00 1.5279511e-10 
-3.9581209e-09 -0.0000000e+00 -5.8207661e-11 
1.4679244e-09 -0.0000000e+00 -4.5838533e-10 
-5.4715201e-09 -0.0000000e+00 -3.9435690e-09 
-2.1900632e-09 -0.0000000e+00 -9.0949470e-12 
9.3132257e-10 -0.0000000e+00 5.8207661e-11 
1.2423698e-09 -0.0000000e+00 -2.5447662e-09 
-1.2805685e-09 -0.0000000e+00 -0.0000000e+00 
7.3341653e-09 -0.0000000e+00 1.1641532e-09 
-0.0000000e+00 -0.0000000e+00 1.9208528e-09 
2.5884219e-09 -0.0000000e+00 -8.0035534e-11 
-0.0000000e+00 -0.0000000e+00 1.6461854e-09 
-5.6297722e-10 -0.0000000e+00 1.3096724e-10 
2.2351742e-08 -0.0000000e+00 -3.6379788e-12 
-1.2084456e-08 -0.0000000e+00 -1.0913936e-11 
-0.0000000e+00 -0.0000000e+00 2.1464075e-10 
-4.5183697e-09 -0.0000000e+00 2.9103830e-11 
REACTION_MOMENT 3 30  float
-0.0000000e+00 5.2386895e-10 -0.0000000e+00 
-0.0000000e+00 2.9103830e-10 -0.0000000e+00 
-0.0000000e+00 1.6880222e-09 -0.0000000e+00 
-0.0000000e+00 -3.2596290e-09 -0.0000000e+00 
-0.0000000e+00 2.5029294e-09 -0.0000000e+00 
-0.0000000e+00 3.4851837e-09 -0.0000000e+00 
-0.0000000e+00 2.2118911e-09 -0.0000000e+00 
-0.0000000e+00 -6.4028427e-10 -0.0000000e+00 
-0.0000000e+00 2.5611371e-09 -0.0000000e+00 
-0.0000000e+00 -1.3242243e-09 -0.0000000e+00 
-0.0000000e+00 -2.1900632e-09 -0.0000000e+00 
-0.0000000e+00 -1.1641532e-10 -0.0000000e+00 
-0.0000000e+00 -5.2386895e-10 -0.0000000e+00 
-0.0000000e+00 -2.9103830e-10 -0.0000000e+00 
-0.0000000e+00 -5.8207661e-11 -0.0000000e+00 
-0.0000000e+00 9.6042641e-10 -0.0000000e+00 
-0.0000000e+00 -3.6379788e-10 -0.0000000e+00 
-0.0000000e+00 -7.5669959e-10 -0.0000000e+00 
-0.0000000e+00 2.1245796e-09 -0.0000000e+00 
-0.0000000e+00 -3.4924597e-10 -0.0000000e+00 
-0.0000000e+00 1.3096724e-09 -0.0000000e+00 
-0.0000000e+00 2.4738256e-10 -0.0000000e+00 
-0.0000000e+00 -2.9831426e-10 -0.0000000e+00 
-0.0000000e+00 -3.4924597e-10 -0.0000000e+00 
-0.0000000e+00 7.0940587e-11 -0.0000000e+00 
-0.0000000e+00 1.0913936e-11 -0.0000000e+00 
-0.0000000e+00 -3.2741809e-11 -0.0000000e+00 
-0.0000000e+00 -4.3655746e-11 -0.0000000e+00 
-0.0000000e+00 3.6379788e-12 -0.0000000e+00 
-0.0000000e+00 2.1827873e-11 -0.0000000e+00 
VOLUME_ACCELERATION 3 30  float
0.0000000e+00 0.0000000e+00 0.0000000e+00 
0.0000000e+00 0.0000000e+00 0.0000000e+00 
0.0000000e+00 0.0000000e+00 0.0000000e+00 
0.0000000e+00 0.0000000e+00 0.0000000e+00 
0.0000000e+00 0.0000000e+00 0.0000000e+00 
0.0000000e+00 0.0000000e+00 0.0000000e+00 
0.0000000e+00 0.0000000e+00 0.0000000e+00 
0.0000000e+00 0.0000000e+00 0.0000000e+00 
0.0000000e+00 0.0000000e+00 0.0000000e+00 
0.0000000e+00 0.0000000e+00 0.0000000e+00 
0.0000000e+00 0.0000000e+00 0.0000000e+00 
0.0000000e+00 0.0000000e+00 0.0000000e+00 
0.0000000e+00 0.0000000e+00 0.0000000e+00 
0.0000000e+00 0.0000000e+00 0.0000000e+00 
0.0000000e+00 0.0000000e+00 0.0000000e+00 
0.0000000e+00 0.0000000e+00 0.0000000e+00 
0.0000000e+00 0.0000000e+00 0.0000000e+00 
0.0000000e+00 0.0000000e+00 0.0000000e+00 
0.0000000e+00 0.0000000e+00 0.0000000e+00 
0.0000000e+00 0.0000000e+00 0.0000000e+00 
0.0000000e+00 0.0000000e+00 0.0000000e+00 
0.0000000e+00 0.0000000e+00 0.0000000e+00 
0.0000000e+00 0.0000000e+00 0.0000000e+00 
0.0000000e+00 0.0000000e+00 0.0000000e+00 
0.0000000e+00 0.0000000e+00 0.0000000e+00 
0.0000000e+00 0.0000000e+00 0.0000000e+00 
0.0000000e+00 0.0000000e+00 0.0000000e+00 
0.0000000e+00 0.0000000e+00 0.0000000e+00 
0.0000000e+00 0.0000000e+00 0.0000000e+00 
0.0000000e+00 0.0000000e+00 0.0000000e+00 
POINT_LOAD 3 30  float
0.0000000e+00 0.0000000e+00 0.0000000e+00 
0.0000000e+00 0.0000000e+00 0.0000000e+00 
7.8944619e+03 0.0000000e+00 -6.4905161e+03 
-6.0547002e+03 0.0000000e+00 -8.3821113e+03 
-2.7178904e+03 0.0000000e+00 1.0493333e+03 
-1.1564082e+03 0.0000000e+00 1.6454948e+03 
4.6225249e+03 0.0000000e+00 -2.0715398e+03 
0.0000000e+00 0.0000000e+00 0.0000000e+00 
0.0000000e+00 0.0000000e+00 0.0000000e+00 
8.2681074e+03 0.0000000e+00 2.2440544e+03 
5.7823369e+03 0.0000000e+00 -4.9035088e+03 
0.0000000e+00 0.0000000e+00 0.0000000e+00 
-6.1964702e+03 0.0000000e+00 4.3917725e+03 
-4.9214282e+03 0.0000000e+00 4.4620347e+03 
0.0000000e+00 0.0000000e+00 0.0000000e+00 
4.4684673e+03 0.0000000e+00 -4.8612227e+03 
0.0000000e+00 0.0000000e+00 0.0000000e+00 
-9.4779160e+03 0.0000000e+00 -9.4458223e+03 
0.0000000e+00 0.0000000e+00 0.0000000e+00 
4.6081787e+03 0.0000000e+00 -9.9899834e+03 
0.0000000e+00 0.0000000e+00 0.0000000e+00 
0.0000000e+00 0.0000000e+00 0.0000000e+00 
0.0000000e+00 0.0000000e+00 0.0000000e+00 
4.7515850e+03 0.0000000e+00 2.4666792e+03 
0.0000000e+00 0.0000000e+00 0.0000000e+00 
-4.2351621e+03 0.0000000e+00 -7.6118232e+03 
0.0000000e+00 0.0000000e+00 0.0000000e+00 
5.9808965e+03 0.0000000e+00 2.9940596e+03 
0.0000000e+00 0.0000000e+00 0.0000000e+00 
5.3993799e+03 0.0000000e+00 9.2229727e+03 
POINT_MOMENT 3 30  float
0.0000000e+00 0.0000000e+00 0.0000000e+00 
0.0000000e+00 0.0000000e+00 0.0000000e+00 
0.0000000e+00 0.0000000e+00 0.0000000e+00 
0.0000000e+00 0.0000000e+00 0.0000000e+00 
0.0000000e+00 0.0000000e+00 0.0000000e+00 
0.0000000e+00 0.0000000e+00 0.0000000e+00 
0.0000000e+00 0.0000000e+00 0.0000000e+00 
0.0000000e+00 0.0000000e+00 0.0000000e+00 
0.0000000e+00 0.0000000e+00 0.0000000e+00 
0.0000000e+00 0.0000000e+00 0.0000000e+00 
0.0000000e+00 0.0000000e+00 0.0000000e+00 
0.0000000e+00 0.0000000e+00 0.0000000e+00 
0.0000000e+00 0.0000000e+00 0.0000000e+00 
0.0000000e+00 0.0000000e+00 0.0000000e+00 
0.0000000e+00 0.0000000e+00 0.0000000e+00 
0.0000000e+00 0.0000000e+00 0.0000000e+00 
0.0000000e+00 0.0000000e+00 0.0000000e+00 
0.0000000e+00 0.0000000e+00 0.0000000e+00 
0.0000000e+00 0.0000000e+00 0.0000000e+00 
0.0000000e+00 0.0000000e+00 0.0000000e+00 
0.0000000e+00 0.0000000e+00 0.0000000e+00 
0.0000000e+00 0.0000000e+00 0.0000000e+00 
0.0000000e+00 0.0000000e+00 0.0000000e+00 
0.0000000e+00 0.0000000e+00 0.0000000e+00 
0.0000000e+00 0.0000000e+00 0.0000000e+00 
0.0000000e+00 0.0000000e+00 0.0000000e+00 
0.0000000e+00 0.0000000e+00 0.0000000e+00 
0.0000000e+00 0.0000000e+00 0.0000000e+00 
0.0000000e+00 0.0000000e+00 0.0000000e+00 
0.0000000e+00 0.0000000e+00 0.0000000e+00 
CELL_DATA 30
FIELD FieldData 9
YOUNG_MODULUS 1 30  float
2.1000000e+11
2.1000000e+11
2.1000000e+11
2.1000000e+11
2.1000000e+11
2.1000000e+11
2.1000000e+11
2.1000000e+11
2.1000000e+11
2.1000000e+11
2.1000000e+11
2.1000000e+11
2.1000000e+11
2.1000000e+11
2.1000000e+11
2.1000000e+11
2.1000000e+11
2.1000000e+11
2.1000000e+11
2.1000000e+11
2.1000000e+11
2.1000000e+11
2.1000000e+11
2.1000000e+11
2.1000000e+11
2.1000000e+11
2.1000000e+11
2.1000000e+11
2.1000000e+11
2.1000000e+11
DENSITY 1 30  float
7.8500000e+03
7.8500000e+03
7.8500000e+03
7.8500000e+03
7.8500000e+03
7.8500000e+03
7.8500000e+03
7.8500000e+03
7.8500000e+03
7.8500000e+03
7.8500000e+03
7.8500000e+03
7.8500000e+03
7.8500000e+03
7.8500000e+03
7.8500000e+03
7.8500000e+03
7.8500000e+03
7.8500000e+03
7.8500000e+03
7.8500000e+03
7.8500000e+03
7.8500000e+03
7.8500000e+03
7.8500000e+03
7.8500000e+03
7.8500000e+03
7.8500000e+03
7.8500000e+03
7.8500000e+03
CROSS_AREA 1 30  float
9.9999998e-03
9.9999998e-03
9.9999998e-03
9.9999998e-03
9.9999998e-03
9.9999998e-03
9.9999998e-03
9.9999998e-03
9.9999998e-03
9.9999998e-03
9.9999998e-03
9.9999998e-03
9.9999998e-03
9.9999998e-03
9.9999998e-03
9.9999998e-03
9.9999998e-03
9.9999998e-03
9.9999998e-03
9.9999998e-03
9.9999998e-03
9.9999998e-03
9.9999998e-03
9.9999998e-03
9.9999998e-03
9.9999998e-03
9.9999998e-03
9.9999998e-03
9.9999998e-03
9.9999998e-03
I22 1 30  float
1.5000001e-04
1.5000001e-04
1.5000001e-04
1.5000001e-04
1.5000001e-04
1.5000001e-04
1.5000001e-04
1.5000001e-04
1.5000001e-04
1.5000001e-04
1.5000001e-04
1.5000001e-04
1.5000001e-04
1.5000001e-04
1.5000001e-04
1.5000001e-04
1.5000001e-04
1.5000001e-04
1.5000001e-04
1.5000001e-04
1.5000001e-04
1.5000001e-04
1.5000001e-04
1.5000001e-04
1.5000001e-04
1.5000001e-04
1.5000001e-04
1.5000001e-04
1.5000001e-04
1.5000001e-04
I33 1 30  float
1.5000001e-04
1.5000001e-04
1.5000001e-04
1.5000001e-04
1.5000001e-04
1.5000001e-04
1.5000001e-04
1.5000001e-04
1.5000001e-04
1.5000001e-04
1.5000001e-04
1.5000001e-04
1.5000001e-04
1.5000001e-04
1.5000001e-04
1.5000001e-04
1.5000001e-04
1.5000001e-04
1.5000001e-04
1.5000001e-04
1.5000001e-04
1.5000001e-04
1.5000001e-04
1.5000001e-04
1.5000001e-04
1.5000001e-04
1.5000001e-04
1.5000001e-04
1.5000001e-04
1.5000001e-04
TORSIONAL_INERTIA 1 30  float
3.0000001e-04
3.0000001e-04
3.0000001e-04
3.0000001e-04
3.0000001e-04
3.0000001e-04
3.0000001e-04
3.0000001e-04
3.0000001e-04
3.0000001e-04
3.0000001e-04
3.0000001e-04
3.0000001e-04
3.0000001e-04
3.0000001e-04
3.0000001e-04
3.0000001e-04
3.0000001e-04
3.0000001e-04
3.0000001e-04
3.0000001e-04
3.0000001e-04
3.0000001e-04
3.0000001e-04
3.0000001e-04
3.0000001e-04
3.0000001e-04
3.0000001e-04
3.0000001e-04
3.0000001e-04
POISSON_RATIO 1 30  float
3.0000001e-01
3.0000001e-01
3.0000001e-01
3.0000001e-01
3.0000001e-01
3.0000001e-01
3.0000001e-01
3.0000001e-01
3.0000001e-01
3.0000001e-01
3.0000001e-01
3.0000001e-01
3.0000001e-01
3.0000001e-01
3.0000001e-01
3.0000001e-01
3.0000001e-01
3.0000001e-01
3.0000001e-01
3.0000001e-01
3.0000001e-01
3.0000001e-01
3.0000001e-01
3.0000001e-01
3.0000001e-01
3.0000001e-01
3.0000001e-01
3.0000001e-01
3.0000001e-01
3.0000001e-01
MOMENT 3 30  float
0.0000000e+00 -4.6087524e+03 0.0000000e+00 
0.0000000e+00 -1.3826258e+04 0.0000000e+00 
0.0000000e+00 -1.9885979e+04 0.0000000e+00 
0.0000000e+00 -2.5209795e+04 0.0000000e+00 
0.0000000e+00 -3.4042645e+04 0.0000000e+00 
0.0000000e+00 1.3328285e+04 0.0000000e+00 
0.0000000e+00 -1.7173090e+03 0.0000000e+00 
0.0000000e+00 -1.4913894e+04 0.0000000e+00 
0.0000000e+00 -2.8110477e+04 0.0000000e+00 
0.0000000e+00 -3.7999820e+04 0.0000000e+00 
0.0000000e+00 -2.1976326e+03 0.0000000e+00 
0.0000000e+00 -9.0714854e+03 0.0000000e+00 
0.0000000e+00 -2.0392498e+04 0.0000000e+00 
0.0000000e+00 -3.3682082e+04 0.0000000e+00 
0.0000000e+00 -4.5184277e+04 0.0000000e+00 
0.0000000e+00 1.2941153e+04 0.0000000e+00 
0.0000000e+00 5.8977842e+03 0.0000000e+00 
0.0000000e+00 -4.9367510e+03 0.0000000e+00 
0.0000000e+00 -1.3928015e+04 0.0000000e+00 
0.0000000e+00 -2.1076008e+04 0.0000000e+00 
0.0000000e+00 -4.8281879e+04 0.0000000e+00 
0.0000000e+00 -2.3289156e+04 0.0000000e+00 
0.0000000e+00 -7.6311438e+02 0.0000000e+00 
0.0000000e+00 1.9296248e+04 0.0000000e+00 
0.0000000e+00 4.6967434e+04 0.0000000e+00 
0.0000000e+00 -3.1055750e+04 0.0000000e+00 
0.0000000e+00 -1.0585516e+04 0.0000000e+00 
0.0000000e+00 6.8906592e+03 0.0000000e+00 
0.0000000e+00 2.1372775e+04 0.0000000e+00 
0.0000000e+00 2.6631918e+04 0.0000000e+00 
FORCE 3 30  float
5.8226841e+03 0.0000000e+00 -1.1521882e+04 
5.8226841e+03 0.0000000e+00 -1.1521882e+04 
1.2313200e+04 0.0000000e+00 -3.6274197e+03 
2.0695312e+04 0.0000000e+00 -9.6821201e+03 
1.9645979e+04 0.0000000e+00 -1.2400011e+04 
5.5041230e+03 0.0000000e+00 -2.1118256e+04 
7.5756631e+03 0.0000000e+00 -1.6495730e+04 
7.5756631e+03 0.0000000e+00 -1.6495730e+04 
7.5756631e+03 0.0000000e+00 -1.6495730e+04 
5.3316089e+03 0.0000000e+00 -8.2276230e+03 
-3.1102811e+04 0.0000000e+00 -5.4940811e+03 
-3.5494582e+04 0.0000000e+00 -1.1690552e+04 
-3.9956617e+04 0.0000000e+00 -1.6611980e+04 
-3.9956617e+04 0.0000000e+00 -1.6611980e+04 
-3.5095395e+04 0.0000000e+00 -1.2143513e+04 
-1.7453891e+04 0.0000000e+00 -4.0652529e+03 
-8.0080684e+03 0.0000000e+00 -1.3543169e+04 
-8.0080684e+03 0.0000000e+00 -1.3543169e+04 
1.9819147e+03 0.0000000e+00 -8.9349902e+03 
1.9819147e+03 0.0000000e+00 -8.9349902e+03 
-7.5618364e+03 0.0000000e+00 1.2496360e+04 
-7.5618364e+03 0.0000000e+00 1.2496360e+04 
-1.2313422e+04 0.0000000e+00 1.0029682e+04 
-1.2313422e+04 0.0000000e+00 1.0029682e+04 
-8.0782593e+03 0.0000000e+00 1.7641504e+04 
2.4452861e+03 0.0000000e+00 1.0235117e+04 
2.4452861e+03 0.0000000e+00 1.0235117e+04 
-3.5356106e+03 0.0000000e+00 7.2410576e+03 
-3.5356106e+03 0.0000000e+00 7.2410576e+03 
-8.9349902e+03 0.0000000e+00 -1.9819147e+03 
