# vtk DataFile Version 4.0
vtk output
ASCII
DATASET UNSTRUCTURED_GRID
POINTS 86 float
0.0000000e+00 0.0000000e+00 0.0000000e+00 
0.0000000e+00 0.0000000e+00 6.0000002e-01 
0.0000000e+00 0.0000000e+00 1.2000000e+00 
0.0000000e+00 0.0000000e+00 1.8000000e+00 
0.0000000e+00 0.0000000e+00 2.4000001e+00 
0.0000000e+00 0.0000000e+00 3.0000000e+00 
0.0000000e+00 0.0000000e+00 3.5999999e+00 
0.0000000e+00 0.0000000e+00 4.1999998e+00 
0.0000000e+00 0.0000000e+00 4.8000002e+00 
0.0000000e+00 0.0000000e+00 5.4000001e+00 
0.0000000e+00 0.0000000e+00 6.0000000e+00 
0.0000000e+00 0.0000000e+00 6.5999999e+00 
0.0000000e+00 0.0000000e+00 7.1999998e+00 
0.0000000e+00 0.0000000e+00 7.8000002e+00 
0.0000000e+00 0.0000000e+00 8.3999996e+00 
0.0000000e+00 0.0000000e+00 9.0000000e+00 
0.0000000e+00 0.0000000e+00 9.6000004e+00 
0.0000000e+00 0.0000000e+00 1.0200000e+01 
0.0000000e+00 0.0000000e+00 1.0800000e+01 
0.0000000e+00 0.0000000e+00 1.1400000e+01 
0.0000000e+00 0.0000000e+00 1.2000000e+01 
0.0000000e+00 0.0000000e+00 1.2600000e+01 
0.0000000e+00 0.0000000e+00 1.3200000e+01 
0.0000000e+00 0.0000000e+00 1.3800000e+01 
0.0000000e+00 0.0000000e+00 1.4400000e+01 
0.0000000e+00 0.0000000e+00 1.5000000e+01 
0.0000000e+00 0.0000000e+00 1.5600000e+01 
0.0000000e+00 0.0000000e+00 1.6200001e+01 
0.0000000e+00 0.0000000e+00 1.6799999e+01 
0.0000000e+00 0.0000000e+00 1.7400000e+01 
0.0000000e+00 0.0000000e+00 1.8000000e+01 
6.0000000e+00 0.0000000e+00 0.0000000e+00 
6.0000000e+00 0.0000000e+00 6.0000002e-01 
6.0000000e+00 0.0000000e+00 1.2000000e+00 
6.0000000e+00 0.0000000e+00 1.8000000e+00 
6.0000000e+00 0.0000000e+00 2.4000001e+00 
6.0000000e+00 0.0000000e+00 3.0000000e+00 
6.0000000e+00 0.0000000e+00 3.5999999e+00 
6.0000000e+00 0.0000000e+00 4.1999998e+00 
6.0000000e+00 0.0000000e+00 4.8000002e+00 
6.0000000e+00 0.0000000e+00 5.4000001e+00 
6.0000000e+00 0.0000000e+00 6.0000000e+00 
6.0000000e+00 0.0000000e+00 6.5999999e+00 
6.0000000e+00 0.0000000e+00 7.1999998e+00 
6.0000000e+00 0.0000000e+00 7.8000002e+00 
6.0000000e+00 0.0000000e+00 8.3999996e+00 
6.0000000e+00 0.0000000e+00 9.0000000e+00 
6.0000000e+00 0.0000000e+00 9.6000004e+00 
6.0000000e+00 0.0000000e+00 1.0200000e+01 
6.0000000e+00 0.0000000e+00 1.0800000e+01 
6.0000000e+00 0.0000000e+00 1.1400000e+01 
6.0000000e+00 0.0000000e+00 1.2000000e+01 
6.0000000e+00 0.0000000e+00 1.2600000e+01 
6.0000000e+00 0.0000000e+00 1.3200000e+01 
6.0000000e+00 0.0000000e+00 1.3800000e+01 
6.0000000e+00 0.0000000e+00 1.4400000e+01 
6.0000000e+00 0.0000000e+00 1.5000000e+01 
6.0000000e+00 0.0000000e+00 1.5600000e+01 
6.0000000e+00 0.0000000e+00 1.6200001e+01 
6.0000000e+00 0.0000000e+00 1.6799999e+01 
6.0000000e+00 0.0000000e+00 1.7400000e+01 
6.0000000e+00 0.0000000e+00 1.8000000e+01 
1.2000000e+00 0.0000000e+00 3.0000000e+00 
2.4000001e+00 0.0000000e+00 3.0000000e+00 
3.5999999e+00 0.0000000e+00 3.0000000e+00 
4.8000002e+00 0.0000000e+00 3.0000000e+00 
1.2000000e+00 0.0000000e+00 6.0000000e+00 
2.4000001e+00 0.0000000e+00 6.0000000e+00 
3.5999999e+00 0.0000000e+00 6.0000000e+00 
4.8000002e+00 0.0000000e+00 6.0000000e+00 
1.2000000e+00 0.0000000e+00 9.0000000e+00 
2.4000001e+00 0.0000000e+00 9.0000000e+00 
3.5999999e+00 0.0000000e+00 9.0000000e+00 
4.8000002e+00 0.0000000e+00 9.0000000e+00 
1.2000000e+00 0.0000000e+00 1.2000000e+01 
2.4000001e+00 0.0000000e+00 1.2000000e+01 
3.5999999e+00 0.0000000e+00 1.2000000e+01 
4.8000002e+00 0.0000000e+00 1.2000000e+01 
1.2000000e+00 0.0000000e+00 1.5000000e+01 
2.4000001e+00 0.0000000e+00 1.5000000e+01 
3.5999999e+00 0.0000000e+00 1.5000000e+01 
4.8000002e+00 0.0000000e+00 1.5000000e+01 
1.2000000e+00 0.0000000e+00 1.8000000e+01 
2.4000001e+00 0.0000000e+00 1.8000000e+01 
3.5999999e+00 0.0000000e+00 1.8000000e+01 
4.8000002e+00 0.0000000e+00 1.8000000e+01 

CELLS 90 270
2 0 1
2 1 2
2 2 3
2 3 4
2 4 5
2 5 6
2 6 7
2 7 8
2 8 9
2 9 10
2 10 11
2 11 12
2 12 13
2 13 14
2 14 15
2 15 16
2 16 17
2 17 18
2 18 19
2 19 20
2 20 21
2 21 22
2 22 23
2 23 24
2 24 25
2 25 26
2 26 27
2 27 28
2 28 29
2 29 30
2 31 32
2 32 33
2 33 34
2 34 35
2 35 36
2 36 37
2 37 38
2 38 39
2 39 40
2 40 41
2 41 42
2 42 43
2 43 44
2 44 45
2 45 46
2 46 47
2 47 48
2 48 49
2 49 50
2 50 51
2 51 52
2 52 53
2 53 54
2 54 55
2 55 56
2 56 57
2 57 58
2 58 59
2 59 60
2 60 61
2 5 62
2 62 63
2 63 64
2 64 65
2 65 36
2 10 66
2 66 67
2 67 68
2 68 69
2 69 41
2 15 70
2 70 71
2 71 72
2 72 73
2 73 46
2 20 74
2 74 75
2 75 76
2 76 77
2 77 51
2 25 78
2 78 79
2 79 80
2 80 81
2 81 56
2 30 82
2 82 83
2 83 84
2 84 85
2 85 61

CELL_TYPES 90
3
3
3
3
3
3
3
3
3
3
3
3
3
3
3
3
3
3
3
3
3
3
3
3
3
3
3
3
3
3
3
3
3
3
3
3
3
3
3
3
3
3
3
3
3
3
3
3
3
3
3
3
3
3
3
3
3
3
3
3
3
3
3
3
3
3
3
3
3
3
3
3
3
3
3
3
3
3
3
3
3
3
3
3
3
3
3
3
3
3
POINT_DATA 86
FIELD FieldData 3
ADJOINT_DISPLACEMENT 3 86  float
0.0000000e+00 0.0000000e+00 0.0000000e+00 
-1.0295791e-02 0.0000000e+00 2.7341651e-14 
-2.0639453e-02 0.0000000e+00 5.4683302e-14 
-3.1078862e-02 0.0000000e+00 8.2024956e-14 
-4.1661888e-02 0.0000000e+00 1.0936660e-13 
-5.2436404e-02 0.0000000e+00 1.3670826e-13 
-6.6415772e-02 0.0000000e+00 3.4038478e-04 
-8.5951582e-02 0.0000000e+00 6.8076956e-04 
-1.1009905e-01 0.0000000e+00 1.0211543e-03 
-1.3791339e-01 0.0000000e+00 1.3615391e-03 
-1.6844983e-01 0.0000000e+00 1.7019239e-03 
-2.1342346e-01 0.0000000e+00 3.4151939e-03 
-2.8947037e-01 0.0000000e+00 5.1284642e-03 
-4.0302739e-01 0.0000000e+00 6.8417341e-03 
-5.6053126e-01 0.0000000e+00 8.5550044e-03 
-7.6841879e-01 0.0000000e+00 1.0268274e-02 
-9.7627336e-01 0.0000000e+00 8.5513489e-03 
-1.1336784e+00 0.0000000e+00 6.8344232e-03 
-1.2470707e+00 0.0000000e+00 5.1174974e-03 
-1.3228866e+00 0.0000000e+00 3.4005719e-03 
-1.3675631e+00 0.0000000e+00 1.6836463e-03 
-1.3976364e+00 0.0000000e+00 1.3285177e-03 
-1.4247227e+00 0.0000000e+00 9.7338902e-04 
-1.4478784e+00 0.0000000e+00 6.1826035e-04 
-1.4661598e+00 0.0000000e+00 2.6313172e-04 
-1.4786236e+00 0.0000000e+00 -9.1996946e-05 
-1.4871202e+00 0.0000000e+00 -1.6255231e-04 
-1.4941583e+00 0.0000000e+00 -2.3310767e-04 
-1.4997816e+00 0.0000000e+00 -3.0366302e-04 
-1.5040338e+00 0.0000000e+00 -3.7421839e-04 
-1.5069584e+00 0.0000000e+00 -4.4477376e-04 
0.0000000e+00 0.0000000e+00 0.0000000e+00 
-1.0127297e-02 0.0000000e+00 -2.7262370e-14 
-2.0206720e-02 0.0000000e+00 -5.4524514e-14 
-3.0190399e-02 0.0000000e+00 -8.1787360e-14 
-4.0030461e-02 0.0000000e+00 -1.0905042e-13 
-4.9679030e-02 0.0000000e+00 -1.3631261e-13 
-6.2249675e-02 0.0000000e+00 -3.4038478e-04 
-8.1517726e-02 0.0000000e+00 -6.8076956e-04 
-1.0842798e-01 0.0000000e+00 -1.0211543e-03 
-1.4392519e-01 0.0000000e+00 -1.3615391e-03 
-1.8895417e-01 0.0000000e+00 -1.7019239e-03 
-2.5651175e-01 0.0000000e+00 -3.4151939e-03 
-3.5467377e-01 0.0000000e+00 -5.1284642e-03 
-4.7700340e-01 0.0000000e+00 -6.8417341e-03 
-6.1706388e-01 0.0000000e+00 -8.5550044e-03 
-7.6841849e-01 0.0000000e+00 -1.0268274e-02 
-9.1974020e-01 0.0000000e+00 -8.5513489e-03 
-1.0597022e+00 0.0000000e+00 -6.8344232e-03 
-1.1818676e+00 0.0000000e+00 -5.1174974e-03 
-1.2797999e+00 0.0000000e+00 -3.4005719e-03 
-1.3470625e+00 0.0000000e+00 -1.6836463e-03 
-1.3916311e+00 0.0000000e+00 -1.3285177e-03 
-1.4264023e+00 0.0000000e+00 -9.7338902e-04 
-1.4523194e+00 0.0000000e+00 -6.1826035e-04 
-1.4703261e+00 0.0000000e+00 -2.6313172e-04 
-1.4813658e+00 0.0000000e+00 9.1996946e-05 
-1.4887104e+00 0.0000000e+00 1.6255231e-04 
-1.4949735e+00 0.0000000e+00 2.3310767e-04 
-1.5001115e+00 0.0000000e+00 3.0366302e-04 
-1.5040805e+00 0.0000000e+00 3.7421839e-04 
-1.5068371e+00 0.0000000e+00 4.4477376e-04 
-5.1884931e-02 0.0000000e+00 1.0882563e-02 
-5.1333454e-02 0.0000000e+00 6.5207630e-03 
-5.0781980e-02 0.0000000e+00 -3.2823186e-03 
-5.0230503e-02 0.0000000e+00 -8.7235998e-03 
-1.7255071e-01 0.0000000e+00 2.5738474e-02 
-1.7665157e-01 0.0000000e+00 -2.1227321e-03 
-1.8075244e-01 0.0000000e+00 -4.2342596e-02 
-1.8485332e-01 0.0000000e+00 -5.5382028e-02 
-7.6841873e-01 0.0000000e+00 -5.0833356e-01 
-7.6841867e-01 0.0000000e+00 -6.7089850e-01 
-7.6841861e-01 0.0000000e+00 -5.7621616e-01 
-7.6841855e-01 0.0000000e+00 -3.2307622e-01 
-1.3634629e+00 0.0000000e+00 2.5406143e-02 
-1.3593628e+00 0.0000000e+00 -2.2890894e-03 
-1.3552628e+00 0.0000000e+00 -4.2182300e-02 
-1.3511626e+00 0.0000000e+00 -5.5053733e-02 
-1.4791720e+00 0.0000000e+00 9.2360871e-03 
-1.4797205e+00 0.0000000e+00 5.7228180e-03 
-1.4802690e+00 0.0000000e+00 -2.4360940e-03 
-1.4808173e+00 0.0000000e+00 -7.0449379e-03 
-1.5069340e+00 0.0000000e+00 1.8766723e-03 
-1.5069098e+00 0.0000000e+00 1.0943556e-03 
-1.5068856e+00 0.0000000e+00 -7.5972930e-04 
-1.5068614e+00 0.0000000e+00 -1.6535880e-03 
ADJOINT_ROTATION 3 86  float
0.0000000e+00 -1.7146353e-02 0.0000000e+00 
0.0000000e+00 -1.7186247e-02 0.0000000e+00 
0.0000000e+00 -1.7305927e-02 0.0000000e+00 
0.0000000e+00 -1.7505398e-02 0.0000000e+00 
0.0000000e+00 -1.7784653e-02 0.0000000e+00 
0.0000000e+00 -1.8143699e-02 0.0000000e+00 
0.0000000e+00 -2.8191755e-02 0.0000000e+00 
0.0000000e+00 -3.6665171e-02 0.0000000e+00 
0.0000000e+00 -4.3563955e-02 0.0000000e+00 
0.0000000e+00 -4.8888098e-02 0.0000000e+00 
0.0000000e+00 -5.2637603e-02 0.0000000e+00 
0.0000000e+00 -9.9062465e-02 0.0000000e+00 
0.0000000e+00 -1.5621528e-01 0.0000000e+00 
0.0000000e+00 -2.2409607e-01 0.0000000e+00 
0.0000000e+00 -3.0270481e-01 0.0000000e+00 
0.0000000e+00 -3.9204153e-01 0.0000000e+00 
0.0000000e+00 -3.0259508e-01 0.0000000e+00 
0.0000000e+00 -2.2387640e-01 0.0000000e+00 
0.0000000e+00 -1.5588553e-01 0.0000000e+00 
0.0000000e+00 -9.8622456e-02 0.0000000e+00 
0.0000000e+00 -5.2087177e-02 0.0000000e+00 
0.0000000e+00 -4.7895096e-02 0.0000000e+00 
0.0000000e+00 -4.2130392e-02 0.0000000e+00 
0.0000000e+00 -3.4793068e-02 0.0000000e+00 
0.0000000e+00 -2.5883123e-02 0.0000000e+00 
0.0000000e+00 -1.5400554e-02 0.0000000e+00 
0.0000000e+00 -1.2933471e-02 0.0000000e+00 
0.0000000e+00 -1.0539096e-02 0.0000000e+00 
0.0000000e+00 -8.2174288e-03 0.0000000e+00 
0.0000000e+00 -5.9684683e-03 0.0000000e+00 
0.0000000e+00 -3.7922158e-03 0.0000000e+00 
0.0000000e+00 -1.6892126e-02 0.0000000e+00 
0.0000000e+00 -1.6852232e-02 0.0000000e+00 
0.0000000e+00 -1.6732549e-02 0.0000000e+00 
0.0000000e+00 -1.6533080e-02 0.0000000e+00 
0.0000000e+00 -1.6253823e-02 0.0000000e+00 
0.0000000e+00 -1.5894778e-02 0.0000000e+00 
0.0000000e+00 -2.6269810e-02 0.0000000e+00 
0.0000000e+00 -3.8219478e-02 0.0000000e+00 
0.0000000e+00 -5.1743783e-02 0.0000000e+00 
0.0000000e+00 -6.6842727e-02 0.0000000e+00 
0.0000000e+00 -8.3516307e-02 0.0000000e+00 
0.0000000e+00 -1.3988765e-01 0.0000000e+00 
0.0000000e+00 -1.8553104e-01 0.0000000e+00 
0.0000000e+00 -2.2044645e-01 0.0000000e+00 
0.0000000e+00 -2.4463390e-01 0.0000000e+00 
0.0000000e+00 -2.5809339e-01 0.0000000e+00 
0.0000000e+00 -2.4452431e-01 0.0000000e+00 
0.0000000e+00 -2.2022745e-01 0.0000000e+00 
0.0000000e+00 -1.8520279e-01 0.0000000e+00 
0.0000000e+00 -1.3945034e-01 0.0000000e+00 
0.0000000e+00 -8.2970083e-02 0.0000000e+00 
0.0000000e+00 -6.5854445e-02 0.0000000e+00 
0.0000000e+00 -5.0311424e-02 0.0000000e+00 
0.0000000e+00 -3.6341030e-02 0.0000000e+00 
0.0000000e+00 -2.3943257e-02 0.0000000e+00 
0.0000000e+00 -1.3118107e-02 0.0000000e+00 
0.0000000e+00 -1.1351868e-02 0.0000000e+00 
0.0000000e+00 -9.5129209e-03 0.0000000e+00 
0.0000000e+00 -7.6012672e-03 0.0000000e+00 
0.0000000e+00 -5.6169056e-03 0.0000000e+00 
0.0000000e+00 -3.5598364e-03 0.0000000e+00 
0.0000000e+00 -1.3554455e-03 0.0000000e+00 
0.0000000e+00 7.2635729e-03 0.0000000e+00 
0.0000000e+00 7.7133570e-03 0.0000000e+00 
0.0000000e+00 -6.0935981e-06 0.0000000e+00 
0.0000000e+00 7.0851478e-03 0.0000000e+00 
0.0000000e+00 3.3858653e-02 0.0000000e+00 
0.0000000e+00 2.7682913e-02 0.0000000e+00 
0.0000000e+00 -1.1442073e-02 0.0000000e+00 
0.0000000e+00 2.7009872e-01 0.0000000e+00 
0.0000000e+00 1.4563641e-02 0.0000000e+00 
0.0000000e+00 -1.5864673e-01 0.0000000e+00 
0.0000000e+00 -2.4953240e-01 0.0000000e+00 
0.0000000e+00 7.1024941e-03 0.0000000e+00 
0.0000000e+00 3.3609036e-02 0.0000000e+00 
0.0000000e+00 2.7432457e-02 0.0000000e+00 
0.0000000e+00 -1.1427251e-02 0.0000000e+00 
0.0000000e+00 -1.2845465e-03 0.0000000e+00 
0.0000000e+00 6.0017020e-03 0.0000000e+00 
0.0000000e+00 6.4581917e-03 0.0000000e+00 
0.0000000e+00 8.4921936e-05 0.0000000e+00 
0.0000000e+00 -3.5908245e-04 0.0000000e+00 
0.0000000e+00 1.3807222e-03 0.0000000e+00 
0.0000000e+00 1.4271979e-03 0.0000000e+00 
0.0000000e+00 -2.1965483e-04 0.0000000e+00 
SHAPE_SENSITIVITY 3 86  float
0.0000000e+00 0.0000000e+00 0.0000000e+00 
0.0000000e+00 0.0000000e+00 0.0000000e+00 
0.0000000e+00 0.0000000e+00 0.0000000e+00 
0.0000000e+00 0.0000000e+00 0.0000000e+00 
0.0000000e+00 0.0000000e+00 0.0000000e+00 
0.0000000e+00 0.0000000e+00 0.0000000e+00 
0.0000000e+00 0.0000000e+00 0.0000000e+00 
0.0000000e+00 0.0000000e+00 0.0000000e+00 
0.0000000e+00 0.0000000e+00 0.0000000e+00 
0.0000000e+00 0.0000000e+00 0.0000000e+00 
0.0000000e+00 0.0000000e+00 0.0000000e+00 
0.0000000e+00 0.0000000e+00 0.0000000e+00 
0.0000000e+00 0.0000000e+00 0.0000000e+00 
0.0000000e+00 0.0000000e+00 0.0000000e+00 
0.0000000e+00 0.0000000e+00 0.0000000e+00 
0.0000000e+00 0.0000000e+00 0.0000000e+00 
0.0000000e+00 0.0000000e+00 0.0000000e+00 
0.0000000e+00 0.0000000e+00 0.0000000e+00 
0.0000000e+00 0.0000000e+00 0.0000000e+00 
0.0000000e+00 0.0000000e+00 0.0000000e+00 
0.0000000e+00 0.0000000e+00 0.0000000e+00 
0.0000000e+00 0.0000000e+00 0.0000000e+00 
0.0000000e+00 0.0000000e+00 0.0000000e+00 
0.0000000e+00 0.0000000e+00 0.0000000e+00 
0.0000000e+00 0.0000000e+00 0.0000000e+00 
0.0000000e+00 0.0000000e+00 0.0000000e+00 
0.0000000e+00 0.0000000e+00 0.0000000e+00 
0.0000000e+00 0.0000000e+00 0.0000000e+00 
0.0000000e+00 0.0000000e+00 0.0000000e+00 
0.0000000e+00 0.0000000e+00 0.0000000e+00 
0.0000000e+00 0.0000000e+00 0.0000000e+00 
0.0000000e+00 0.0000000e+00 0.0000000e+00 
0.0000000e+00 0.0000000e+00 0.0000000e+00 
0.0000000e+00 0.0000000e+00 0.0000000e+00 
0.0000000e+00 0.0000000e+00 0.0000000e+00 
0.0000000e+00 0.0000000e+00 0.0000000e+00 
0.0000000e+00 0.0000000e+00 0.0000000e+00 
0.0000000e+00 0.0000000e+00 0.0000000e+00 
0.0000000e+00 0.0000000e+00 0.0000000e+00 
0.0000000e+00 0.0000000e+00 0.0000000e+00 
0.0000000e+00 0.0000000e+00 0.0000000e+00 
0.0000000e+00 0.0000000e+00 0.0000000e+00 
0.0000000e+00 0.0000000e+00 0.0000000e+00 
0.0000000e+00 0.0000000e+00 0.0000000e+00 
0.0000000e+00 0.0000000e+00 0.0000000e+00 
0.0000000e+00 0.0000000e+00 0.0000000e+00 
0.0000000e+00 0.0000000e+00 0.0000000e+00 
0.0000000e+00 0.0000000e+00 0.0000000e+00 
0.0000000e+00 0.0000000e+00 0.0000000e+00 
0.0000000e+00 0.0000000e+00 0.0000000e+00 
0.0000000e+00 0.0000000e+00 0.0000000e+00 
0.0000000e+00 0.0000000e+00 0.0000000e+00 
0.0000000e+00 0.0000000e+00 0.0000000e+00 
0.0000000e+00 0.0000000e+00 0.0000000e+00 
0.0000000e+00 0.0000000e+00 0.0000000e+00 
0.0000000e+00 0.0000000e+00 0.0000000e+00 
0.0000000e+00 0.0000000e+00 0.0000000e+00 
0.0000000e+00 0.0000000e+00 0.0000000e+00 
0.0000000e+00 0.0000000e+00 0.0000000e+00 
0.0000000e+00 0.0000000e+00 0.0000000e+00 
0.0000000e+00 0.0000000e+00 0.0000000e+00 
0.0000000e+00 0.0000000e+00 0.0000000e+00 
0.0000000e+00 0.0000000e+00 0.0000000e+00 
0.0000000e+00 0.0000000e+00 0.0000000e+00 
0.0000000e+00 0.0000000e+00 0.0000000e+00 
0.0000000e+00 0.0000000e+00 0.0000000e+00 
0.0000000e+00 0.0000000e+00 0.0000000e+00 
0.0000000e+00 0.0000000e+00 0.0000000e+00 
0.0000000e+00 0.0000000e+00 0.0000000e+00 
0.0000000e+00 0.0000000e+00 0.0000000e+00 
0.0000000e+00 0.0000000e+00 0.0000000e+00 
0.0000000e+00 0.0000000e+00 0.0000000e+00 
0.0000000e+00 0.0000000e+00 0.0000000e+00 
0.0000000e+00 0.0000000e+00 0.0000000e+00 
0.0000000e+00 0.0000000e+00 0.0000000e+00 
0.0000000e+00 0.0000000e+00 0.0000000e+00 
0.0000000e+00 0.0000000e+00 0.0000000e+00 
0.0000000e+00 0.0000000e+00 0.0000000e+00 
0.0000000e+00 0.0000000e+00 0.0000000e+00 
0.0000000e+00 0.0000000e+00 0.0000000e+00 
0.0000000e+00 0.0000000e+00 0.0000000e+00 
0.0000000e+00 0.0000000e+00 0.0000000e+00 
0.0000000e+00 0.0000000e+00 0.0000000e+00 
0.0000000e+00 0.0000000e+00 0.0000000e+00 
0.0000000e+00 0.0000000e+00 0.0000000e+00 
0.0000000e+00 0.0000000e+00 0.0000000e+00 
CELL_DATA 90
FIELD FieldData 1
I22_SENSITIVITY 1 90  float
-4.4856122e-05
-3.1399471e-04
-8.5227145e-04
-1.6596871e-03
-2.7362420e-03
1.0628530e-01
4.8781138e-02
6.4957333e-03
-2.0570915e-02
-3.2418806e-02
4.0335992e-01
2.4504480e-01
-8.0385236e-03
-3.5589004e-01
-7.9850972e-01
-7.9439253e-01
-3.5105714e-01
-2.7184219e-03
2.5062364e-01
4.0896907e-01
-3.6873158e-02
-2.6479686e-02
-2.7546543e-03
3.4301940e-02
8.4690094e-02
-2.2923352e-02
-7.0949518e-03
7.8131193e-03
2.1800861e-02
3.4868274e-02
-4.4856773e-05
-3.1399549e-04
-8.5227244e-04
-1.6596890e-03
-2.7362434e-03
-1.0845509e-01
-6.7265399e-02
-1.0856946e-02
6.0770262e-02
1.4761622e-01
-4.9852279e-01
-2.0279981e-01
-1.8450026e-03
1.0434163e-01
1.1576007e-01
1.1595108e-01
1.0317544e-01
-4.5968490e-03
-2.0736578e-01
-5.0513136e-01
1.5337107e-01
7.3448770e-02
6.8580387e-03
-4.6401136e-02
-8.6328745e-02
1.6345533e-02
5.3813211e-03
-6.5032202e-03
-1.9308090e-02
-3.3033289e-02
1.7354004e-01
-6.6266470e-02
-6.5831360e-03
5.8497608e-02
-1.6511668e-01
6.7587346e-01
-1.7552418e-01
8.5142188e-02
2.7169967e-01
-8.0202466e-01
-3.5950050e+00
1.9228096e+00
2.3984106e+00
7.9548693e-01
7.7727996e-02
6.6525114e-01
-1.7579193e-01
8.5638545e-02
2.7295008e-01
-7.9044992e-01
1.6309293e-01
-4.7189791e-02
-6.1233109e-03
4.0421054e-02
-1.5342805e-01
2.8119892e-02
-1.7089125e-02
-7.8059715e-04
1.6085643e-02
-2.7450237e-02
