# vtk DataFile Version 4.0
vtk output
ASCII
DATASET UNSTRUCTURED_GRID
POINTS 30 float
0.0000000e+00 0.0000000e+00 0.0000000e+00 
0.0000000e+00 0.0000000e+00 8.0000001e-01 
0.0000000e+00 0.0000000e+00 1.6000000e+00 
0.0000000e+00 0.0000000e+00 2.4000001e+00 
0.0000000e+00 0.0000000e+00 3.2000000e+00 
0.0000000e+00 0.0000000e+00 4.0000000e+00 
0.0000000e+00 0.0000000e+00 4.8000002e+00 
0.0000000e+00 0.0000000e+00 5.5999999e+00 
0.0000000e+00 0.0000000e+00 6.4000001e+00 
0.0000000e+00 0.0000000e+00 7.1999998e+00 
0.0000000e+00 0.0000000e+00 8.0000000e+00 
1.0000000e+01 0.0000000e+00 0.0000000e+00 
1.0000000e+01 0.0000000e+00 8.0000001e-01 
1.0000000e+01 0.0000000e+00 1.6000000e+00 
1.0000000e+01 0.0000000e+00 2.4000001e+00 
1.0000000e+01 0.0000000e+00 3.2000000e+00 
1.0000000e+01 0.0000000e+00 4.0000000e+00 
1.0000000e+01 0.0000000e+00 4.8000002e+00 
1.0000000e+01 0.0000000e+00 5.5999999e+00 
1.0000000e+01 0.0000000e+00 6.4000001e+00 
1.0000000e+01 0.0000000e+00 7.1999998e+00 
1.0000000e+01 0.0000000e+00 8.0000000e+00 
2.0000000e+00 0.0000000e+00 4.0000000e+00 
4.0000000e+00 0.0000000e+00 4.0000000e+00 
6.0000000e+00 0.0000000e+00 4.0000000e+00 
8.0000000e+00 0.0000000e+00 4.0000000e+00 
2.0000000e+00 0.0000000e+00 8.0000000e+00 
4.0000000e+00 0.0000000e+00 8.0000000e+00 
6.0000000e+00 0.0000000e+00 8.0000000e+00 
8.0000000e+00 0.0000000e+00 8.0000000e+00 

CELLS 30 90
2 0 1
2 1 2
2 2 3
2 3 4
2 4 5
2 5 6
2 6 7
2 7 8
2 8 9
2 9 10
2 11 12
2 12 13
2 13 14
2 14 15
2 15 16
2 16 17
2 17 18
2 18 19
2 19 20
2 20 21
2 5 22
2 22 23
2 23 24
2 24 25
2 25 16
2 10 26
2 26 27
2 27 28
2 28 29
2 29 21

CELL_TYPES 30
3
3
3
3
3
3
3
3
3
3
3
3
3
3
3
3
3
3
3
3
3
3
3
3
3
3
3
3
3
3
POINT_DATA 30
FIELD FieldData 7
DISPLACEMENT 3 30  float
0.0000000e+00 0.0000000e+00 0.0000000e+00 
-6.0602375e-03 0.0000000e+00 -1.1415199e-05 
-1.1761915e-02 0.0000000e+00 -2.4758354e-05 
-1.6804120e-02 0.0000000e+00 -3.5152862e-05 
-2.0995257e-02 0.0000000e+00 -4.5547371e-05 
-2.4175279e-02 0.0000000e+00 -5.8458114e-05 
-2.6963145e-02 0.0000000e+00 -6.3537540e-05 
-2.9799061e-02 0.0000000e+00 -7.1008224e-05 
-3.2349434e-02 0.0000000e+00 -7.8009987e-05 
-3.4365449e-02 0.0000000e+00 -8.5011743e-05 
-3.5615530e-02 0.0000000e+00 -9.2013506e-05 
0.0000000e+00 0.0000000e+00 0.0000000e+00 
-5.7409108e-03 0.0000000e+00 -5.4316661e-06 
-1.1255939e-02 0.0000000e+00 -1.0863332e-05 
-1.6316993e-02 0.0000000e+00 -1.3538611e-05 
-2.0679278e-02 0.0000000e+00 -1.4064206e-05 
-2.4064282e-02 0.0000000e+00 -1.4589801e-05 
-2.6820129e-02 0.0000000e+00 -2.2833874e-05 
-2.9428812e-02 0.0000000e+00 -2.8212087e-05 
-3.1771421e-02 0.0000000e+00 -3.4577497e-05 
-3.3819415e-02 0.0000000e+00 -3.7883954e-05 
-3.5641674e-02 0.0000000e+00 -4.1190411e-05 
-2.4157623e-02 0.0000000e+00 2.3555688e-03 
-2.4132343e-02 0.0000000e+00 -1.9647433e-04 
-2.4101488e-02 0.0000000e+00 -3.3275061e-03 
-2.4078360e-02 0.0000000e+00 -3.8668520e-03 
-3.5629097e-02 0.0000000e+00 -4.5650592e-04 
-3.5634689e-02 0.0000000e+00 -2.7938783e-03 
-3.5640281e-02 0.0000000e+00 -4.4673416e-03 
-3.5636529e-02 0.0000000e+00 -3.5894336e-03 
ROTATION 3 30  float
0.0000000e+00 -7.6516815e-03 0.0000000e+00 
0.0000000e+00 -7.4225282e-03 0.0000000e+00 
0.0000000e+00 -6.7653861e-03 0.0000000e+00 
0.0000000e+00 -5.8054817e-03 0.0000000e+00 
0.0000000e+00 -4.6377247e-03 0.0000000e+00 
0.0000000e+00 -3.2854681e-03 0.0000000e+00 
0.0000000e+00 -3.5945692e-03 0.0000000e+00 
0.0000000e+00 -3.4254421e-03 0.0000000e+00 
0.0000000e+00 -2.9022391e-03 0.0000000e+00 
0.0000000e+00 -2.0895565e-03 0.0000000e+00 
0.0000000e+00 -9.8739436e-04 0.0000000e+00 
0.0000000e+00 -7.2231977e-03 0.0000000e+00 
0.0000000e+00 -7.0820209e-03 0.0000000e+00 
0.0000000e+00 -6.6584903e-03 0.0000000e+00 
0.0000000e+00 -5.9443279e-03 0.0000000e+00 
0.0000000e+00 -4.9017188e-03 0.0000000e+00 
0.0000000e+00 -3.5011268e-03 0.0000000e+00 
0.0000000e+00 -3.3755829e-03 0.0000000e+00 
0.0000000e+00 -3.1135280e-03 0.0000000e+00 
0.0000000e+00 -2.7376541e-03 0.0000000e+00 
0.0000000e+00 -2.4006164e-03 0.0000000e+00 
0.0000000e+00 -2.1733290e-03 0.0000000e+00 
0.0000000e+00 4.3636793e-04 0.0000000e+00 
0.0000000e+00 1.7470206e-03 0.0000000e+00 
0.0000000e+00 1.1001620e-03 0.0000000e+00 
0.0000000e+00 -6.4210244e-04 0.0000000e+00 
0.0000000e+00 9.6290023e-04 0.0000000e+00 
0.0000000e+00 1.1885904e-03 0.0000000e+00 
0.0000000e+00 2.9899125e-04 0.0000000e+00 
0.0000000e+00 -1.1912222e-03 0.0000000e+00 
REACTION 3 30  float
2.2557281e+04 -0.0000000e+00 2.9964896e+04 
-4.3655746e-11 -0.0000000e+00 7.2759576e-12 
-6.9667294e-10 -0.0000000e+00 -1.0913936e-11 
3.9581209e-09 -0.0000000e+00 1.4551915e-11 
3.8216967e-09 -0.0000000e+00 1.4551915e-11 
-1.6298145e-09 -0.0000000e+00 1.0913936e-11 
-1.8189894e-09 -0.0000000e+00 1.5206751e-09 
-6.8939698e-10 -0.0000000e+00 -1.3096724e-10 
-2.5611371e-09 -0.0000000e+00 8.7311491e-11 
1.1641532e-10 -0.0000000e+00 -0.0000000e+00 
4.1909516e-09 -0.0000000e+00 -2.1827873e-11 
1.3897088e+04 -0.0000000e+00 1.4258124e+04 
-9.3132257e-10 -0.0000000e+00 -8.0035534e-11 
-1.3678800e-09 -0.0000000e+00 -7.2759576e-11 
2.3937901e-09 -0.0000000e+00 1.6643753e-10 
2.7939677e-09 -0.0000000e+00 3.6379788e-10 
1.1954398e-08 -0.0000000e+00 2.1173037e-09 
-7.0631359e-09 -0.0000000e+00 -7.2759576e-12 
4.9722075e-09 -0.0000000e+00 1.0913936e-11 
-2.4265319e-09 -0.0000000e+00 2.5538611e-09 
-8.1490725e-10 -0.0000000e+00 -1.4551915e-11 
-0.0000000e+00 -0.0000000e+00 -8.1490725e-10 
-6.8030204e-10 -0.0000000e+00 -2.1973392e-09 
-2.2919266e-09 -0.0000000e+00 -8.3673513e-11 
-1.1059456e-09 -0.0000000e+00 2.0445441e-09 
-3.8744474e-09 -0.0000000e+00 -2.9103830e-11 
-4.4256012e-09 -0.0000000e+00 3.2741809e-11 
-0.0000000e+00 -0.0000000e+00 5.2750693e-11 
4.1291059e-09 -0.0000000e+00 -1.1614247e-09 
-4.5820343e-09 -0.0000000e+00 1.8189894e-11 
REACTION_MOMENT 3 30  float
-0.0000000e+00 -5.8207661e-10 -0.0000000e+00 
-0.0000000e+00 -9.3132257e-10 -0.0000000e+00 
-0.0000000e+00 -3.1432137e-09 -0.0000000e+00 
-0.0000000e+00 1.9790605e-09 -0.0000000e+00 
-0.0000000e+00 -2.9685907e-09 -0.0000000e+00 
-0.0000000e+00 -2.9540388e-09 -0.0000000e+00 
-0.0000000e+00 -1.1641532e-09 -0.0000000e+00 
-0.0000000e+00 2.2409949e-09 -0.0000000e+00 
-0.0000000e+00 1.9208528e-09 -0.0000000e+00 
-0.0000000e+00 3.4051482e-09 -0.0000000e+00 
-0.0000000e+00 2.2555469e-09 -0.0000000e+00 
-0.0000000e+00 -0.0000000e+00 -0.0000000e+00 
-0.0000000e+00 -0.0000000e+00 -0.0000000e+00 
-0.0000000e+00 -4.6566129e-10 -0.0000000e+00 
-0.0000000e+00 1.1641532e-10 -0.0000000e+00 
-0.0000000e+00 -4.6566129e-10 -0.0000000e+00 
-0.0000000e+00 -6.1118044e-10 -0.0000000e+00 
-0.0000000e+00 -1.1641532e-09 -0.0000000e+00 
-0.0000000e+00 -3.4051482e-09 -0.0000000e+00 
-0.0000000e+00 3.4633558e-09 -0.0000000e+00 
-0.0000000e+00 -1.2805685e-09 -0.0000000e+00 
-0.0000000e+00 1.9645086e-09 -0.0000000e+00 
-0.0000000e+00 -1.4551915e-10 -0.0000000e+00 
-0.0000000e+00 2.4010660e-10 -0.0000000e+00 
-0.0000000e+00 1.7462298e-10 -0.0000000e+00 
-0.0000000e+00 8.7311491e-11 -0.0000000e+00 
-0.0000000e+00 2.1827873e-11 -0.0000000e+00 
-0.0000000e+00 3.2741809e-11 -0.0000000e+00 
-0.0000000e+00 -3.6379788e-11 -0.0000000e+00 
-0.0000000e+00 5.8207661e-11 -0.0000000e+00 
VOLUME_ACCELERATION 3 30  float
0.0000000e+00 0.0000000e+00 0.0000000e+00 
0.0000000e+00 0.0000000e+00 0.0000000e+00 
0.0000000e+00 0.0000000e+00 0.0000000e+00 
0.0000000e+00 0.0000000e+00 0.0000000e+00 
0.0000000e+00 0.0000000e+00 0.0000000e+00 
0.0000000e+00 0.0000000e+00 0.0000000e+00 
0.0000000e+00 0.0000000e+00 0.0000000e+00 
0.0000000e+00 0.0000000e+00 0.0000000e+00 
0.0000000e+00 0.0000000e+00 0.0000000e+00 
0.0000000e+00 0.0000000e+00 0.0000000e+00 
0.0000000e+00 0.0000000e+00 0.0000000e+00 
0.0000000e+00 0.0000000e+00 0.0000000e+00 
0.0000000e+00 0.0000000e+00 0.0000000e+00 
0.0000000e+00 0.0000000e+00 0.0000000e+00 
0.0000000e+00 0.0000000e+00 0.0000000e+00 
0.0000000e+00 0.0000000e+00 0.0000000e+00 
0.0000000e+00 0.0000000e+00 0.0000000e+00 
0.0000000e+00 0.0000000e+00 0.0000000e+00 
0.0000000e+00 0.0000000e+00 0.0000000e+00 
0.0000000e+00 0.0000000e+00 0.0000000e+00 
0.0000000e+00 0.0000000e+00 0.0000000e+00 
0.0000000e+00 0.0000000e+00 0.0000000e+00 
0.0000000e+00 0.0000000e+00 0.0000000e+00 
0.0000000e+00 0.0000000e+00 0.0000000e+00 
0.0000000e+00 0.0000000e+00 0.0000000e+00 
0.0000000e+00 0.0000000e+00 0.0000000e+00 
0.0000000e+00 0.0000000e+00 0.0000000e+00 
0.0000000e+00 0.0000000e+00 0.0000000e+00 
0.0000000e+00 0.0000000e+00 0.0000000e+00 
0.0000000e+00 0.0000000e+00 0.0000000e+00 
POINT_LOAD 3 30  float
0.0000000e+00 0.0000000e+00 0.0000000e+00 
-2.9844106e+03 0.0000000e+00 5.0608848e+03 
-9.3426064e+03 0.0000000e+00 -7.7401963e+03 
0.0000000e+00 0.0000000e+00 0.0000000e+00 
-2.2988564e+03 0.0000000e+00 6.6051133e+03 
0.0000000e+00 0.0000000e+00 0.0000000e+00 
-5.8624570e+03 0.0000000e+00 6.2770679e+03 
-6.3587358e+03 0.0000000e+00 -1.2309434e+03 
0.0000000e+00 0.0000000e+00 0.0000000e+00 
0.0000000e+00 0.0000000e+00 0.0000000e+00 
0.0000000e+00 0.0000000e+00 0.0000000e+00 
0.0000000e+00 0.0000000e+00 0.0000000e+00 
0.0000000e+00 0.0000000e+00 0.0000000e+00 
8.1492114e+02 0.0000000e+00 -7.2355190e+03 
2.9074595e+03 0.0000000e+00 -5.6429175e+03 
0.0000000e+00 0.0000000e+00 0.0000000e+00 
9.7491357e+02 0.0000000e+00 6.5128062e+03 
5.8126602e+03 0.0000000e+00 -7.5228818e+03 
-8.0463877e+03 0.0000000e+00 2.5913911e+03 
-6.9806128e+03 0.0000000e+00 -8.0297485e+03 
0.0000000e+00 0.0000000e+00 0.0000000e+00 
0.0000000e+00 0.0000000e+00 0.0000000e+00 
-8.0059780e+03 0.0000000e+00 -3.1382747e+03 
-5.8542046e+03 0.0000000e+00 -4.0070593e+03 
8.1120918e+03 0.0000000e+00 -9.5711006e+03 
9.5038779e+03 0.0000000e+00 9.9074258e+03 
-8.3758906e+03 0.0000000e+00 -9.5967129e+03 
0.0000000e+00 0.0000000e+00 0.0000000e+00 
-9.8107744e+03 0.0000000e+00 -8.1061333e+03 
9.3406221e+03 0.0000000e+00 -9.3562217e+03 
POINT_MOMENT 3 30  float
0.0000000e+00 0.0000000e+00 0.0000000e+00 
0.0000000e+00 0.0000000e+00 0.0000000e+00 
0.0000000e+00 0.0000000e+00 0.0000000e+00 
0.0000000e+00 0.0000000e+00 0.0000000e+00 
0.0000000e+00 0.0000000e+00 0.0000000e+00 
0.0000000e+00 0.0000000e+00 0.0000000e+00 
0.0000000e+00 0.0000000e+00 0.0000000e+00 
0.0000000e+00 0.0000000e+00 0.0000000e+00 
0.0000000e+00 0.0000000e+00 0.0000000e+00 
0.0000000e+00 0.0000000e+00 0.0000000e+00 
0.0000000e+00 0.0000000e+00 0.0000000e+00 
0.0000000e+00 0.0000000e+00 0.0000000e+00 
0.0000000e+00 0.0000000e+00 0.0000000e+00 
0.0000000e+00 0.0000000e+00 0.0000000e+00 
0.0000000e+00 0.0000000e+00 0.0000000e+00 
0.0000000e+00 0.0000000e+00 0.0000000e+00 
0.0000000e+00 0.0000000e+00 0.0000000e+00 
0.0000000e+00 0.0000000e+00 0.0000000e+00 
0.0000000e+00 0.0000000e+00 0.0000000e+00 
0.0000000e+00 0.0000000e+00 0.0000000e+00 
0.0000000e+00 0.0000000e+00 0.0000000e+00 
0.0000000e+00 0.0000000e+00 0.0000000e+00 
0.0000000e+00 0.0000000e+00 0.0000000e+00 
0.0000000e+00 0.0000000e+00 0.0000000e+00 
0.0000000e+00 0.0000000e+00 0.0000000e+00 
0.0000000e+00 0.0000000e+00 0.0000000e+00 
0.0000000e+00 0.0000000e+00 0.0000000e+00 
0.0000000e+00 0.0000000e+00 0.0000000e+00 
0.0000000e+00 0.0000000e+00 0.0000000e+00 
0.0000000e+00 0.0000000e+00 0.0000000e+00 
CELL_DATA 30
FIELD FieldData 9
YOUNG_MODULUS 1 30  float
2.1000000e+11
2.1000000e+11
2.1000000e+11
2.1000000e+11
2.1000000e+11
2.1000000e+11
2.1000000e+11
2.1000000e+11
2.1000000e+11
2.1000000e+11
2.1000000e+11
2.1000000e+11
2.1000000e+11
2.1000000e+11
2.1000000e+11
2.1000000e+11
2.1000000e+11
2.1000000e+11
2.1000000e+11
2.1000000e+11
2.1000000e+11
2.1000000e+11
2.1000000e+11
2.1000000e+11
2.1000000e+11
2.1000000e+11
2.1000000e+11
2.1000000e+11
2.1000000e+11
2.1000000e+11
DENSITY 1 30  float
7.8500000e+03
7.8500000e+03
7.8500000e+03
7.8500000e+03
7.8500000e+03
7.8500000e+03
7.8500000e+03
7.8500000e+03
7.8500000e+03
7.8500000e+03
7.8500000e+03
7.8500000e+03
7.8500000e+03
7.8500000e+03
7.8500000e+03
7.8500000e+03
7.8500000e+03
7.8500000e+03
7.8500000e+03
7.8500000e+03
7.8500000e+03
7.8500000e+03
7.8500000e+03
7.8500000e+03
7.8500000e+03
7.8500000e+03
7.8500000e+03
7.8500000e+03
7.8500000e+03
7.8500000e+03
CROSS_AREA 1 30  float
9.9999998e-03
9.9999998e-03
9.9999998e-03
9.9999998e-03
9.9999998e-03
9.9999998e-03
9.9999998e-03
9.9999998e-03
9.9999998e-03
9.9999998e-03
9.9999998e-03
9.9999998e-03
9.9999998e-03
9.9999998e-03
9.9999998e-03
9.9999998e-03
9.9999998e-03
9.9999998e-03
9.9999998e-03
9.9999998e-03
9.9999998e-03
9.9999998e-03
9.9999998e-03
9.9999998e-03
9.9999998e-03
9.9999998e-03
9.9999998e-03
9.9999998e-03
9.9999998e-03
9.9999998e-03
I22 1 30  float
1.5000001e-04
1.5000001e-04
1.5000001e-04
1.5000001e-04
1.5000001e-04
1.5000001e-04
1.5000001e-04
1.5000001e-04
1.5000001e-04
1.5000001e-04
1.5000001e-04
1.5000001e-04
1.5000001e-04
1.5000001e-04
1.5000001e-04
1.5000001e-04
1.5000001e-04
1.5000001e-04
1.5000001e-04
1.5000001e-04
1.5000001e-04
1.5000001e-04
1.5000001e-04
1.5000001e-04
1.5000001e-04
1.5000001e-04
1.5000001e-04
1.5000001e-04
1.5000001e-04
1.5000001e-04
I33 1 30  float
1.5000001e-04
1.5000001e-04
1.5000001e-04
1.5000001e-04
1.5000001e-04
1.5000001e-04
1.5000001e-04
1.5000001e-04
1.5000001e-04
1.5000001e-04
1.5000001e-04
1.5000001e-04
1.5000001e-04
1.5000001e-04
1.5000001e-04
1.5000001e-04
1.5000001e-04
1.5000001e-04
1.5000001e-04
1.5000001e-04
1.5000001e-04
1.5000001e-04
1.5000001e-04
1.5000001e-04
1.5000001e-04
1.5000001e-04
1.5000001e-04
1.5000001e-04
1.5000001e-04
1.5000001e-04
TORSIONAL_INERTIA 1 30  float
3.0000001e-04
3.0000001e-04
3.0000001e-04
3.0000001e-04
3.0000001e-04
3.0000001e-04
3.0000001e-04
3.0000001e-04
3.0000001e-04
3.0000001e-04
3.0000001e-04
3.0000001e-04
3.0000001e-04
3.0000001e-04
3.0000001e-04
3.0000001e-04
3.0000001e-04
3.0000001e-04
3.0000001e-04
3.0000001e-04
3.0000001e-04
3.0000001e-04
3.0000001e-04
3.0000001e-04
3.0000001e-04
3.0000001e-04
3.0000001e-04
3.0000001e-04
3.0000001e-04
3.0000001e-04
POISSON_RATIO 1 30  float
3.0000001e-01
3.0000001e-01
3.0000001e-01
3.0000001e-01
3.0000001e-01
3.0000001e-01
3.0000001e-01
3.0000001e-01
3.0000001e-01
3.0000001e-01
3.0000001e-01
3.0000001e-01
3.0000001e-01
3.0000001e-01
3.0000001e-01
3.0000001e-01
3.0000001e-01
3.0000001e-01
3.0000001e-01
3.0000001e-01
3.0000001e-01
3.0000001e-01
3.0000001e-01
3.0000001e-01
3.0000001e-01
3.0000001e-01
3.0000001e-01
3.0000001e-01
3.0000001e-01
3.0000001e-01
MOMENT 3 30  float
0.0000000e+00 9.0229121e+03 0.0000000e+00 
0.0000000e+00 2.5874973e+04 0.0000000e+00 
0.0000000e+00 3.7796227e+04 0.0000000e+00 
0.0000000e+00 4.5980438e+04 0.0000000e+00 
0.0000000e+00 5.3245105e+04 0.0000000e+00 
0.0000000e+00 -1.2170852e+04 0.0000000e+00 
0.0000000e+00 6.6593735e+03 0.0000000e+00 
0.0000000e+00 2.0601123e+04 0.0000000e+00 
0.0000000e+00 3.1999377e+04 0.0000000e+00 
0.0000000e+00 4.3397629e+04 0.0000000e+00 
0.0000000e+00 5.5588354e+03 0.0000000e+00 
0.0000000e+00 1.6676506e+04 0.0000000e+00 
0.0000000e+00 2.8120145e+04 0.0000000e+00 
0.0000000e+00 4.1052734e+04 0.0000000e+00 
0.0000000e+00 5.5148312e+04 0.0000000e+00 
0.0000000e+00 4.9432939e+03 0.0000000e+00 
0.0000000e+00 1.0318410e+04 0.0000000e+00 
0.0000000e+00 1.4800035e+04 0.0000000e+00 
0.0000000e+00 1.3270860e+04 0.0000000e+00 
0.0000000e+00 8.9494404e+03 0.0000000e+00 
0.0000000e+00 5.8618918e+04 0.0000000e+00 
0.0000000e+00 2.0642781e+04 0.0000000e+00 
0.0000000e+00 -1.0188023e+04 0.0000000e+00 
0.0000000e+00 -2.7440666e+04 0.0000000e+00 
0.0000000e+00 -4.5029633e+04 0.0000000e+00 
0.0000000e+00 3.0717141e+04 0.0000000e+00 
0.0000000e+00 3.5546206e+03 0.0000000e+00 
0.0000000e+00 -1.4011188e+04 0.0000000e+00 
0.0000000e+00 -2.3470861e+04 0.0000000e+00 
0.0000000e+00 -1.5468182e+04 0.0000000e+00 
FORCE 3 30  float
-2.9964896e+04 0.0000000e+00 2.2557281e+04 
-3.5025781e+04 0.0000000e+00 1.9572869e+04 
-2.7285584e+04 0.0000000e+00 1.0230264e+04 
-2.7285584e+04 0.0000000e+00 1.0230264e+04 
-3.3890699e+04 0.0000000e+00 7.9314067e+03 
-1.3333492e+04 0.0000000e+00 2.6469010e+04 
-1.9610561e+04 0.0000000e+00 2.0606553e+04 
-1.8379617e+04 0.0000000e+00 1.4247817e+04 
-1.8379617e+04 0.0000000e+00 1.4247817e+04 
-1.8379617e+04 0.0000000e+00 1.4247817e+04 
-1.4258124e+04 0.0000000e+00 1.3897088e+04 
-1.4258124e+04 0.0000000e+00 1.3897088e+04 
-7.0226050e+03 0.0000000e+00 1.4712010e+04 
-1.3796875e+03 0.0000000e+00 1.7619469e+04 
-1.3796875e+03 0.0000000e+00 1.7619469e+04 
-2.1640691e+04 0.0000000e+00 3.8125654e+03 
-1.4117809e+04 0.0000000e+00 9.6252256e+03 
-1.6709199e+04 0.0000000e+00 1.5788375e+03 
-8.6794512e+03 0.0000000e+00 -5.4017749e+03 
-8.6794512e+03 0.0000000e+00 -5.4017749e+03 
1.8537604e+04 0.0000000e+00 -2.0557205e+04 
2.6543582e+04 0.0000000e+00 -1.7418932e+04 
3.2397787e+04 0.0000000e+00 -1.3411872e+04 
2.4285695e+04 0.0000000e+00 -3.8407710e+03 
1.4781817e+04 0.0000000e+00 -1.3748197e+04 
-1.4247817e+04 0.0000000e+00 -1.8379617e+04 
-5.8719272e+03 0.0000000e+00 -8.7829043e+03 
-5.8719272e+03 0.0000000e+00 -8.7829043e+03 
3.9388467e+03 0.0000000e+00 -6.7677051e+02 
-5.4017749e+03 0.0000000e+00 8.6794512e+03 
