# vtk DataFile Version 4.0
vtk output
ASCII
DATASET UNSTRUCTURED_GRID
POINTS 11 float
0.0000000e+00 0.0000000e+00 0.0000000e+00 
1.0000000e-01 0.0000000e+00 0.0000000e+00 
2.0000000e-01 0.0000000e+00 0.0000000e+00 
3.0000001e-01 0.0000000e+00 0.0000000e+00 
4.0000001e-01 0.0000000e+00 0.0000000e+00 
5.0000000e-01 0.0000000e+00 0.0000000e+00 
6.0000002e-01 0.0000000e+00 0.0000000e+00 
6.9999999e-01 0.0000000e+00 0.0000000e+00 
8.0000001e-01 0.0000000e+00 0.0000000e+00 
8.9999998e-01 0.0000000e+00 0.0000000e+00 
1.0000000e+00 0.0000000e+00 0.0000000e+00 

CELLS 10 30
2 0 1
2 1 2
2 2 3
2 3 4
2 4 5
2 5 6
2 6 7
2 7 8
2 8 9
2 9 10

CELL_TYPES 10
3
3
3
3
3
3
3
3
3
3
POINT_DATA 11
FIELD FieldData 5
DISPLACEMENT 3 11  float
0.0000000e+00 0.0000000e+00 0.0000000e+00 
0.0000000e+00 -3.3750001e-04 0.0000000e+00 
0.0000000e+00 -1.0666667e-03 0.0000000e+00 
0.0000000e+00 -1.8375000e-03 0.0000000e+00 
0.0000000e+00 -2.4000001e-03 0.0000000e+00 
0.0000000e+00 -2.6041667e-03 0.0000000e+00 
0.0000000e+00 -2.4000001e-03 0.0000000e+00 
0.0000000e+00 -1.8375000e-03 0.0000000e+00 
0.0000000e+00 -1.0666667e-03 0.0000000e+00 
0.0000000e+00 -3.3750001e-04 0.0000000e+00 
0.0000000e+00 0.0000000e+00 0.0000000e+00 
ROTATION 3 11  float
0.0000000e+00 0.0000000e+00 0.0000000e+00 
0.0000000e+00 0.0000000e+00 -6.0000001e-03 
0.0000000e+00 0.0000000e+00 -8.0000004e-03 
0.0000000e+00 0.0000000e+00 -7.0000002e-03 
0.0000000e+00 0.0000000e+00 -4.0000002e-03 
0.0000000e+00 0.0000000e+00 6.9388939e-17 
0.0000000e+00 0.0000000e+00 4.0000002e-03 
0.0000000e+00 0.0000000e+00 7.0000002e-03 
0.0000000e+00 0.0000000e+00 8.0000004e-03 
0.0000000e+00 0.0000000e+00 6.0000001e-03 
0.0000000e+00 0.0000000e+00 0.0000000e+00 
REACTION 3 11  float
-0.0000000e+00 5.0000030e-01 -0.0000000e+00 
-0.0000000e+00 1.6139572e-06 -0.0000000e+00 
-0.0000000e+00 2.8146303e-06 -0.0000000e+00 
-0.0000000e+00 2.2764473e-06 -0.0000000e+00 
-0.0000000e+00 8.9521933e-07 -0.0000000e+00 
-0.0000000e+00 2.0841992e-07 -0.0000000e+00 
-0.0000000e+00 8.9521933e-07 -0.0000000e+00 
-0.0000000e+00 2.2764473e-06 -0.0000000e+00 
-0.0000000e+00 2.8146303e-06 -0.0000000e+00 
-0.0000000e+00 1.6139572e-06 -0.0000000e+00 
-0.0000000e+00 5.0000030e-01 -0.0000000e+00 
REACTION_MOMENT 3 11  float
-0.0000000e+00 -0.0000000e+00 8.2500003e-02 
-0.0000000e+00 -0.0000000e+00 2.7755576e-17 
-0.0000000e+00 -0.0000000e+00 -3.8857806e-16 
-0.0000000e+00 -0.0000000e+00 -8.3266727e-17 
-0.0000000e+00 -0.0000000e+00 -1.1102230e-16 
-0.0000000e+00 -0.0000000e+00 6.1062266e-16 
-0.0000000e+00 -0.0000000e+00 -8.3266727e-17 
-0.0000000e+00 -0.0000000e+00 8.3266727e-17 
-0.0000000e+00 -0.0000000e+00 -1.6653345e-16 
-0.0000000e+00 -0.0000000e+00 -0.0000000e+00 
-0.0000000e+00 -0.0000000e+00 -8.2500003e-02 
LINE_LOAD 3 11  float
0.0000000e+00 -1.0000000e+00 0.0000000e+00 
0.0000000e+00 -1.0000000e+00 0.0000000e+00 
0.0000000e+00 -1.0000000e+00 0.0000000e+00 
0.0000000e+00 -1.0000000e+00 0.0000000e+00 
0.0000000e+00 -1.0000000e+00 0.0000000e+00 
0.0000000e+00 -1.0000000e+00 0.0000000e+00 
0.0000000e+00 -1.0000000e+00 0.0000000e+00 
0.0000000e+00 -1.0000000e+00 0.0000000e+00 
0.0000000e+00 -1.0000000e+00 0.0000000e+00 
0.0000000e+00 -1.0000000e+00 0.0000000e+00 
0.0000000e+00 -1.0000000e+00 0.0000000e+00 
CELL_DATA 10
FIELD FieldData 3
CROSS_AREA 1 10  float
0.0000000e+00
0.0000000e+00
0.0000000e+00
0.0000000e+00
0.0000000e+00
0.0000000e+00
0.0000000e+00
0.0000000e+00
0.0000000e+00
0.0000000e+00
I22 1 10  float
0.0000000e+00
0.0000000e+00
0.0000000e+00
0.0000000e+00
0.0000000e+00
0.0000000e+00
0.0000000e+00
0.0000000e+00
0.0000000e+00
0.0000000e+00
I33 1 10  float
0.0000000e+00
0.0000000e+00
0.0000000e+00
0.0000000e+00
0.0000000e+00
0.0000000e+00
0.0000000e+00
0.0000000e+00
0.0000000e+00
0.0000000e+00
