# vtk DataFile Version 4.0
vtk output
ASCII
DATASET UNSTRUCTURED_GRID
POINTS 11 float
0.0000000e+00 0.0000000e+00 0.0000000e+00 
1.0000000e-01 0.0000000e+00 0.0000000e+00 
2.0000000e-01 0.0000000e+00 0.0000000e+00 
3.0000001e-01 0.0000000e+00 0.0000000e+00 
4.0000001e-01 0.0000000e+00 0.0000000e+00 
5.0000000e-01 0.0000000e+00 0.0000000e+00 
6.0000002e-01 0.0000000e+00 0.0000000e+00 
6.9999999e-01 0.0000000e+00 0.0000000e+00 
8.0000001e-01 0.0000000e+00 0.0000000e+00 
8.9999998e-01 0.0000000e+00 0.0000000e+00 
1.0000000e+00 0.0000000e+00 0.0000000e+00 

CELLS 10 30
2 0 1
2 1 2
2 2 3
2 3 4
2 4 5
2 5 6
2 6 7
2 7 8
2 8 9
2 9 10

CELL_TYPES 10
3
3
3
3
3
3
3
3
3
3
POINT_DATA 11
FIELD FieldData 5
DISPLACEMENT 3 11  float
0.0000000e+00 0.0000000e+00 0.0000000e+00 
0.0000000e+00 -1.6071428e-05 0.0000000e+00 
0.0000000e+00 -5.0793649e-05 0.0000000e+00 
0.0000000e+00 -8.7499997e-05 0.0000000e+00 
0.0000000e+00 -1.1428571e-04 0.0000000e+00 
0.0000000e+00 -1.2400794e-04 0.0000000e+00 
0.0000000e+00 -1.1428571e-04 0.0000000e+00 
0.0000000e+00 -8.7499997e-05 0.0000000e+00 
0.0000000e+00 -5.0793649e-05 0.0000000e+00 
0.0000000e+00 -1.6071428e-05 0.0000000e+00 
0.0000000e+00 0.0000000e+00 0.0000000e+00 
ROTATION 3 11  float
0.0000000e+00 0.0000000e+00 0.0000000e+00 
0.0000000e+00 0.0000000e+00 -2.8571428e-04 
0.0000000e+00 0.0000000e+00 -3.8095238e-04 
0.0000000e+00 0.0000000e+00 -3.3333333e-04 
0.0000000e+00 0.0000000e+00 -1.9047619e-04 
0.0000000e+00 0.0000000e+00 -1.7550363e-18 
0.0000000e+00 0.0000000e+00 1.9047619e-04 
0.0000000e+00 0.0000000e+00 3.3333333e-04 
0.0000000e+00 0.0000000e+00 3.8095238e-04 
0.0000000e+00 0.0000000e+00 2.8571428e-04 
0.0000000e+00 0.0000000e+00 0.0000000e+00 
REACTION 3 11  float
-0.0000000e+00 5.0000000e-01 -0.0000000e+00 
-0.0000000e+00 3.6598100e-09 -0.0000000e+00 
-0.0000000e+00 6.3824768e-09 -0.0000000e+00 
-0.0000000e+00 5.1620828e-09 -0.0000000e+00 
-0.0000000e+00 2.0299959e-09 -0.0000000e+00 
-0.0000000e+00 4.7260740e-10 -0.0000000e+00 
-0.0000000e+00 2.0299897e-09 -0.0000000e+00 
-0.0000000e+00 5.1620792e-09 -0.0000000e+00 
-0.0000000e+00 6.3824701e-09 -0.0000000e+00 
-0.0000000e+00 3.6598091e-09 -0.0000000e+00 
-0.0000000e+00 5.0000000e-01 -0.0000000e+00 
REACTION_MOMENT 3 11  float
-0.0000000e+00 -0.0000000e+00 8.2500003e-02 
-0.0000000e+00 -0.0000000e+00 -9.7144515e-16 
-0.0000000e+00 -0.0000000e+00 -1.9428903e-15 
-0.0000000e+00 -0.0000000e+00 -3.3306691e-16 
-0.0000000e+00 -0.0000000e+00 -2.9143354e-16 
-0.0000000e+00 -0.0000000e+00 -2.7755576e-16 
-0.0000000e+00 -0.0000000e+00 -9.7144515e-16 
-0.0000000e+00 -0.0000000e+00 -1.6653345e-16 
-0.0000000e+00 -0.0000000e+00 3.3306691e-16 
-0.0000000e+00 -0.0000000e+00 -3.3306691e-16 
-0.0000000e+00 -0.0000000e+00 -8.2500003e-02 
LINE_LOAD 3 11  float
0.0000000e+00 -1.0000000e+00 0.0000000e+00 
0.0000000e+00 -1.0000000e+00 0.0000000e+00 
0.0000000e+00 -1.0000000e+00 0.0000000e+00 
0.0000000e+00 -1.0000000e+00 0.0000000e+00 
0.0000000e+00 -1.0000000e+00 0.0000000e+00 
0.0000000e+00 -1.0000000e+00 0.0000000e+00 
0.0000000e+00 -1.0000000e+00 0.0000000e+00 
0.0000000e+00 -1.0000000e+00 0.0000000e+00 
0.0000000e+00 -1.0000000e+00 0.0000000e+00 
0.0000000e+00 -1.0000000e+00 0.0000000e+00 
0.0000000e+00 -1.0000000e+00 0.0000000e+00 
CELL_DATA 10
FIELD FieldData 3
CROSS_AREA 1 10  float
0.0000000e+00
0.0000000e+00
0.0000000e+00
0.0000000e+00
0.0000000e+00
0.0000000e+00
0.0000000e+00
0.0000000e+00
0.0000000e+00
0.0000000e+00
I22 1 10  float
0.0000000e+00
0.0000000e+00
0.0000000e+00
0.0000000e+00
0.0000000e+00
0.0000000e+00
0.0000000e+00
0.0000000e+00
0.0000000e+00
0.0000000e+00
I33 1 10  float
0.0000000e+00
0.0000000e+00
0.0000000e+00
0.0000000e+00
0.0000000e+00
0.0000000e+00
0.0000000e+00
0.0000000e+00
0.0000000e+00
0.0000000e+00
