# vtk DataFile Version 4.0
vtk output
ASCII
DATASET UNSTRUCTURED_GRID
POINTS 212 float
0.0000000e+00 0.0000000e+00 0.0000000e+00 
0.0000000e+00 0.0000000e+00 2.5000000e-01 
0.0000000e+00 0.0000000e+00 5.0000000e-01 
0.0000000e+00 0.0000000e+00 7.5000000e-01 
0.0000000e+00 0.0000000e+00 1.0000000e+00 
0.0000000e+00 0.0000000e+00 1.2500000e+00 
0.0000000e+00 0.0000000e+00 1.5000000e+00 
0.0000000e+00 0.0000000e+00 1.7500000e+00 
0.0000000e+00 0.0000000e+00 2.0000000e+00 
0.0000000e+00 0.0000000e+00 2.2500000e+00 
0.0000000e+00 0.0000000e+00 2.5000000e+00 
0.0000000e+00 0.0000000e+00 2.7500000e+00 
0.0000000e+00 0.0000000e+00 3.0000000e+00 
0.0000000e+00 0.0000000e+00 3.2500000e+00 
0.0000000e+00 0.0000000e+00 3.5000000e+00 
0.0000000e+00 0.0000000e+00 3.7500000e+00 
0.0000000e+00 0.0000000e+00 4.0000000e+00 
0.0000000e+00 0.0000000e+00 4.2500000e+00 
0.0000000e+00 0.0000000e+00 4.5000000e+00 
0.0000000e+00 0.0000000e+00 4.7500000e+00 
0.0000000e+00 0.0000000e+00 5.0000000e+00 
0.0000000e+00 0.0000000e+00 5.2500000e+00 
0.0000000e+00 0.0000000e+00 5.5000000e+00 
0.0000000e+00 0.0000000e+00 5.7500000e+00 
0.0000000e+00 0.0000000e+00 6.0000000e+00 
0.0000000e+00 0.0000000e+00 6.2500000e+00 
0.0000000e+00 0.0000000e+00 6.5000000e+00 
0.0000000e+00 0.0000000e+00 6.7500000e+00 
0.0000000e+00 0.0000000e+00 7.0000000e+00 
0.0000000e+00 0.0000000e+00 7.2500000e+00 
0.0000000e+00 0.0000000e+00 7.5000000e+00 
0.0000000e+00 0.0000000e+00 7.7500000e+00 
0.0000000e+00 0.0000000e+00 8.0000000e+00 
0.0000000e+00 0.0000000e+00 8.2500000e+00 
0.0000000e+00 0.0000000e+00 8.5000000e+00 
0.0000000e+00 0.0000000e+00 8.7500000e+00 
0.0000000e+00 0.0000000e+00 9.0000000e+00 
0.0000000e+00 0.0000000e+00 9.2500000e+00 
0.0000000e+00 0.0000000e+00 9.5000000e+00 
0.0000000e+00 0.0000000e+00 9.7500000e+00 
0.0000000e+00 0.0000000e+00 1.0000000e+01 
0.0000000e+00 0.0000000e+00 1.0250000e+01 
0.0000000e+00 0.0000000e+00 1.0500000e+01 
0.0000000e+00 0.0000000e+00 1.0750000e+01 
0.0000000e+00 0.0000000e+00 1.1000000e+01 
0.0000000e+00 0.0000000e+00 1.1250000e+01 
0.0000000e+00 0.0000000e+00 1.1500000e+01 
0.0000000e+00 0.0000000e+00 1.1750000e+01 
0.0000000e+00 0.0000000e+00 1.2000000e+01 
0.0000000e+00 0.0000000e+00 1.2250000e+01 
0.0000000e+00 0.0000000e+00 1.2500000e+01 
0.0000000e+00 0.0000000e+00 1.2750000e+01 
0.0000000e+00 0.0000000e+00 1.3000000e+01 
0.0000000e+00 0.0000000e+00 1.3250000e+01 
0.0000000e+00 0.0000000e+00 1.3500000e+01 
0.0000000e+00 0.0000000e+00 1.3750000e+01 
0.0000000e+00 0.0000000e+00 1.4000000e+01 
0.0000000e+00 0.0000000e+00 1.4250000e+01 
0.0000000e+00 0.0000000e+00 1.4500000e+01 
0.0000000e+00 0.0000000e+00 1.4750000e+01 
0.0000000e+00 0.0000000e+00 1.5000000e+01 
0.0000000e+00 0.0000000e+00 1.5250000e+01 
0.0000000e+00 0.0000000e+00 1.5500000e+01 
0.0000000e+00 0.0000000e+00 1.5750000e+01 
0.0000000e+00 0.0000000e+00 1.6000000e+01 
0.0000000e+00 0.0000000e+00 1.6250000e+01 
0.0000000e+00 0.0000000e+00 1.6500000e+01 
0.0000000e+00 0.0000000e+00 1.6750000e+01 
0.0000000e+00 0.0000000e+00 1.7000000e+01 
0.0000000e+00 0.0000000e+00 1.7250000e+01 
0.0000000e+00 0.0000000e+00 1.7500000e+01 
0.0000000e+00 0.0000000e+00 1.7750000e+01 
0.0000000e+00 0.0000000e+00 1.8000000e+01 
5.0000000e-01 0.0000000e+00 3.0000000e+00 
5.0000000e-01 0.0000000e+00 6.0000000e+00 
5.0000000e-01 0.0000000e+00 9.0000000e+00 
5.0000000e-01 0.0000000e+00 1.2000000e+01 
5.0000000e-01 0.0000000e+00 1.5000000e+01 
5.0000000e-01 0.0000000e+00 1.8000000e+01 
1.0000000e+00 0.0000000e+00 3.0000000e+00 
1.0000000e+00 0.0000000e+00 6.0000000e+00 
1.0000000e+00 0.0000000e+00 9.0000000e+00 
1.0000000e+00 0.0000000e+00 1.2000000e+01 
1.0000000e+00 0.0000000e+00 1.5000000e+01 
1.0000000e+00 0.0000000e+00 1.8000000e+01 
1.5000000e+00 0.0000000e+00 3.0000000e+00 
1.5000000e+00 0.0000000e+00 6.0000000e+00 
1.5000000e+00 0.0000000e+00 9.0000000e+00 
1.5000000e+00 0.0000000e+00 1.2000000e+01 
1.5000000e+00 0.0000000e+00 1.5000000e+01 
1.5000000e+00 0.0000000e+00 1.8000000e+01 
2.0000000e+00 0.0000000e+00 3.0000000e+00 
2.0000000e+00 0.0000000e+00 6.0000000e+00 
2.0000000e+00 0.0000000e+00 9.0000000e+00 
2.0000000e+00 0.0000000e+00 1.2000000e+01 
2.0000000e+00 0.0000000e+00 1.5000000e+01 
2.0000000e+00 0.0000000e+00 1.8000000e+01 
2.5000000e+00 0.0000000e+00 3.0000000e+00 
2.5000000e+00 0.0000000e+00 6.0000000e+00 
2.5000000e+00 0.0000000e+00 9.0000000e+00 
2.5000000e+00 0.0000000e+00 1.2000000e+01 
2.5000000e+00 0.0000000e+00 1.5000000e+01 
2.5000000e+00 0.0000000e+00 1.8000000e+01 
3.0000000e+00 0.0000000e+00 3.0000000e+00 
3.0000000e+00 0.0000000e+00 6.0000000e+00 
3.0000000e+00 0.0000000e+00 9.0000000e+00 
3.0000000e+00 0.0000000e+00 1.2000000e+01 
3.0000000e+00 0.0000000e+00 1.5000000e+01 
3.0000000e+00 0.0000000e+00 1.8000000e+01 
3.5000000e+00 0.0000000e+00 3.0000000e+00 
3.5000000e+00 0.0000000e+00 6.0000000e+00 
3.5000000e+00 0.0000000e+00 9.0000000e+00 
3.5000000e+00 0.0000000e+00 1.2000000e+01 
3.5000000e+00 0.0000000e+00 1.5000000e+01 
3.5000000e+00 0.0000000e+00 1.8000000e+01 
4.0000000e+00 0.0000000e+00 3.0000000e+00 
4.0000000e+00 0.0000000e+00 6.0000000e+00 
4.0000000e+00 0.0000000e+00 9.0000000e+00 
4.0000000e+00 0.0000000e+00 1.2000000e+01 
4.0000000e+00 0.0000000e+00 1.5000000e+01 
4.0000000e+00 0.0000000e+00 1.8000000e+01 
4.5000000e+00 0.0000000e+00 3.0000000e+00 
4.5000000e+00 0.0000000e+00 6.0000000e+00 
4.5000000e+00 0.0000000e+00 9.0000000e+00 
4.5000000e+00 0.0000000e+00 1.2000000e+01 
4.5000000e+00 0.0000000e+00 1.5000000e+01 
4.5000000e+00 0.0000000e+00 1.8000000e+01 
5.0000000e+00 0.0000000e+00 3.0000000e+00 
5.0000000e+00 0.0000000e+00 6.0000000e+00 
5.0000000e+00 0.0000000e+00 9.0000000e+00 
5.0000000e+00 0.0000000e+00 1.2000000e+01 
5.0000000e+00 0.0000000e+00 1.5000000e+01 
5.0000000e+00 0.0000000e+00 1.8000000e+01 
5.5000000e+00 0.0000000e+00 3.0000000e+00 
5.5000000e+00 0.0000000e+00 6.0000000e+00 
5.5000000e+00 0.0000000e+00 9.0000000e+00 
5.5000000e+00 0.0000000e+00 1.2000000e+01 
5.5000000e+00 0.0000000e+00 1.5000000e+01 
5.5000000e+00 0.0000000e+00 1.8000000e+01 
6.0000000e+00 0.0000000e+00 0.0000000e+00 
6.0000000e+00 0.0000000e+00 2.5000000e-01 
6.0000000e+00 0.0000000e+00 5.0000000e-01 
6.0000000e+00 0.0000000e+00 7.5000000e-01 
6.0000000e+00 0.0000000e+00 1.0000000e+00 
6.0000000e+00 0.0000000e+00 1.2500000e+00 
6.0000000e+00 0.0000000e+00 1.5000000e+00 
6.0000000e+00 0.0000000e+00 1.7500000e+00 
6.0000000e+00 0.0000000e+00 2.0000000e+00 
6.0000000e+00 0.0000000e+00 2.2500000e+00 
6.0000000e+00 0.0000000e+00 2.5000000e+00 
6.0000000e+00 0.0000000e+00 2.7500000e+00 
6.0000000e+00 0.0000000e+00 3.0000000e+00 
6.0000000e+00 0.0000000e+00 3.2500000e+00 
6.0000000e+00 0.0000000e+00 3.5000000e+00 
6.0000000e+00 0.0000000e+00 3.7500000e+00 
6.0000000e+00 0.0000000e+00 4.0000000e+00 
6.0000000e+00 0.0000000e+00 4.2500000e+00 
6.0000000e+00 0.0000000e+00 4.5000000e+00 
6.0000000e+00 0.0000000e+00 4.7500000e+00 
6.0000000e+00 0.0000000e+00 5.0000000e+00 
6.0000000e+00 0.0000000e+00 5.2500000e+00 
6.0000000e+00 0.0000000e+00 5.5000000e+00 
6.0000000e+00 0.0000000e+00 5.7500000e+00 
6.0000000e+00 0.0000000e+00 6.0000000e+00 
6.0000000e+00 0.0000000e+00 6.2500000e+00 
6.0000000e+00 0.0000000e+00 6.5000000e+00 
6.0000000e+00 0.0000000e+00 6.7500000e+00 
6.0000000e+00 0.0000000e+00 7.0000000e+00 
6.0000000e+00 0.0000000e+00 7.2500000e+00 
6.0000000e+00 0.0000000e+00 7.5000000e+00 
6.0000000e+00 0.0000000e+00 7.7500000e+00 
6.0000000e+00 0.0000000e+00 8.0000000e+00 
6.0000000e+00 0.0000000e+00 8.2500000e+00 
6.0000000e+00 0.0000000e+00 8.5000000e+00 
6.0000000e+00 0.0000000e+00 8.7500000e+00 
6.0000000e+00 0.0000000e+00 9.0000000e+00 
6.0000000e+00 0.0000000e+00 9.2500000e+00 
6.0000000e+00 0.0000000e+00 9.5000000e+00 
6.0000000e+00 0.0000000e+00 9.7500000e+00 
6.0000000e+00 0.0000000e+00 1.0000000e+01 
6.0000000e+00 0.0000000e+00 1.0250000e+01 
6.0000000e+00 0.0000000e+00 1.0500000e+01 
6.0000000e+00 0.0000000e+00 1.0750000e+01 
6.0000000e+00 0.0000000e+00 1.1000000e+01 
6.0000000e+00 0.0000000e+00 1.1250000e+01 
6.0000000e+00 0.0000000e+00 1.1500000e+01 
6.0000000e+00 0.0000000e+00 1.1750000e+01 
6.0000000e+00 0.0000000e+00 1.2000000e+01 
6.0000000e+00 0.0000000e+00 1.2250000e+01 
6.0000000e+00 0.0000000e+00 1.2500000e+01 
6.0000000e+00 0.0000000e+00 1.2750000e+01 
6.0000000e+00 0.0000000e+00 1.3000000e+01 
6.0000000e+00 0.0000000e+00 1.3250000e+01 
6.0000000e+00 0.0000000e+00 1.3500000e+01 
6.0000000e+00 0.0000000e+00 1.3750000e+01 
6.0000000e+00 0.0000000e+00 1.4000000e+01 
6.0000000e+00 0.0000000e+00 1.4250000e+01 
6.0000000e+00 0.0000000e+00 1.4500000e+01 
6.0000000e+00 0.0000000e+00 1.4750000e+01 
6.0000000e+00 0.0000000e+00 1.5000000e+01 
6.0000000e+00 0.0000000e+00 1.5250000e+01 
6.0000000e+00 0.0000000e+00 1.5500000e+01 
6.0000000e+00 0.0000000e+00 1.5750000e+01 
6.0000000e+00 0.0000000e+00 1.6000000e+01 
6.0000000e+00 0.0000000e+00 1.6250000e+01 
6.0000000e+00 0.0000000e+00 1.6500000e+01 
6.0000000e+00 0.0000000e+00 1.6750000e+01 
6.0000000e+00 0.0000000e+00 1.7000000e+01 
6.0000000e+00 0.0000000e+00 1.7250000e+01 
6.0000000e+00 0.0000000e+00 1.7500000e+01 
6.0000000e+00 0.0000000e+00 1.7750000e+01 
6.0000000e+00 0.0000000e+00 1.8000000e+01 

CELLS 216 648
2 0 1
2 1 2
2 2 3
2 3 4
2 4 5
2 5 6
2 6 7
2 7 8
2 8 9
2 9 10
2 10 11
2 11 12
2 12 13
2 13 14
2 14 15
2 15 16
2 16 17
2 17 18
2 18 19
2 19 20
2 20 21
2 21 22
2 22 23
2 23 24
2 24 25
2 25 26
2 26 27
2 27 28
2 28 29
2 29 30
2 30 31
2 31 32
2 32 33
2 33 34
2 34 35
2 35 36
2 36 37
2 37 38
2 38 39
2 39 40
2 40 41
2 41 42
2 42 43
2 43 44
2 44 45
2 45 46
2 46 47
2 47 48
2 48 49
2 49 50
2 50 51
2 51 52
2 52 53
2 53 54
2 54 55
2 55 56
2 56 57
2 57 58
2 58 59
2 59 60
2 60 61
2 61 62
2 62 63
2 63 64
2 64 65
2 65 66
2 66 67
2 67 68
2 68 69
2 69 70
2 70 71
2 71 72
2 139 140
2 140 141
2 141 142
2 142 143
2 143 144
2 144 145
2 145 146
2 146 147
2 147 148
2 148 149
2 149 150
2 150 151
2 151 152
2 152 153
2 153 154
2 154 155
2 155 156
2 156 157
2 157 158
2 158 159
2 159 160
2 160 161
2 161 162
2 162 163
2 163 164
2 164 165
2 165 166
2 166 167
2 167 168
2 168 169
2 169 170
2 170 171
2 171 172
2 172 173
2 173 174
2 174 175
2 175 176
2 176 177
2 177 178
2 178 179
2 179 180
2 180 181
2 181 182
2 182 183
2 183 184
2 184 185
2 185 186
2 186 187
2 187 188
2 188 189
2 189 190
2 190 191
2 191 192
2 192 193
2 193 194
2 194 195
2 195 196
2 196 197
2 197 198
2 198 199
2 199 200
2 200 201
2 201 202
2 202 203
2 203 204
2 204 205
2 205 206
2 206 207
2 207 208
2 208 209
2 209 210
2 210 211
2 12 73
2 73 79
2 79 85
2 85 91
2 91 97
2 97 103
2 103 109
2 109 115
2 115 121
2 121 127
2 127 133
2 133 151
2 24 74
2 74 80
2 80 86
2 86 92
2 92 98
2 98 104
2 104 110
2 110 116
2 116 122
2 122 128
2 128 134
2 134 163
2 36 75
2 75 81
2 81 87
2 87 93
2 93 99
2 99 105
2 105 111
2 111 117
2 117 123
2 123 129
2 129 135
2 135 175
2 48 76
2 76 82
2 82 88
2 88 94
2 94 100
2 100 106
2 106 112
2 112 118
2 118 124
2 124 130
2 130 136
2 136 187
2 60 77
2 77 83
2 83 89
2 89 95
2 95 101
2 101 107
2 107 113
2 113 119
2 119 125
2 125 131
2 131 137
2 137 199
2 72 78
2 78 84
2 84 90
2 90 96
2 96 102
2 102 108
2 108 114
2 114 120
2 120 126
2 126 132
2 132 138
2 138 211

CELL_TYPES 216
3
3
3
3
3
3
3
3
3
3
3
3
3
3
3
3
3
3
3
3
3
3
3
3
3
3
3
3
3
3
3
3
3
3
3
3
3
3
3
3
3
3
3
3
3
3
3
3
3
3
3
3
3
3
3
3
3
3
3
3
3
3
3
3
3
3
3
3
3
3
3
3
3
3
3
3
3
3
3
3
3
3
3
3
3
3
3
3
3
3
3
3
3
3
3
3
3
3
3
3
3
3
3
3
3
3
3
3
3
3
3
3
3
3
3
3
3
3
3
3
3
3
3
3
3
3
3
3
3
3
3
3
3
3
3
3
3
3
3
3
3
3
3
3
3
3
3
3
3
3
3
3
3
3
3
3
3
3
3
3
3
3
3
3
3
3
3
3
3
3
3
3
3
3
3
3
3
3
3
3
3
3
3
3
3
3
3
3
3
3
3
3
3
3
3
3
3
3
3
3
3
3
3
3
3
3
3
3
3
3
3
3
3
3
3
3
POINT_DATA 212
FIELD FieldData 8
DISPLACEMENT 3 212  float
0.0000000e+00 0.0000000e+00 0.0000000e+00 
-3.2545213e-04 0.0000000e+00 -2.2933715e-05 
-6.3726900e-04 0.0000000e+00 -4.5709068e-05 
-9.2181534e-04 0.0000000e+00 -6.8326059e-05 
-1.1654559e-03 0.0000000e+00 -9.0784692e-05 
-1.3545554e-03 0.0000000e+00 -1.1308496e-04 
-1.4754785e-03 0.0000000e+00 -1.3522686e-04 
-1.5145902e-03 0.0000000e+00 -1.5721041e-04 
-1.4582550e-03 0.0000000e+00 -1.7903559e-04 
-1.2928377e-03 0.0000000e+00 -2.0070242e-04 
-1.0047029e-03 0.0000000e+00 -2.2221087e-04 
-5.8021559e-04 0.0000000e+00 -2.4356098e-04 
-5.7403777e-06 0.0000000e+00 -2.6475271e-04 
5.1138736e-04 0.0000000e+00 -2.8385094e-04 
7.8471832e-04 0.0000000e+00 -3.0279081e-04 
8.5921696e-04 0.0000000e+00 -3.2157233e-04 
7.7984785e-04 0.0000000e+00 -3.4019549e-04 
5.9157540e-04 0.0000000e+00 -3.5866027e-04 
3.3936414e-04 0.0000000e+00 -3.7696669e-04 
6.8178539e-05 0.0000000e+00 -3.9511477e-04 
-1.7701693e-04 0.0000000e+00 -4.1310446e-04 
-3.5125780e-04 0.0000000e+00 -4.3093579e-04 
-4.0957954e-04 0.0000000e+00 -4.4860877e-04 
-3.0701770e-04 0.0000000e+00 -4.6612340e-04 
1.3921826e-06 0.0000000e+00 -4.8347964e-04 
3.2366891e-04 0.0000000e+00 -4.9874239e-04 
4.6276581e-04 0.0000000e+00 -5.1384681e-04 
4.5604928e-04 0.0000000e+00 -5.2879279e-04 
3.4088569e-04 0.0000000e+00 -5.4358051e-04 
1.5464138e-04 0.0000000e+00 -5.5820978e-04 
-6.5317210e-05 0.0000000e+00 -5.7268073e-04 
-2.8162374e-04 0.0000000e+00 -5.8699329e-04 
-4.5691183e-04 0.0000000e+00 -6.0114753e-04 
-5.5381510e-04 0.0000000e+00 -6.1514339e-04 
-5.3496717e-04 0.0000000e+00 -6.2898087e-04 
-3.6300169e-04 0.0000000e+00 -6.4266002e-04 
-5.5225365e-07 0.0000000e+00 -6.5618078e-04 
3.5639651e-04 0.0000000e+00 -6.6760805e-04 
5.1386934e-04 0.0000000e+00 -6.7887694e-04 
5.1224662e-04 0.0000000e+00 -6.8998750e-04 
3.9190878e-04 0.0000000e+00 -7.0093968e-04 
1.9323621e-04 0.0000000e+00 -7.1173353e-04 
-4.3390683e-05 0.0000000e+00 -7.2236895e-04 
-2.7759146e-04 0.0000000e+00 -7.3284609e-04 
-4.6898576e-04 0.0000000e+00 -7.4316480e-04 
-5.7719316e-04 0.0000000e+00 -7.5332518e-04 
-5.6183321e-04 0.0000000e+00 -7.6332717e-04 
-3.8252556e-04 0.0000000e+00 -7.7317085e-04 
1.1102277e-06 0.0000000e+00 -7.8285614e-04 
3.9580438e-04 0.0000000e+00 -7.9044793e-04 
6.0424762e-04 0.0000000e+00 -7.9788134e-04 
6.6076103e-04 0.0000000e+00 -8.0515642e-04 
5.9966580e-04 0.0000000e+00 -8.1227312e-04 
4.5528304e-04 0.0000000e+00 -8.1923144e-04 
2.6193383e-04 0.0000000e+00 -8.2603144e-04 
5.3939337e-05 0.0000000e+00 -8.3267305e-04 
-1.3437933e-04 0.0000000e+00 -8.3915627e-04 
-2.6870103e-04 0.0000000e+00 -8.4548118e-04 
-3.1470464e-04 0.0000000e+00 -8.5164775e-04 
-2.3806906e-04 0.0000000e+00 -8.5765589e-04 
-4.4731401e-06 0.0000000e+00 -8.6350570e-04 
1.8451014e-04 0.0000000e+00 -8.6726202e-04 
1.4358315e-04 0.0000000e+00 -8.7085995e-04 
-6.8519956e-05 0.0000000e+00 -8.7429956e-04 
-3.9306504e-04 0.0000000e+00 -8.7758072e-04 
-7.7131792e-04 0.0000000e+00 -8.8070362e-04 
-1.1445445e-03 0.0000000e+00 -8.8366808e-04 
-1.4540105e-03 0.0000000e+00 -8.8647421e-04 
-1.6409820e-03 0.0000000e+00 -8.8912202e-04 
-1.6467246e-03 0.0000000e+00 -8.9161139e-04 
-1.4125044e-03 0.0000000e+00 -8.9394249e-04 
-8.7958691e-04 0.0000000e+00 -8.9611515e-04 
1.0761717e-05 0.0000000e+00 -8.9812948e-04 
-4.7836479e-06 0.0000000e+00 -2.3157347e-03 
1.1601522e-06 0.0000000e+00 -2.1170259e-03 
-4.6021137e-07 0.0000000e+00 -2.3700725e-03 
9.2518974e-07 0.0000000e+00 -2.5501219e-03 
-3.7276166e-06 0.0000000e+00 -2.3085750e-03 
8.9680980e-06 0.0000000e+00 -3.7459296e-03 
-3.8269186e-06 0.0000000e+00 -5.2611833e-03 
9.2812178e-07 0.0000000e+00 -4.7209361e-03 
-3.6816908e-07 0.0000000e+00 -5.0397199e-03 
7.4015179e-07 0.0000000e+00 -5.2634389e-03 
-2.9820933e-06 0.0000000e+00 -4.7582770e-03 
7.1744780e-06 0.0000000e+00 -7.3433202e-03 
-2.8701888e-06 0.0000000e+00 -8.3406745e-03 
6.9609138e-07 0.0000000e+00 -7.5347866e-03 
-2.7612683e-07 0.0000000e+00 -7.9046991e-03 
5.5511384e-07 0.0000000e+00 -8.1623839e-03 
-2.2365700e-06 0.0000000e+00 -7.4521876e-03 
5.3808585e-06 0.0000000e+00 -1.0929878e-02 
-1.9134593e-06 0.0000000e+00 -1.0962768e-02 
4.6406092e-07 0.0000000e+00 -9.9671371e-03 
-1.8408454e-07 0.0000000e+00 -1.0373571e-02 
3.7007590e-07 0.0000000e+00 -1.0655516e-02 
-1.4910466e-06 0.0000000e+00 -9.7988667e-03 
3.5872390e-06 0.0000000e+00 -1.3914162e-02 
-9.5672954e-07 0.0000000e+00 -1.2705008e-02 
2.3203046e-07 0.0000000e+00 -1.1595531e-02 
-9.2042264e-08 0.0000000e+00 -1.2023876e-02 
1.8503796e-07 0.0000000e+00 -1.2320379e-02 
-7.4552332e-07 0.0000000e+00 -1.1375858e-02 
1.7936195e-06 0.0000000e+00 -1.5873715e-02 
5.2262754e-15 0.0000000e+00 -1.3313918e-02 
8.6195386e-15 0.0000000e+00 -1.2166493e-02 
1.0542485e-14 0.0000000e+00 -1.2602142e-02 
1.1774103e-14 0.0000000e+00 -1.2903497e-02 
1.1998858e-14 0.0000000e+00 -1.1929685e-02 
1.1825172e-14 0.0000000e+00 -1.6555063e-02 
9.5672965e-07 0.0000000e+00 -1.2705008e-02 
-2.3203044e-07 0.0000000e+00 -1.1595531e-02 
9.2042285e-08 0.0000000e+00 -1.2023876e-02 
-1.8503793e-07 0.0000000e+00 -1.2320379e-02 
7.4552332e-07 0.0000000e+00 -1.1375858e-02 
-1.7936195e-06 0.0000000e+00 -1.5873715e-02 
1.9134593e-06 0.0000000e+00 -1.0962768e-02 
-4.6406089e-07 0.0000000e+00 -9.9671371e-03 
1.8408456e-07 0.0000000e+00 -1.0373571e-02 
-3.7007587e-07 0.0000000e+00 -1.0655516e-02 
1.4910466e-06 0.0000000e+00 -9.7988667e-03 
-3.5872390e-06 0.0000000e+00 -1.3914162e-02 
2.8701888e-06 0.0000000e+00 -8.3406745e-03 
-6.9609132e-07 0.0000000e+00 -7.5347866e-03 
2.7612683e-07 0.0000000e+00 -7.9046991e-03 
-5.5511384e-07 0.0000000e+00 -8.1623839e-03 
2.2365700e-06 0.0000000e+00 -7.4521876e-03 
-5.3808585e-06 0.0000000e+00 -1.0929878e-02 
3.8269186e-06 0.0000000e+00 -5.2611833e-03 
-9.2812178e-07 0.0000000e+00 -4.7209361e-03 
3.6816911e-07 0.0000000e+00 -5.0397199e-03 
-7.4015179e-07 0.0000000e+00 -5.2634389e-03 
2.9820933e-06 0.0000000e+00 -4.7582770e-03 
-7.1744780e-06 0.0000000e+00 -7.3433202e-03 
4.7836479e-06 0.0000000e+00 -2.3157347e-03 
-1.1601522e-06 0.0000000e+00 -2.1170259e-03 
4.6021140e-07 0.0000000e+00 -2.3700725e-03 
-9.2518974e-07 0.0000000e+00 -2.5501219e-03 
3.7276166e-06 0.0000000e+00 -2.3085750e-03 
-8.9680980e-06 0.0000000e+00 -3.7459296e-03 
0.0000000e+00 0.0000000e+00 0.0000000e+00 
3.2545213e-04 0.0000000e+00 -2.2933715e-05 
6.3726900e-04 0.0000000e+00 -4.5709068e-05 
9.2181534e-04 0.0000000e+00 -6.8326059e-05 
1.1654559e-03 0.0000000e+00 -9.0784692e-05 
1.3545554e-03 0.0000000e+00 -1.1308496e-04 
1.4754785e-03 0.0000000e+00 -1.3522686e-04 
1.5145902e-03 0.0000000e+00 -1.5721041e-04 
1.4582550e-03 0.0000000e+00 -1.7903559e-04 
1.2928377e-03 0.0000000e+00 -2.0070242e-04 
1.0047029e-03 0.0000000e+00 -2.2221087e-04 
5.8021559e-04 0.0000000e+00 -2.4356098e-04 
5.7403777e-06 0.0000000e+00 -2.6475271e-04 
-5.1138736e-04 0.0000000e+00 -2.8385094e-04 
-7.8471832e-04 0.0000000e+00 -3.0279081e-04 
-8.5921696e-04 0.0000000e+00 -3.2157233e-04 
-7.7984785e-04 0.0000000e+00 -3.4019549e-04 
-5.9157540e-04 0.0000000e+00 -3.5866027e-04 
-3.3936414e-04 0.0000000e+00 -3.7696669e-04 
-6.8178539e-05 0.0000000e+00 -3.9511477e-04 
1.7701693e-04 0.0000000e+00 -4.1310446e-04 
3.5125780e-04 0.0000000e+00 -4.3093579e-04 
4.0957954e-04 0.0000000e+00 -4.4860877e-04 
3.0701770e-04 0.0000000e+00 -4.6612340e-04 
-1.3921826e-06 0.0000000e+00 -4.8347964e-04 
-3.2366891e-04 0.0000000e+00 -4.9874239e-04 
-4.6276581e-04 0.0000000e+00 -5.1384681e-04 
-4.5604928e-04 0.0000000e+00 -5.2879279e-04 
-3.4088569e-04 0.0000000e+00 -5.4358051e-04 
-1.5464138e-04 0.0000000e+00 -5.5820978e-04 
6.5317210e-05 0.0000000e+00 -5.7268073e-04 
2.8162374e-04 0.0000000e+00 -5.8699329e-04 
4.5691183e-04 0.0000000e+00 -6.0114753e-04 
5.5381510e-04 0.0000000e+00 -6.1514339e-04 
5.3496717e-04 0.0000000e+00 -6.2898087e-04 
3.6300169e-04 0.0000000e+00 -6.4266002e-04 
5.5225365e-07 0.0000000e+00 -6.5618078e-04 
-3.5639651e-04 0.0000000e+00 -6.6760805e-04 
-5.1386934e-04 0.0000000e+00 -6.7887694e-04 
-5.1224662e-04 0.0000000e+00 -6.8998750e-04 
-3.9190878e-04 0.0000000e+00 -7.0093968e-04 
-1.9323621e-04 0.0000000e+00 -7.1173353e-04 
4.3390683e-05 0.0000000e+00 -7.2236895e-04 
2.7759146e-04 0.0000000e+00 -7.3284609e-04 
4.6898576e-04 0.0000000e+00 -7.4316480e-04 
5.7719316e-04 0.0000000e+00 -7.5332518e-04 
5.6183321e-04 0.0000000e+00 -7.6332717e-04 
3.8252556e-04 0.0000000e+00 -7.7317085e-04 
-1.1102277e-06 0.0000000e+00 -7.8285614e-04 
-3.9580438e-04 0.0000000e+00 -7.9044793e-04 
-6.0424762e-04 0.0000000e+00 -7.9788134e-04 
-6.6076103e-04 0.0000000e+00 -8.0515642e-04 
-5.9966580e-04 0.0000000e+00 -8.1227312e-04 
-4.5528304e-04 0.0000000e+00 -8.1923144e-04 
-2.6193383e-04 0.0000000e+00 -8.2603144e-04 
-5.3939337e-05 0.0000000e+00 -8.3267305e-04 
1.3437933e-04 0.0000000e+00 -8.3915627e-04 
2.6870103e-04 0.0000000e+00 -8.4548118e-04 
3.1470464e-04 0.0000000e+00 -8.5164775e-04 
2.3806906e-04 0.0000000e+00 -8.5765589e-04 
4.4731401e-06 0.0000000e+00 -8.6350570e-04 
-1.8451014e-04 0.0000000e+00 -8.6726202e-04 
-1.4358315e-04 0.0000000e+00 -8.7085995e-04 
6.8519956e-05 0.0000000e+00 -8.7429956e-04 
3.9306504e-04 0.0000000e+00 -8.7758072e-04 
7.7131792e-04 0.0000000e+00 -8.8070362e-04 
1.1445445e-03 0.0000000e+00 -8.8366808e-04 
1.4540105e-03 0.0000000e+00 -8.8647421e-04 
1.6409820e-03 0.0000000e+00 -8.8912202e-04 
1.6467246e-03 0.0000000e+00 -8.9161139e-04 
1.4125044e-03 0.0000000e+00 -8.9394249e-04 
8.7958691e-04 0.0000000e+00 -8.9611515e-04 
-1.0761717e-05 0.0000000e+00 -8.9812948e-04 
ROTATION 3 212  float
0.0000000e+00 -1.3108987e-03 0.0000000e+00 
0.0000000e+00 -1.2836282e-03 0.0000000e+00 
0.0000000e+00 -1.2018166e-03 0.0000000e+00 
0.0000000e+00 -1.0654640e-03 0.0000000e+00 
0.0000000e+00 -8.7457028e-04 0.0000000e+00 
0.0000000e+00 -6.2913552e-04 0.0000000e+00 
0.0000000e+00 -3.2915978e-04 0.0000000e+00 
0.0000000e+00 2.5357067e-05 0.0000000e+00 
0.0000000e+00 4.3441495e-04 0.0000000e+00 
0.0000000e+00 8.9801388e-04 0.0000000e+00 
0.0000000e+00 1.4161539e-03 0.0000000e+00 
0.0000000e+00 1.9888349e-03 0.0000000e+00 
0.0000000e+00 2.6160569e-03 0.0000000e+00 
0.0000000e+00 1.5509410e-03 0.0000000e+00 
0.0000000e+00 6.6568295e-04 0.0000000e+00 
0.0000000e+00 -3.9717215e-05 0.0000000e+00 
0.0000000e+00 -5.6525943e-04 0.0000000e+00 
0.0000000e+00 -9.1094372e-04 0.0000000e+00 
0.0000000e+00 -1.0767700e-03 0.0000000e+00 
0.0000000e+00 -1.0627385e-03 0.0000000e+00 
0.0000000e+00 -8.6884899e-04 0.0000000e+00 
0.0000000e+00 -4.9510156e-04 0.0000000e+00 
0.0000000e+00 5.8503832e-05 0.0000000e+00 
0.0000000e+00 7.9196715e-04 0.0000000e+00 
0.0000000e+00 1.7052884e-03 0.0000000e+00 
0.0000000e+00 8.9783635e-04 0.0000000e+00 
0.0000000e+00 2.3984982e-04 0.0000000e+00 
0.0000000e+00 -2.6867120e-04 0.0000000e+00 
0.0000000e+00 -6.2772672e-04 0.0000000e+00 
0.0000000e+00 -8.3731668e-04 0.0000000e+00 
0.0000000e+00 -8.9744118e-04 0.0000000e+00 
0.0000000e+00 -8.0810016e-04 0.0000000e+00 
0.0000000e+00 -5.6929362e-04 0.0000000e+00 
0.0000000e+00 -1.8102162e-04 0.0000000e+00 
0.0000000e+00 3.5671590e-04 0.0000000e+00 
0.0000000e+00 1.0439190e-03 0.0000000e+00 
0.0000000e+00 1.8805875e-03 0.0000000e+00 
0.0000000e+00 1.0019229e-03 0.0000000e+00 
0.0000000e+00 2.8477993e-04 0.0000000e+00 
0.0000000e+00 -2.7084141e-04 0.0000000e+00 
0.0000000e+00 -6.6494109e-04 0.0000000e+00 
0.0000000e+00 -8.9751917e-04 0.0000000e+00 
0.0000000e+00 -9.6857565e-04 0.0000000e+00 
0.0000000e+00 -8.7811041e-04 0.0000000e+00 
0.0000000e+00 -6.2612363e-04 0.0000000e+00 
0.0000000e+00 -2.1261517e-04 0.0000000e+00 
0.0000000e+00 3.6241490e-04 0.0000000e+00 
0.0000000e+00 1.0989666e-03 0.0000000e+00 
0.0000000e+00 1.9970399e-03 0.0000000e+00 
0.0000000e+00 1.1833940e-03 0.0000000e+00 
0.0000000e+00 5.0703256e-04 0.0000000e+00 
0.0000000e+00 -3.2044351e-05 0.0000000e+00 
0.0000000e+00 -4.3383677e-04 0.0000000e+00 
0.0000000e+00 -6.9834472e-04 0.0000000e+00 
0.0000000e+00 -8.2556816e-04 0.0000000e+00 
0.0000000e+00 -8.1550708e-04 0.0000000e+00 
0.0000000e+00 -6.6816149e-04 0.0000000e+00 
0.0000000e+00 -3.8353141e-04 0.0000000e+00 
0.0000000e+00 3.8383183e-05 0.0000000e+00 
0.0000000e+00 5.9758226e-04 0.0000000e+00 
0.0000000e+00 1.2940658e-03 0.0000000e+00 
0.0000000e+00 2.5695647e-04 0.0000000e+00 
0.0000000e+00 -5.4521632e-04 0.0000000e+00 
0.0000000e+00 -1.1124525e-03 0.0000000e+00 
0.0000000e+00 -1.4447520e-03 0.0000000e+00 
0.0000000e+00 -1.5421150e-03 0.0000000e+00 
0.0000000e+00 -1.4045413e-03 0.0000000e+00 
0.0000000e+00 -1.0320311e-03 0.0000000e+00 
0.0000000e+00 -4.2458423e-04 0.0000000e+00 
0.0000000e+00 4.1779922e-04 0.0000000e+00 
0.0000000e+00 1.4951193e-03 0.0000000e+00 
0.0000000e+00 2.8073760e-03 0.0000000e+00 
0.0000000e+00 4.3545691e-03 0.0000000e+00 
0.0000000e+00 5.2780686e-03 0.0000000e+00 
0.0000000e+00 4.5190947e-03 0.0000000e+00 
0.0000000e+00 4.6651773e-03 0.0000000e+00 
0.0000000e+00 4.7622211e-03 0.0000000e+00 
0.0000000e+00 4.1764094e-03 0.0000000e+00 
0.0000000e+00 6.7268289e-03 0.0000000e+00 
0.0000000e+00 6.2502506e-03 0.0000000e+00 
0.0000000e+00 5.6430716e-03 0.0000000e+00 
0.0000000e+00 5.7599377e-03 0.0000000e+00 
0.0000000e+00 5.8375727e-03 0.0000000e+00 
0.0000000e+00 5.3689233e-03 0.0000000e+00 
0.0000000e+00 7.4092587e-03 0.0000000e+00 
0.0000000e+00 5.8705686e-03 0.0000000e+00 
0.0000000e+00 5.4151844e-03 0.0000000e+00 
0.0000000e+00 5.5028340e-03 0.0000000e+00 
0.0000000e+00 5.5610603e-03 0.0000000e+00 
0.0000000e+00 5.2095731e-03 0.0000000e+00 
0.0000000e+00 6.7398250e-03 0.0000000e+00 
0.0000000e+00 4.4769892e-03 0.0000000e+00 
0.0000000e+00 4.1733994e-03 0.0000000e+00 
0.0000000e+00 4.2318325e-03 0.0000000e+00 
0.0000000e+00 4.2706500e-03 0.0000000e+00 
0.0000000e+00 4.0363255e-03 0.0000000e+00 
0.0000000e+00 5.0564930e-03 0.0000000e+00 
0.0000000e+00 2.4074775e-03 0.0000000e+00 
0.0000000e+00 2.2556828e-03 0.0000000e+00 
0.0000000e+00 2.2848994e-03 0.0000000e+00 
0.0000000e+00 2.3043079e-03 0.0000000e+00 
0.0000000e+00 2.1871456e-03 0.0000000e+00 
0.0000000e+00 2.6972296e-03 0.0000000e+00 
0.0000000e+00 -5.2874745e-16 0.0000000e+00 
0.0000000e+00 -3.7323350e-16 0.0000000e+00 
0.0000000e+00 -2.4882233e-16 0.0000000e+00 
0.0000000e+00 -1.3477877e-16 0.0000000e+00 
0.0000000e+00 2.0735194e-17 0.0000000e+00 
0.0000000e+00 9.6192792e-18 0.0000000e+00 
0.0000000e+00 -2.4074775e-03 0.0000000e+00 
0.0000000e+00 -2.2556828e-03 0.0000000e+00 
0.0000000e+00 -2.2848994e-03 0.0000000e+00 
0.0000000e+00 -2.3043079e-03 0.0000000e+00 
0.0000000e+00 -2.1871456e-03 0.0000000e+00 
0.0000000e+00 -2.6972296e-03 0.0000000e+00 
0.0000000e+00 -4.4769892e-03 0.0000000e+00 
0.0000000e+00 -4.1733994e-03 0.0000000e+00 
0.0000000e+00 -4.2318325e-03 0.0000000e+00 
0.0000000e+00 -4.2706500e-03 0.0000000e+00 
0.0000000e+00 -4.0363255e-03 0.0000000e+00 
0.0000000e+00 -5.0564930e-03 0.0000000e+00 
0.0000000e+00 -5.8705686e-03 0.0000000e+00 
0.0000000e+00 -5.4151844e-03 0.0000000e+00 
0.0000000e+00 -5.5028340e-03 0.0000000e+00 
0.0000000e+00 -5.5610603e-03 0.0000000e+00 
0.0000000e+00 -5.2095731e-03 0.0000000e+00 
0.0000000e+00 -6.7398250e-03 0.0000000e+00 
0.0000000e+00 -6.2502506e-03 0.0000000e+00 
0.0000000e+00 -5.6430716e-03 0.0000000e+00 
0.0000000e+00 -5.7599377e-03 0.0000000e+00 
0.0000000e+00 -5.8375727e-03 0.0000000e+00 
0.0000000e+00 -5.3689233e-03 0.0000000e+00 
0.0000000e+00 -7.4092587e-03 0.0000000e+00 
0.0000000e+00 -5.2780686e-03 0.0000000e+00 
0.0000000e+00 -4.5190947e-03 0.0000000e+00 
0.0000000e+00 -4.6651773e-03 0.0000000e+00 
0.0000000e+00 -4.7622211e-03 0.0000000e+00 
0.0000000e+00 -4.1764094e-03 0.0000000e+00 
0.0000000e+00 -6.7268289e-03 0.0000000e+00 
0.0000000e+00 1.3108987e-03 0.0000000e+00 
0.0000000e+00 1.2836282e-03 0.0000000e+00 
0.0000000e+00 1.2018166e-03 0.0000000e+00 
0.0000000e+00 1.0654640e-03 0.0000000e+00 
0.0000000e+00 8.7457028e-04 0.0000000e+00 
0.0000000e+00 6.2913552e-04 0.0000000e+00 
0.0000000e+00 3.2915978e-04 0.0000000e+00 
0.0000000e+00 -2.5357067e-05 0.0000000e+00 
0.0000000e+00 -4.3441495e-04 0.0000000e+00 
0.0000000e+00 -8.9801388e-04 0.0000000e+00 
0.0000000e+00 -1.4161539e-03 0.0000000e+00 
0.0000000e+00 -1.9888349e-03 0.0000000e+00 
0.0000000e+00 -2.6160569e-03 0.0000000e+00 
0.0000000e+00 -1.5509410e-03 0.0000000e+00 
0.0000000e+00 -6.6568295e-04 0.0000000e+00 
0.0000000e+00 3.9717215e-05 0.0000000e+00 
0.0000000e+00 5.6525943e-04 0.0000000e+00 
0.0000000e+00 9.1094372e-04 0.0000000e+00 
0.0000000e+00 1.0767700e-03 0.0000000e+00 
0.0000000e+00 1.0627385e-03 0.0000000e+00 
0.0000000e+00 8.6884899e-04 0.0000000e+00 
0.0000000e+00 4.9510156e-04 0.0000000e+00 
0.0000000e+00 -5.8503832e-05 0.0000000e+00 
0.0000000e+00 -7.9196715e-04 0.0000000e+00 
0.0000000e+00 -1.7052884e-03 0.0000000e+00 
0.0000000e+00 -8.9783635e-04 0.0000000e+00 
0.0000000e+00 -2.3984982e-04 0.0000000e+00 
0.0000000e+00 2.6867120e-04 0.0000000e+00 
0.0000000e+00 6.2772672e-04 0.0000000e+00 
0.0000000e+00 8.3731668e-04 0.0000000e+00 
0.0000000e+00 8.9744118e-04 0.0000000e+00 
0.0000000e+00 8.0810016e-04 0.0000000e+00 
0.0000000e+00 5.6929362e-04 0.0000000e+00 
0.0000000e+00 1.8102162e-04 0.0000000e+00 
0.0000000e+00 -3.5671590e-04 0.0000000e+00 
0.0000000e+00 -1.0439190e-03 0.0000000e+00 
0.0000000e+00 -1.8805875e-03 0.0000000e+00 
0.0000000e+00 -1.0019229e-03 0.0000000e+00 
0.0000000e+00 -2.8477993e-04 0.0000000e+00 
0.0000000e+00 2.7084141e-04 0.0000000e+00 
0.0000000e+00 6.6494109e-04 0.0000000e+00 
0.0000000e+00 8.9751917e-04 0.0000000e+00 
0.0000000e+00 9.6857565e-04 0.0000000e+00 
0.0000000e+00 8.7811041e-04 0.0000000e+00 
0.0000000e+00 6.2612363e-04 0.0000000e+00 
0.0000000e+00 2.1261517e-04 0.0000000e+00 
0.0000000e+00 -3.6241490e-04 0.0000000e+00 
0.0000000e+00 -1.0989666e-03 0.0000000e+00 
0.0000000e+00 -1.9970399e-03 0.0000000e+00 
0.0000000e+00 -1.1833940e-03 0.0000000e+00 
0.0000000e+00 -5.0703256e-04 0.0000000e+00 
0.0000000e+00 3.2044351e-05 0.0000000e+00 
0.0000000e+00 4.3383677e-04 0.0000000e+00 
0.0000000e+00 6.9834472e-04 0.0000000e+00 
0.0000000e+00 8.2556816e-04 0.0000000e+00 
0.0000000e+00 8.1550708e-04 0.0000000e+00 
0.0000000e+00 6.6816149e-04 0.0000000e+00 
0.0000000e+00 3.8353141e-04 0.0000000e+00 
0.0000000e+00 -3.8383183e-05 0.0000000e+00 
0.0000000e+00 -5.9758226e-04 0.0000000e+00 
0.0000000e+00 -1.2940658e-03 0.0000000e+00 
0.0000000e+00 -2.5695647e-04 0.0000000e+00 
0.0000000e+00 5.4521632e-04 0.0000000e+00 
0.0000000e+00 1.1124525e-03 0.0000000e+00 
0.0000000e+00 1.4447520e-03 0.0000000e+00 