# vtk DataFile Version 4.0
vtk output
ASCII
DATASET UNSTRUCTURED_GRID
POINTS 4 float
0.0000000e+00 0.0000000e+00 0.0000000e+00 
0.0000000e+00 2.0000000e+00 0.0000000e+00 
2.0000000e+00 2.0000000e+00 0.0000000e+00 
2.0000000e+00 0.0000000e+00 0.0000000e+00 

CELLS 3 9
2 0 1
2 1 2
2 2 3

CELL_TYPES 3
3
3
3
POINT_DATA 4
FIELD FieldData 6
DISPLACEMENT 3 4  float
0.0000000e+00 0.0000000e+00 0.0000000e+00 
2.0321416e-21 -3.3184006e-05 0.0000000e+00 
0.0000000e+00 -3.3184006e-05 0.0000000e+00 
0.0000000e+00 0.0000000e+00 0.0000000e+00 
REACTION 3 4  float
6.1233353e-13 1.0000166e+04 0.0000000e+00 
-6.1233353e-13 -1.6592276e-01 0.0000000e+00 
-1.8370006e-12 -1.6592276e-01 0.0000000e+00 
1.8370006e-12 1.0000166e+04 0.0000000e+00 
ROTATION 3 4  float
0.0000000e+00 0.0000000e+00 -2.8303275e-21 
0.0000000e+00 0.0000000e+00 -4.3545889e-22 
0.0000000e+00 0.0000000e+00 0.0000000e+00 
0.0000000e+00 0.0000000e+00 -4.5718523e-21 
REACTION_MOMENT 3 4  float
0.0000000e+00 0.0000000e+00 -1.2533354e-15 
0.0000000e+00 0.0000000e+00 1.0247195e-15 
0.0000000e+00 0.0000000e+00 2.6212584e-15 
0.0000000e+00 0.0000000e+00 -2.3926426e-15 
FORCE 3 4  float
-1.0000166e+04 0.0000000e+00 0.0000000e+00 
-5.0000415e+03 0.0000000e+00 0.0000000e+00 
-5.0000415e+03 0.0000000e+00 0.0000000e+00 
-1.0000166e+04 0.0000000e+00 0.0000000e+00 
MOMENT 3 4  float
0.0000000e+00 0.0000000e+00 -1.2533354e-15 
0.0000000e+00 0.0000000e+00 -7.4097140e-16 
0.0000000e+00 0.0000000e+00 1.0820024e-15 
0.0000000e+00 0.0000000e+00 2.3926426e-15 
CELL_DATA 3
FIELD FieldData 2
FORCE 3 3  float
-1.0000166e+04 0.0000000e+00 0.0000000e+00 
0.0000000e+00 0.0000000e+00 0.0000000e+00 
-1.0000166e+04 0.0000000e+00 0.0000000e+00 
MOMENT 3 3  float
0.0000000e+00 0.0000000e+00 -1.2533354e-15 
0.0000000e+00 0.0000000e+00 -2.2861594e-16 
0.0000000e+00 0.0000000e+00 2.3926426e-15 
