# vtk DataFile Version 4.0
vtk output
ASCII
DATASET UNSTRUCTURED_GRID
POINTS 30 float
0.0000000e+00 0.0000000e+00 0.0000000e+00 
0.0000000e+00 0.0000000e+00 8.0000001e-01 
0.0000000e+00 0.0000000e+00 1.6000000e+00 
0.0000000e+00 0.0000000e+00 2.4000001e+00 
0.0000000e+00 0.0000000e+00 3.2000000e+00 
0.0000000e+00 0.0000000e+00 4.0000000e+00 
0.0000000e+00 0.0000000e+00 4.8000002e+00 
0.0000000e+00 0.0000000e+00 5.5999999e+00 
0.0000000e+00 0.0000000e+00 6.4000001e+00 
0.0000000e+00 0.0000000e+00 7.1999998e+00 
0.0000000e+00 0.0000000e+00 8.0000000e+00 
1.0000000e+01 0.0000000e+00 0.0000000e+00 
1.0000000e+01 0.0000000e+00 8.0000001e-01 
1.0000000e+01 0.0000000e+00 1.6000000e+00 
1.0000000e+01 0.0000000e+00 2.4000001e+00 
1.0000000e+01 0.0000000e+00 3.2000000e+00 
1.0000000e+01 0.0000000e+00 4.0000000e+00 
1.0000000e+01 0.0000000e+00 4.8000002e+00 
1.0000000e+01 0.0000000e+00 5.5999999e+00 
1.0000000e+01 0.0000000e+00 6.4000001e+00 
1.0000000e+01 0.0000000e+00 7.1999998e+00 
1.0000000e+01 0.0000000e+00 8.0000000e+00 
2.0000000e+00 0.0000000e+00 4.0000000e+00 
4.0000000e+00 0.0000000e+00 4.0000000e+00 
6.0000000e+00 0.0000000e+00 4.0000000e+00 
8.0000000e+00 0.0000000e+00 4.0000000e+00 
2.0000000e+00 0.0000000e+00 8.0000000e+00 
4.0000000e+00 0.0000000e+00 8.0000000e+00 
6.0000000e+00 0.0000000e+00 8.0000000e+00 
8.0000000e+00 0.0000000e+00 8.0000000e+00 

CELLS 30 90
2 0 1
2 1 2
2 2 3
2 3 4
2 4 5
2 5 6
2 6 7
2 7 8
2 8 9
2 9 10
2 11 12
2 12 13
2 13 14
2 14 15
2 15 16
2 16 17
2 17 18
2 18 19
2 19 20
2 20 21
2 5 22
2 22 23
2 23 24
2 24 25
2 25 16
2 10 26
2 26 27
2 27 28
2 28 29
2 29 21

CELL_TYPES 30
3
3
3
3
3
3
3
3
3
3
3
3
3
3
3
3
3
3
3
3
3
3
3
3
3
3
3
3
3
3
POINT_DATA 30
FIELD FieldData 7
DISPLACEMENT 3 30  float
0.0000000e+00 0.0000000e+00 0.0000000e+00 
-6.3862628e-03 0.0000000e+00 -7.5789258e-06 
-1.2428380e-02 0.0000000e+00 -1.5157852e-05 
-1.7782202e-02 0.0000000e+00 -2.2736778e-05 
-2.2128077e-02 0.0000000e+00 -3.1648677e-05 
-2.5259366e-02 0.0000000e+00 -3.7540627e-05 
-2.7666911e-02 0.0000000e+00 -3.7428050e-05 
-2.9858395e-02 0.0000000e+00 -3.9356615e-05 
-3.1746589e-02 0.0000000e+00 -4.1285184e-05 
-3.3265099e-02 0.0000000e+00 -4.1454918e-05 
-3.4435902e-02 0.0000000e+00 -3.9939558e-05 
0.0000000e+00 0.0000000e+00 0.0000000e+00 
-6.2438548e-03 0.0000000e+00 1.3660854e-06 
-1.2146134e-02 0.0000000e+00 4.5909119e-06 
-1.7431729e-02 0.0000000e+00 6.2331396e-06 
-2.1880906e-02 0.0000000e+00 9.7256570e-06 
-2.5252672e-02 0.0000000e+00 1.5123830e-05 
-2.7907729e-02 0.0000000e+00 1.7341607e-05 
-3.0289823e-02 0.0000000e+00 2.2129621e-05 
-3.2240767e-02 0.0000000e+00 2.7346367e-05 
-3.3628993e-02 0.0000000e+00 3.5513818e-05 
-3.4410156e-02 0.0000000e+00 4.0857642e-05 
-2.5262460e-02 0.0000000e+00 2.9050275e-03 
-2.5263349e-02 0.0000000e+00 1.4840491e-03 
-2.5264239e-02 0.0000000e+00 -1.5750887e-03 
-2.5260886e-02 0.0000000e+00 -3.3523198e-03 
-3.4427222e-02 0.0000000e+00 1.8825202e-03 
-3.4424894e-02 0.0000000e+00 2.4568592e-03 
-3.4422565e-02 0.0000000e+00 1.8275634e-03 
-3.4415241e-02 0.0000000e+00 4.3466684e-04 
ROTATION 3 30  float
0.0000000e+00 -8.0545256e-03 0.0000000e+00 
0.0000000e+00 -7.8394338e-03 0.0000000e+00 
0.0000000e+00 -7.1941596e-03 0.0000000e+00 
0.0000000e+00 -6.1187013e-03 0.0000000e+00 
0.0000000e+00 -4.7049038e-03 0.0000000e+00 
0.0000000e+00 -3.1010495e-03 0.0000000e+00 
0.0000000e+00 -2.8945860e-03 0.0000000e+00 
0.0000000e+00 -2.5669613e-03 0.0000000e+00 
0.0000000e+00 -2.1363667e-03 0.0000000e+00 
0.0000000e+00 -1.6627099e-03 0.0000000e+00 
0.0000000e+00 -1.2977171e-03 0.0000000e+00 
0.0000000e+00 -7.8788130e-03 0.0000000e+00 
0.0000000e+00 -7.6568285e-03 0.0000000e+00 
0.0000000e+00 -7.0418762e-03 0.0000000e+00 
0.0000000e+00 -6.1301948e-03 0.0000000e+00 
0.0000000e+00 -4.9427398e-03 0.0000000e+00 
0.0000000e+00 -3.4273826e-03 0.0000000e+00 
0.0000000e+00 -3.1801749e-03 0.0000000e+00 
0.0000000e+00 -2.7412337e-03 0.0000000e+00 
0.0000000e+00 -2.1037790e-03 0.0000000e+00 
0.0000000e+00 -1.3655333e-03 0.0000000e+00 
0.0000000e+00 -5.6929904e-04 0.0000000e+00 
0.0000000e+00 -1.2909678e-04 0.0000000e+00 
0.0000000e+00 1.3350521e-03 0.0000000e+00 
0.0000000e+00 1.5090627e-03 0.0000000e+00 
0.0000000e+00 -1.1674978e-04 0.0000000e+00 
0.0000000e+00 -6.1919464e-04 0.0000000e+00 
0.0000000e+00 2.9297305e-05 0.0000000e+00 
0.0000000e+00 5.8444054e-04 0.0000000e+00 
0.0000000e+00 6.6622929e-04 0.0000000e+00 
REACTION 3 30  float
2.1173078e+04 -0.0000000e+00 1.9894680e+04 
-0.0000000e+00 -0.0000000e+00 -0.0000000e+00 
-2.3283064e-09 -0.0000000e+00 -1.0913936e-11 
4.3801265e-09 -0.0000000e+00 1.0913936e-11 
-2.9695002e-09 -0.0000000e+00 3.6379788e-12 
8.6092768e-09 -0.0000000e+00 -3.5106495e-10 
-1.2445525e-08 -0.0000000e+00 6.8939698e-10 
-1.5133992e-09 -0.0000000e+00 -1.0186341e-10 
-6.1481842e-10 -0.0000000e+00 8.2764018e-11 
4.2018655e-10 -0.0000000e+00 -8.1854523e-12 
1.3396857e-08 -0.0000000e+00 -9.4587449e-11 
2.1851646e+04 -0.0000000e+00 -3.5859741e+03 
-1.5606929e-09 -0.0000000e+00 -7.2759576e-12 
-5.3842086e-10 -0.0000000e+00 -2.2100721e-10 
1.4497346e-09 -0.0000000e+00 5.6388672e-11 
3.9217412e-09 -0.0000000e+00 4.2746251e-10 
4.1909516e-09 -0.0000000e+00 3.8453436e-09 
4.0345185e-09 -0.0000000e+00 7.2759576e-12 
-1.5970727e-09 -0.0000000e+00 -7.2759576e-12 
2.0700099e-09 -0.0000000e+00 3.1504896e-09 
2.9376679e-09 -0.0000000e+00 -7.2759576e-12 
-0.0000000e+00 -0.0000000e+00 -2.2828317e-09 
1.3615136e-09 -0.0000000e+00 -6.0390448e-10 
-0.0000000e+00 -0.0000000e+00 -3.0559022e-10 
-1.4315447e-09 -0.0000000e+00 -6.2937033e-10 
-5.8935257e-09 -0.0000000e+00 1.5643309e-10 
-1.3905264e-08 -0.0000000e+00 5.8889782e-11 
7.4505806e-09 -0.0000000e+00 2.7284841e-12 
-1.1177690e-09 -0.0000000e+00 1.0368240e-09 
-7.5760909e-09 -0.0000000e+00 -5.4569682e-12 
REACTION_MOMENT 3 30  float
-0.0000000e+00 -1.3969839e-09 -0.0000000e+00 
-0.0000000e+00 -5.8207661e-10 -0.0000000e+00 
-0.0000000e+00 -1.1059456e-09 -0.0000000e+00 
-0.0000000e+00 1.5133992e-09 -0.0000000e+00 
-0.0000000e+00 -3.5506673e-09 -0.0000000e+00 
-0.0000000e+00 -1.2660166e-09 -0.0000000e+00 
-0.0000000e+00 -8.1490725e-09 -0.0000000e+00 
-0.0000000e+00 -1.0477379e-09 -0.0000000e+00 
-0.0000000e+00 -2.9685907e-09 -0.0000000e+00 
-0.0000000e+00 2.1827873e-10 -0.0000000e+00 
-0.0000000e+00 1.1750672e-09 -0.0000000e+00 
-0.0000000e+00 -2.3283064e-10 -0.0000000e+00 
-0.0000000e+00 -0.0000000e+00 -0.0000000e+00 
-0.0000000e+00 1.7462298e-10 -0.0000000e+00 
-0.0000000e+00 -2.3283064e-10 -0.0000000e+00 
-0.0000000e+00 -4.6566129e-10 -0.0000000e+00 
-0.0000000e+00 -2.2118911e-09 -0.0000000e+00 
-0.0000000e+00 5.8207661e-11 -0.0000000e+00 
-0.0000000e+00 -1.2514647e-09 -0.0000000e+00 
-0.0000000e+00 1.9790605e-09 -0.0000000e+00 
-0.0000000e+00 -1.2369128e-09 -0.0000000e+00 
-0.0000000e+00 8.5128704e-10 -0.0000000e+00 
-0.0000000e+00 2.0372681e-10 -0.0000000e+00 
-0.0000000e+00 2.1827873e-10 -0.0000000e+00 
-0.0000000e+00 4.2837200e-10 -0.0000000e+00 
-0.0000000e+00 1.7462298e-10 -0.0000000e+00 
-0.0000000e+00 3.8198777e-11 -0.0000000e+00 
-0.0000000e+00 3.6379788e-11 -0.0000000e+00 
-0.0000000e+00 1.8189894e-11 -0.0000000e+00 
-0.0000000e+00 -2.5465852e-11 -0.0000000e+00 
VOLUME_ACCELERATION 3 30  float
0.0000000e+00 0.0000000e+00 0.0000000e+00 
0.0000000e+00 0.0000000e+00 0.0000000e+00 
0.0000000e+00 0.0000000e+00 0.0000000e+00 
0.0000000e+00 0.0000000e+00 0.0000000e+00 
0.0000000e+00 0.0000000e+00 0.0000000e+00 
0.0000000e+00 0.0000000e+00 0.0000000e+00 
0.0000000e+00 0.0000000e+00 0.0000000e+00 
0.0000000e+00 0.0000000e+00 0.0000000e+00 
0.0000000e+00 0.0000000e+00 0.0000000e+00 
0.0000000e+00 0.0000000e+00 0.0000000e+00 
0.0000000e+00 0.0000000e+00 0.0000000e+00 
0.0000000e+00 0.0000000e+00 0.0000000e+00 
0.0000000e+00 0.0000000e+00 0.0000000e+00 
0.0000000e+00 0.0000000e+00 0.0000000e+00 
0.0000000e+00 0.0000000e+00 0.0000000e+00 
0.0000000e+00 0.0000000e+00 0.0000000e+00 
0.0000000e+00 0.0000000e+00 0.0000000e+00 
0.0000000e+00 0.0000000e+00 0.0000000e+00 
0.0000000e+00 0.0000000e+00 0.0000000e+00 
0.0000000e+00 0.0000000e+00 0.0000000e+00 
0.0000000e+00 0.0000000e+00 0.0000000e+00 
0.0000000e+00 0.0000000e+00 0.0000000e+00 
0.0000000e+00 0.0000000e+00 0.0000000e+00 
0.0000000e+00 0.0000000e+00 0.0000000e+00 
0.0000000e+00 0.0000000e+00 0.0000000e+00 
0.0000000e+00 0.0000000e+00 0.0000000e+00 
0.0000000e+00 0.0000000e+00 0.0000000e+00 
0.0000000e+00 0.0000000e+00 0.0000000e+00 
0.0000000e+00 0.0000000e+00 0.0000000e+00 
0.0000000e+00 0.0000000e+00 0.0000000e+00 
POINT_LOAD 3 30  float
0.0000000e+00 0.0000000e+00 0.0000000e+00 
0.0000000e+00 0.0000000e+00 0.0000000e+00 
0.0000000e+00 0.0000000e+00 0.0000000e+00 
-9.0408398e+03 0.0000000e+00 3.4990527e+03 
-5.5557852e+03 0.0000000e+00 -7.9273667e+03 
3.5302136e+03 0.0000000e+00 -2.1738008e+03 
-1.7906807e+03 0.0000000e+00 5.3579922e+03 
0.0000000e+00 0.0000000e+00 0.0000000e+00 
-5.8971597e+03 0.0000000e+00 -4.6169263e+03 
-9.0384033e+03 0.0000000e+00 -4.4233813e+03 
7.5002051e+02 0.0000000e+00 3.7156814e+03 
0.0000000e+00 0.0000000e+00 0.0000000e+00 
-5.0205903e+03 0.0000000e+00 -4.8791958e+03 
-4.4528115e+03 0.0000000e+00 4.1543223e+03 
2.3899587e+03 0.0000000e+00 -4.8570103e+03 
2.7414790e+03 0.0000000e+00 -5.0023452e+03 
0.0000000e+00 0.0000000e+00 0.0000000e+00 
1.1050392e+03 0.0000000e+00 -6.7468755e+03 
-4.3758670e+02 0.0000000e+00 -1.1254198e+03 
-9.1820039e+03 0.0000000e+00 -7.7456050e+03 
4.9686401e+03 0.0000000e+00 7.4120327e+03 
0.0000000e+00 0.0000000e+00 0.0000000e+00 
-2.3141460e+03 0.0000000e+00 -3.4282354e+03 
0.0000000e+00 0.0000000e+00 0.0000000e+00 
-4.4534663e+03 0.0000000e+00 8.0275396e+03 
-5.1056514e+03 0.0000000e+00 -9.8388379e+03 
6.6733833e+03 0.0000000e+00 9.9726239e+02 
0.0000000e+00 0.0000000e+00 0.0000000e+00 
-5.2469585e+03 0.0000000e+00 5.9850913e+03 
2.3526228e+03 0.0000000e+00 7.3073184e+03 
POINT_MOMENT 3 30  float
0.0000000e+00 0.0000000e+00 0.0000000e+00 
0.0000000e+00 0.0000000e+00 0.0000000e+00 
0.0000000e+00 0.0000000e+00 0.0000000e+00 
0.0000000e+00 0.0000000e+00 0.0000000e+00 
0.0000000e+00 0.0000000e+00 0.0000000e+00 
0.0000000e+00 0.0000000e+00 0.0000000e+00 
0.0000000e+00 0.0000000e+00 0.0000000e+00 
0.0000000e+00 0.0000000e+00 0.0000000e+00 
0.0000000e+00 0.0000000e+00 0.0000000e+00 
0.0000000e+00 0.0000000e+00 0.0000000e+00 
0.0000000e+00 0.0000000e+00 0.0000000e+00 
0.0000000e+00 0.0000000e+00 0.0000000e+00 
0.0000000e+00 0.0000000e+00 0.0000000e+00 
0.0000000e+00 0.0000000e+00 0.0000000e+00 
0.0000000e+00 0.0000000e+00 0.0000000e+00 
0.0000000e+00 0.0000000e+00 0.0000000e+00 
0.0000000e+00 0.0000000e+00 0.0000000e+00 
0.0000000e+00 0.0000000e+00 0.0000000e+00 
0.0000000e+00 0.0000000e+00 0.0000000e+00 
0.0000000e+00 0.0000000e+00 0.0000000e+00 
0.0000000e+00 0.0000000e+00 0.0000000e+00 
0.0000000e+00 0.0000000e+00 0.0000000e+00 
0.0000000e+00 0.0000000e+00 0.0000000e+00 
0.0000000e+00 0.0000000e+00 0.0000000e+00 
0.0000000e+00 0.0000000e+00 0.0000000e+00 
0.0000000e+00 0.0000000e+00 0.0000000e+00 
0.0000000e+00 0.0000000e+00 0.0000000e+00 
0.0000000e+00 0.0000000e+00 0.0000000e+00 
0.0000000e+00 0.0000000e+00 0.0000000e+00 
0.0000000e+00 0.0000000e+00 0.0000000e+00 
CELL_DATA 30
FIELD FieldData 9
YOUNG_MODULUS 1 30  float
2.1000000e+11
2.1000000e+11
2.1000000e+11
2.1000000e+11
2.1000000e+11
2.1000000e+11
2.1000000e+11
2.1000000e+11
2.1000000e+11
2.1000000e+11
2.1000000e+11
2.1000000e+11
2.1000000e+11
2.1000000e+11
2.1000000e+11
2.1000000e+11
2.1000000e+11
2.1000000e+11
2.1000000e+11
2.1000000e+11
2.1000000e+11
2.1000000e+11
2.1000000e+11
2.1000000e+11
2.1000000e+11
2.1000000e+11
2.1000000e+11
2.1000000e+11
2.1000000e+11
2.1000000e+11
DENSITY 1 30  float
7.8500000e+03
7.8500000e+03
7.8500000e+03
7.8500000e+03
7.8500000e+03
7.8500000e+03
7.8500000e+03
7.8500000e+03
7.8500000e+03
7.8500000e+03
7.8500000e+03
7.8500000e+03
7.8500000e+03
7.8500000e+03
7.8500000e+03
7.8500000e+03
7.8500000e+03
7.8500000e+03
7.8500000e+03
7.8500000e+03
7.8500000e+03
7.8500000e+03
7.8500000e+03
7.8500000e+03
7.8500000e+03
7.8500000e+03
7.8500000e+03
7.8500000e+03
7.8500000e+03
7.8500000e+03
CROSS_AREA 1 30  float
9.9999998e-03
9.9999998e-03
9.9999998e-03
9.9999998e-03
9.9999998e-03
9.9999998e-03
9.9999998e-03
9.9999998e-03
9.9999998e-03
9.9999998e-03
9.9999998e-03
9.9999998e-03
9.9999998e-03
9.9999998e-03
9.9999998e-03
9.9999998e-03
9.9999998e-03
9.9999998e-03
9.9999998e-03
9.9999998e-03
9.9999998e-03
9.9999998e-03
9.9999998e-03
9.9999998e-03
9.9999998e-03
9.9999998e-03
9.9999998e-03
9.9999998e-03
9.9999998e-03
9.9999998e-03
I22 1 30  float
1.5000001e-04
1.5000001e-04
1.5000001e-04
1.5000001e-04
1.5000001e-04
1.5000001e-04
1.5000001e-04
1.5000001e-04
1.5000001e-04
1.5000001e-04
1.5000001e-04
1.5000001e-04
1.5000001e-04
1.5000001e-04
1.5000001e-04
1.5000001e-04
1.5000001e-04
1.5000001e-04
1.5000001e-04
1.5000001e-04
1.5000001e-04
1.5000001e-04
1.5000001e-04
1.5000001e-04
1.5000001e-04
1.5000001e-04
1.5000001e-04
1.5000001e-04
1.5000001e-04
1.5000001e-04
I33 1 30  float
1.5000001e-04
1.5000001e-04
1.5000001e-04
1.5000001e-04
1.5000001e-04
1.5000001e-04
1.5000001e-04
1.5000001e-04
1.5000001e-04
1.5000001e-04
1.5000001e-04
1.5000001e-04
1.5000001e-04
1.5000001e-04
1.5000001e-04
1.5000001e-04
1.5000001e-04
1.5000001e-04
1.5000001e-04
1.5000001e-04
1.5000001e-04
1.5000001e-04
1.5000001e-04
1.5000001e-04
1.5000001e-04
1.5000001e-04
1.5000001e-04
1.5000001e-04
1.5000001e-04
1.5000001e-04
TORSIONAL_INERTIA 1 30  float
3.0000001e-04
3.0000001e-04
3.0000001e-04
3.0000001e-04
3.0000001e-04
3.0000001e-04
3.0000001e-04
3.0000001e-04
3.0000001e-04
3.0000001e-04
3.0000001e-04
3.0000001e-04
3.0000001e-04
3.0000001e-04
3.0000001e-04
3.0000001e-04
3.0000001e-04
3.0000001e-04
3.0000001e-04
3.0000001e-04
3.0000001e-04
3.0000001e-04
3.0000001e-04
3.0000001e-04
3.0000001e-04
3.0000001e-04
3.0000001e-04
3.0000001e-04
3.0000001e-04
3.0000001e-04
POISSON_RATIO 1 30  float
3.0000001e-01
3.0000001e-01
3.0000001e-01
3.0000001e-01
3.0000001e-01
3.0000001e-01
3.0000001e-01
3.0000001e-01
3.0000001e-01
3.0000001e-01
3.0000001e-01
3.0000001e-01
3.0000001e-01
3.0000001e-01
3.0000001e-01
3.0000001e-01
3.0000001e-01
3.0000001e-01
3.0000001e-01
3.0000001e-01
3.0000001e-01
3.0000001e-01
3.0000001e-01
3.0000001e-01
3.0000001e-01
3.0000001e-01
3.0000001e-01
3.0000001e-01
3.0000001e-01
3.0000001e-01
MOMENT 3 30  float
0.0000000e+00 8.4692314e+03 0.0000000e+00 
0.0000000e+00 2.5407693e+04 0.0000000e+00 
0.0000000e+00 4.2346156e+04 0.0000000e+00 
0.0000000e+00 5.5668285e+04 0.0000000e+00 
0.0000000e+00 6.3151762e+04 0.0000000e+00 
0.0000000e+00 8.1295063e+03 0.0000000e+00 
0.0000000e+00 1.2900220e+04 0.0000000e+00 
0.0000000e+00 1.6954660e+04 0.0000000e+00 
0.0000000e+00 1.8650238e+04 0.0000000e+00 
0.0000000e+00 1.4371591e+04 0.0000000e+00 
0.0000000e+00 8.7406582e+03 0.0000000e+00 
0.0000000e+00 2.4213740e+04 0.0000000e+00 
0.0000000e+00 3.5897461e+04 0.0000000e+00 
0.0000000e+00 4.6756039e+04 0.0000000e+00 
0.0000000e+00 5.9667195e+04 0.0000000e+00 
0.0000000e+00 9.7338027e+03 0.0000000e+00 
0.0000000e+00 1.7283303e+04 0.0000000e+00 
0.0000000e+00 2.5099781e+04 0.0000000e+00 
0.0000000e+00 2.9068426e+04 0.0000000e+00 
0.0000000e+00 3.1351725e+04 0.0000000e+00 
0.0000000e+00 4.6808258e+04 0.0000000e+00 
0.0000000e+00 2.3060344e+04 0.0000000e+00 
0.0000000e+00 2.7406682e+03 0.0000000e+00 
0.0000000e+00 -2.5606547e+04 0.0000000e+00 
0.0000000e+00 -5.2142465e+04 0.0000000e+00 
0.0000000e+00 1.0686728e+04 0.0000000e+00 
0.0000000e+00 1.0213748e+04 0.0000000e+00 
0.0000000e+00 8.7435059e+03 0.0000000e+00 
0.0000000e+00 1.2881725e+03 0.0000000e+00 
0.0000000e+00 -1.9459570e+04 0.0000000e+00 
FORCE 3 30  float
-1.9894680e+04 0.0000000e+00 2.1173078e+04 
-1.9894680e+04 0.0000000e+00 2.1173078e+04 
-1.9894680e+04 0.0000000e+00 2.1173078e+04 
-2.3393732e+04 0.0000000e+00 1.2132239e+04 
-1.5466366e+04 0.0000000e+00 6.5764536e+03 
2.9550757e+02 0.0000000e+00 6.8587324e+03 
-5.0624849e+03 0.0000000e+00 5.0680518e+03 
-5.0624849e+03 0.0000000e+00 5.0680518e+03 
-4.4555872e+02 0.0000000e+00 -8.2910779e+02 
3.9778228e+03 0.0000000e+00 -9.8675107e+03 
3.5859741e+03 0.0000000e+00 2.1851646e+04 
8.4651699e+03 0.0000000e+00 1.6831057e+04 
4.3108477e+03 0.0000000e+00 1.2378245e+04 
9.1678584e+03 0.0000000e+00 1.4768203e+04 
1.4170203e+04 0.0000000e+00 1.7509682e+04 
5.8216631e+03 0.0000000e+00 8.8843535e+03 
1.2568538e+04 0.0000000e+00 9.9893936e+03 
1.3693958e+04 0.0000000e+00 9.5518066e+03 
2.1439562e+04 0.0000000e+00 3.6980283e+02 
1.4027530e+04 0.0000000e+00 5.3384429e+03 
-3.2479348e+03 0.0000000e+00 -1.3588073e+04 
-9.3378888e+02 0.0000000e+00 -1.0159838e+04 
-9.3378888e+02 0.0000000e+00 -1.0159838e+04 
3.5196772e+03 0.0000000e+00 -1.8187377e+04 
8.6253281e+03 0.0000000e+00 -8.3485400e+03 
9.1174902e+03 0.0000000e+00 2.6214127e+02 
2.4441069e+03 0.0000000e+00 -7.3512109e+02 
2.4441069e+03 0.0000000e+00 -7.3512109e+02 
7.6910654e+03 0.0000000e+00 -6.7202124e+03 
5.3384429e+03 0.0000000e+00 -1.4027530e+04 
