# vtk DataFile Version 4.0
vtk output
ASCII
DATASET UNSTRUCTURED_GRID
POINTS 212 float
0.0000000e+00 0.0000000e+00 0.0000000e+00 
0.0000000e+00 0.0000000e+00 2.5000000e-01 
0.0000000e+00 0.0000000e+00 5.0000000e-01 
0.0000000e+00 0.0000000e+00 7.5000000e-01 
0.0000000e+00 0.0000000e+00 1.0000000e+00 
0.0000000e+00 0.0000000e+00 1.2500000e+00 
0.0000000e+00 0.0000000e+00 1.5000000e+00 
0.0000000e+00 0.0000000e+00 1.7500000e+00 
0.0000000e+00 0.0000000e+00 2.0000000e+00 
0.0000000e+00 0.0000000e+00 2.2500000e+00 
0.0000000e+00 0.0000000e+00 2.5000000e+00 
0.0000000e+00 0.0000000e+00 2.7500000e+00 
0.0000000e+00 0.0000000e+00 3.0000000e+00 
0.0000000e+00 0.0000000e+00 3.2500000e+00 
0.0000000e+00 0.0000000e+00 3.5000000e+00 
0.0000000e+00 0.0000000e+00 3.7500000e+00 
0.0000000e+00 0.0000000e+00 4.0000000e+00 
0.0000000e+00 0.0000000e+00 4.2500000e+00 
0.0000000e+00 0.0000000e+00 4.5000000e+00 
0.0000000e+00 0.0000000e+00 4.7500000e+00 
0.0000000e+00 0.0000000e+00 5.0000000e+00 
0.0000000e+00 0.0000000e+00 5.2500000e+00 
0.0000000e+00 0.0000000e+00 5.5000000e+00 
0.0000000e+00 0.0000000e+00 5.7500000e+00 
0.0000000e+00 0.0000000e+00 6.0000000e+00 
0.0000000e+00 0.0000000e+00 6.2500000e+00 
0.0000000e+00 0.0000000e+00 6.5000000e+00 
0.0000000e+00 0.0000000e+00 6.7500000e+00 
0.0000000e+00 0.0000000e+00 7.0000000e+00 
0.0000000e+00 0.0000000e+00 7.2500000e+00 
0.0000000e+00 0.0000000e+00 7.5000000e+00 
0.0000000e+00 0.0000000e+00 7.7500000e+00 
0.0000000e+00 0.0000000e+00 8.0000000e+00 
0.0000000e+00 0.0000000e+00 8.2500000e+00 
0.0000000e+00 0.0000000e+00 8.5000000e+00 
0.0000000e+00 0.0000000e+00 8.7500000e+00 
0.0000000e+00 0.0000000e+00 9.0000000e+00 
0.0000000e+00 0.0000000e+00 9.2500000e+00 
0.0000000e+00 0.0000000e+00 9.5000000e+00 
0.0000000e+00 0.0000000e+00 9.7500000e+00 
0.0000000e+00 0.0000000e+00 1.0000000e+01 
0.0000000e+00 0.0000000e+00 1.0250000e+01 
0.0000000e+00 0.0000000e+00 1.0500000e+01 
0.0000000e+00 0.0000000e+00 1.0750000e+01 
0.0000000e+00 0.0000000e+00 1.1000000e+01 
0.0000000e+00 0.0000000e+00 1.1250000e+01 
0.0000000e+00 0.0000000e+00 1.1500000e+01 
0.0000000e+00 0.0000000e+00 1.1750000e+01 
0.0000000e+00 0.0000000e+00 1.2000000e+01 
0.0000000e+00 0.0000000e+00 1.2250000e+01 
0.0000000e+00 0.0000000e+00 1.2500000e+01 
0.0000000e+00 0.0000000e+00 1.2750000e+01 
0.0000000e+00 0.0000000e+00 1.3000000e+01 
0.0000000e+00 0.0000000e+00 1.3250000e+01 
0.0000000e+00 0.0000000e+00 1.3500000e+01 
0.0000000e+00 0.0000000e+00 1.3750000e+01 
0.0000000e+00 0.0000000e+00 1.4000000e+01 
0.0000000e+00 0.0000000e+00 1.4250000e+01 
0.0000000e+00 0.0000000e+00 1.4500000e+01 
0.0000000e+00 0.0000000e+00 1.4750000e+01 
0.0000000e+00 0.0000000e+00 1.5000000e+01 
0.0000000e+00 0.0000000e+00 1.5250000e+01 
0.0000000e+00 0.0000000e+00 1.5500000e+01 
0.0000000e+00 0.0000000e+00 1.5750000e+01 
0.0000000e+00 0.0000000e+00 1.6000000e+01 
0.0000000e+00 0.0000000e+00 1.6250000e+01 
0.0000000e+00 0.0000000e+00 1.6500000e+01 
0.0000000e+00 0.0000000e+00 1.6750000e+01 
0.0000000e+00 0.0000000e+00 1.7000000e+01 
0.0000000e+00 0.0000000e+00 1.7250000e+01 
0.0000000e+00 0.0000000e+00 1.7500000e+01 
0.0000000e+00 0.0000000e+00 1.7750000e+01 
0.0000000e+00 0.0000000e+00 1.8000000e+01 
5.0000000e-01 0.0000000e+00 3.0000000e+00 
5.0000000e-01 0.0000000e+00 6.0000000e+00 
5.0000000e-01 0.0000000e+00 9.0000000e+00 
5.0000000e-01 0.0000000e+00 1.2000000e+01 
5.0000000e-01 0.0000000e+00 1.5000000e+01 
5.0000000e-01 0.0000000e+00 1.8000000e+01 
1.0000000e+00 0.0000000e+00 3.0000000e+00 
1.0000000e+00 0.0000000e+00 6.0000000e+00 
1.0000000e+00 0.0000000e+00 9.0000000e+00 
1.0000000e+00 0.0000000e+00 1.2000000e+01 
1.0000000e+00 0.0000000e+00 1.5000000e+01 
1.0000000e+00 0.0000000e+00 1.8000000e+01 
1.5000000e+00 0.0000000e+00 3.0000000e+00 
1.5000000e+00 0.0000000e+00 6.0000000e+00 
1.5000000e+00 0.0000000e+00 9.0000000e+00 
1.5000000e+00 0.0000000e+00 1.2000000e+01 
1.5000000e+00 0.0000000e+00 1.5000000e+01 
1.5000000e+00 0.0000000e+00 1.8000000e+01 
2.0000000e+00 0.0000000e+00 3.0000000e+00 
2.0000000e+00 0.0000000e+00 6.0000000e+00 
2.0000000e+00 0.0000000e+00 9.0000000e+00 
2.0000000e+00 0.0000000e+00 1.2000000e+01 
2.0000000e+00 0.0000000e+00 1.5000000e+01 
2.0000000e+00 0.0000000e+00 1.8000000e+01 
2.5000000e+00 0.0000000e+00 3.0000000e+00 
2.5000000e+00 0.0000000e+00 6.0000000e+00 
2.5000000e+00 0.0000000e+00 9.0000000e+00 
2.5000000e+00 0.0000000e+00 1.2000000e+01 
2.5000000e+00 0.0000000e+00 1.5000000e+01 
2.5000000e+00 0.0000000e+00 1.8000000e+01 
3.0000000e+00 0.0000000e+00 3.0000000e+00 
3.0000000e+00 0.0000000e+00 6.0000000e+00 
3.0000000e+00 0.0000000e+00 9.0000000e+00 
3.0000000e+00 0.0000000e+00 1.2000000e+01 
3.0000000e+00 0.0000000e+00 1.5000000e+01 
3.0000000e+00 0.0000000e+00 1.8000000e+01 
3.5000000e+00 0.0000000e+00 3.0000000e+00 
3.5000000e+00 0.0000000e+00 6.0000000e+00 
3.5000000e+00 0.0000000e+00 9.0000000e+00 
3.5000000e+00 0.0000000e+00 1.2000000e+01 
3.5000000e+00 0.0000000e+00 1.5000000e+01 
3.5000000e+00 0.0000000e+00 1.8000000e+01 
4.0000000e+00 0.0000000e+00 3.0000000e+00 
4.0000000e+00 0.0000000e+00 6.0000000e+00 
4.0000000e+00 0.0000000e+00 9.0000000e+00 
4.0000000e+00 0.0000000e+00 1.2000000e+01 
4.0000000e+00 0.0000000e+00 1.5000000e+01 
4.0000000e+00 0.0000000e+00 1.8000000e+01 
4.5000000e+00 0.0000000e+00 3.0000000e+00 
4.5000000e+00 0.0000000e+00 6.0000000e+00 
4.5000000e+00 0.0000000e+00 9.0000000e+00 
4.5000000e+00 0.0000000e+00 1.2000000e+01 
4.5000000e+00 0.0000000e+00 1.5000000e+01 
4.5000000e+00 0.0000000e+00 1.8000000e+01 
5.0000000e+00 0.0000000e+00 3.0000000e+00 
5.0000000e+00 0.0000000e+00 6.0000000e+00 
5.0000000e+00 0.0000000e+00 9.0000000e+00 
5.0000000e+00 0.0000000e+00 1.2000000e+01 
5.0000000e+00 0.0000000e+00 1.5000000e+01 
5.0000000e+00 0.0000000e+00 1.8000000e+01 
5.5000000e+00 0.0000000e+00 3.0000000e+00 
5.5000000e+00 0.0000000e+00 6.0000000e+00 
5.5000000e+00 0.0000000e+00 9.0000000e+00 
5.5000000e+00 0.0000000e+00 1.2000000e+01 
5.5000000e+00 0.0000000e+00 1.5000000e+01 
5.5000000e+00 0.0000000e+00 1.8000000e+01 
6.0000000e+00 0.0000000e+00 0.0000000e+00 
6.0000000e+00 0.0000000e+00 2.5000000e-01 
6.0000000e+00 0.0000000e+00 5.0000000e-01 
6.0000000e+00 0.0000000e+00 7.5000000e-01 
6.0000000e+00 0.0000000e+00 1.0000000e+00 
6.0000000e+00 0.0000000e+00 1.2500000e+00 
6.0000000e+00 0.0000000e+00 1.5000000e+00 
6.0000000e+00 0.0000000e+00 1.7500000e+00 
6.0000000e+00 0.0000000e+00 2.0000000e+00 
6.0000000e+00 0.0000000e+00 2.2500000e+00 
6.0000000e+00 0.0000000e+00 2.5000000e+00 
6.0000000e+00 0.0000000e+00 2.7500000e+00 
6.0000000e+00 0.0000000e+00 3.0000000e+00 
6.0000000e+00 0.0000000e+00 3.2500000e+00 
6.0000000e+00 0.0000000e+00 3.5000000e+00 
6.0000000e+00 0.0000000e+00 3.7500000e+00 
6.0000000e+00 0.0000000e+00 4.0000000e+00 
6.0000000e+00 0.0000000e+00 4.2500000e+00 
6.0000000e+00 0.0000000e+00 4.5000000e+00 
6.0000000e+00 0.0000000e+00 4.7500000e+00 
6.0000000e+00 0.0000000e+00 5.0000000e+00 
6.0000000e+00 0.0000000e+00 5.2500000e+00 
6.0000000e+00 0.0000000e+00 5.5000000e+00 
6.0000000e+00 0.0000000e+00 5.7500000e+00 
6.0000000e+00 0.0000000e+00 6.0000000e+00 
6.0000000e+00 0.0000000e+00 6.2500000e+00 
6.0000000e+00 0.0000000e+00 6.5000000e+00 
6.0000000e+00 0.0000000e+00 6.7500000e+00 
6.0000000e+00 0.0000000e+00 7.0000000e+00 
6.0000000e+00 0.0000000e+00 7.2500000e+00 
6.0000000e+00 0.0000000e+00 7.5000000e+00 
6.0000000e+00 0.0000000e+00 7.7500000e+00 
6.0000000e+00 0.0000000e+00 8.0000000e+00 
6.0000000e+00 0.0000000e+00 8.2500000e+00 
6.0000000e+00 0.0000000e+00 8.5000000e+00 
6.0000000e+00 0.0000000e+00 8.7500000e+00 
6.0000000e+00 0.0000000e+00 9.0000000e+00 
6.0000000e+00 0.0000000e+00 9.2500000e+00 
6.0000000e+00 0.0000000e+00 9.5000000e+00 
6.0000000e+00 0.0000000e+00 9.7500000e+00 
6.0000000e+00 0.0000000e+00 1.0000000e+01 
6.0000000e+00 0.0000000e+00 1.0250000e+01 
6.0000000e+00 0.0000000e+00 1.0500000e+01 
6.0000000e+00 0.0000000e+00 1.0750000e+01 
6.0000000e+00 0.0000000e+00 1.1000000e+01 
6.0000000e+00 0.0000000e+00 1.1250000e+01 
6.0000000e+00 0.0000000e+00 1.1500000e+01 
6.0000000e+00 0.0000000e+00 1.1750000e+01 
6.0000000e+00 0.0000000e+00 1.2000000e+01 
6.0000000e+00 0.0000000e+00 1.2250000e+01 
6.0000000e+00 0.0000000e+00 1.2500000e+01 
6.0000000e+00 0.0000000e+00 1.2750000e+01 
6.0000000e+00 0.0000000e+00 1.3000000e+01 
6.0000000e+00 0.0000000e+00 1.3250000e+01 
6.0000000e+00 0.0000000e+00 1.3500000e+01 
6.0000000e+00 0.0000000e+00 1.3750000e+01 
6.0000000e+00 0.0000000e+00 1.4000000e+01 
6.0000000e+00 0.0000000e+00 1.4250000e+01 
6.0000000e+00 0.0000000e+00 1.4500000e+01 
6.0000000e+00 0.0000000e+00 1.4750000e+01 
6.0000000e+00 0.0000000e+00 1.5000000e+01 
6.0000000e+00 0.0000000e+00 1.5250000e+01 
6.0000000e+00 0.0000000e+00 1.5500000e+01 
6.0000000e+00 0.0000000e+00 1.5750000e+01 
6.0000000e+00 0.0000000e+00 1.6000000e+01 
6.0000000e+00 0.0000000e+00 1.6250000e+01 
6.0000000e+00 0.0000000e+00 1.6500000e+01 
6.0000000e+00 0.0000000e+00 1.6750000e+01 
6.0000000e+00 0.0000000e+00 1.7000000e+01 
6.0000000e+00 0.0000000e+00 1.7250000e+01 
6.0000000e+00 0.0000000e+00 1.7500000e+01 
6.0000000e+00 0.0000000e+00 1.7750000e+01 
6.0000000e+00 0.0000000e+00 1.8000000e+01 

CELLS 216 648
2 0 1
2 1 2
2 2 3
2 3 4
2 4 5
2 5 6
2 6 7
2 7 8
2 8 9
2 9 10
2 10 11
2 11 12
2 12 13
2 13 14
2 14 15
2 15 16
2 16 17
2 17 18
2 18 19
2 19 20
2 20 21
2 21 22
2 22 23
2 23 24
2 24 25
2 25 26
2 26 27
2 27 28
2 28 29
2 29 30
2 30 31
2 31 32
2 32 33
2 33 34
2 34 35
2 35 36
2 36 37
2 37 38
2 38 39
2 39 40
2 40 41
2 41 42
2 42 43
2 43 44
2 44 45
2 45 46
2 46 47
2 47 48
2 48 49
2 49 50
2 50 51
2 51 52
2 52 53
2 53 54
2 54 55
2 55 56
2 56 57
2 57 58
2 58 59
2 59 60
2 60 61
2 61 62
2 62 63
2 63 64
2 64 65
2 65 66
2 66 67
2 67 68
2 68 69
2 69 70
2 70 71
2 71 72
2 139 140
2 140 141
2 141 142
2 142 143
2 143 144
2 144 145
2 145 146
2 146 147
2 147 148
2 148 149
2 149 150
2 150 151
2 151 152
2 152 153
2 153 154
2 154 155
2 155 156
2 156 157
2 157 158
2 158 159
2 159 160
2 160 161
2 161 162
2 162 163
2 163 164
2 164 165
2 165 166
2 166 167
2 167 168
2 168 169
2 169 170
2 170 171
2 171 172
2 172 173
2 173 174
2 174 175
2 175 176
2 176 177
2 177 178
2 178 179
2 179 180
2 180 181
2 181 182
2 182 183
2 183 184
2 184 185
2 185 186
2 186 187
2 187 188
2 188 189
2 189 190
2 190 191
2 191 192
2 192 193
2 193 194
2 194 195
2 195 196
2 196 197
2 197 198
2 198 199
2 199 200
2 200 201
2 201 202
2 202 203
2 203 204
2 204 205
2 205 206
2 206 207
2 207 208
2 208 209
2 209 210
2 210 211
2 12 73
2 73 79
2 79 85
2 85 91
2 91 97
2 97 103
2 103 109
2 109 115
2 115 121
2 121 127
2 127 133
2 133 151
2 24 74
2 74 80
2 80 86
2 86 92
2 92 98
2 98 104
2 104 110
2 110 116
2 116 122
2 122 128
2 128 134
2 134 163
2 36 75
2 75 81
2 81 87
2 87 93
2 93 99
2 99 105
2 105 111
2 111 117
2 117 123
2 123 129
2 129 135
2 135 175
2 48 76
2 76 82
2 82 88
2 88 94
2 94 100
2 100 106
2 106 112
2 112 118
2 118 124
2 124 130
2 130 136
2 136 187
2 60 77
2 77 83
2 83 89
2 89 95
2 95 101
2 101 107
2 107 113
2 113 119
2 119 125
2 125 131
2 131 137
2 137 199
2 72 78
2 78 84
2 84 90
2 90 96
2 96 102
2 102 108
2 108 114
2 114 120
2 120 126
2 126 132
2 132 138
2 138 211

CELL_TYPES 216
3
3
3
3
3
3
3
3
3
3
3
3
3
3
3
3
3
3
3
3
3
3
3
3
3
3
3
3
3
3
3
3
3
3
3
3
3
3
3
3
3
3
3
3
3
3
3
3
3
3
3
3
3
3
3
3
3
3
3
3
3
3
3
3
3
3
3
3
3
3
3
3
3
3
3
3
3
3
3
3
3
3
3
3
3
3
3
3
3
3
3
3
3
3
3
3
3
3
3
3
3
3
3
3
3
3
3
3
3
3
3
3
3
3
3
3
3
3
3
3
3
3
3
3
3
3
3
3
3
3
3
3
3
3
3
3
3
3
3
3
3
3
3
3
3
3
3
3
3
3
3
3
3
3
3
3
3
3
3
3
3
3
3
3
3
3
3
3
3
3
3
3
3
3
3
3
3
3
3
3
3
3
3
3
3
3
3
3
3
3
3
3
3
3
3
3
3
3
3
3
3
3
3
3
3
3
3
3
3
3
3
3
3
3
3
3
POINT_DATA 212
FIELD FieldData 3
ADJOINT_DISPLACEMENT 3 212  float
0.0000000e+00 0.0000000e+00 0.0000000e+00 
-2.8102958e-04 0.0000000e+00 1.2716904e-16 
-5.8059912e-04 0.0000000e+00 2.5433808e-16 
-9.1724860e-04 0.0000000e+00 3.8150713e-16 
-1.3095179e-03 0.0000000e+00 5.0867616e-16 
-1.7759469e-03 0.0000000e+00 6.3584524e-16 
-2.3350758e-03 0.0000000e+00 7.6301427e-16 
-3.0054443e-03 0.0000000e+00 8.9018335e-16 
-3.8055924e-03 0.0000000e+00 1.0173523e-15 
-4.7540599e-03 0.0000000e+00 1.1445214e-15 
-5.8693876e-03 0.0000000e+00 1.2716905e-15 
-7.1701142e-03 0.0000000e+00 1.3988595e-15 
-8.6747808e-03 0.0000000e+00 1.5260285e-15 
-1.0507075e-02 0.0000000e+00 5.6918765e-07 
-1.2703179e-02 0.0000000e+00 1.1383753e-06 
-1.5150374e-02 0.0000000e+00 1.7075630e-06 
-1.7735934e-02 0.0000000e+00 2.2767506e-06 
-2.0347143e-02 0.0000000e+00 2.8459383e-06 
-2.2871276e-02 0.0000000e+00 3.4151260e-06 
-2.5195615e-02 0.0000000e+00 3.9843135e-06 
-2.7207436e-02 0.0000000e+00 4.5535012e-06 
-2.8794019e-02 0.0000000e+00 5.1226889e-06 
-2.9842643e-02 0.0000000e+00 5.6918766e-06 
-3.0240588e-02 0.0000000e+00 6.2610643e-06 
-2.9875131e-02 0.0000000e+00 6.8302520e-06 
-2.8941244e-02 0.0000000e+00 9.6766416e-06 
-2.8037965e-02 0.0000000e+00 1.2523031e-05 
-2.7658679e-02 0.0000000e+00 1.5369420e-05 
-2.8296765e-02 0.0000000e+00 1.8215811e-05 
-3.0445606e-02 0.0000000e+00 2.1062200e-05 
-3.4598585e-02 0.0000000e+00 2.3908589e-05 
-4.1249078e-02 0.0000000e+00 2.6754979e-05 
-5.0890476e-02 0.0000000e+00 2.9601370e-05 
-6.4016156e-02 0.0000000e+00 3.2447759e-05 
-8.1119493e-02 0.0000000e+00 3.5294150e-05 
-1.0269388e-01 0.0000000e+00 3.8140537e-05 
-1.2923269e-01 0.0000000e+00 4.0986928e-05 
-1.5577017e-01 0.0000000e+00 3.8134287e-05 
-1.7734064e-01 0.0000000e+00 3.5281646e-05 
-1.9443771e-01 0.0000000e+00 3.2429005e-05 
-2.0755497e-01 0.0000000e+00 2.9576364e-05 
-2.1718596e-01 0.0000000e+00 2.6723723e-05 
-2.2382431e-01 0.0000000e+00 2.3871082e-05 
-2.2796355e-01 0.0000000e+00 2.1018441e-05 
-2.3009731e-01 0.0000000e+00 1.8165800e-05 
-2.3071915e-01 0.0000000e+00 1.5313159e-05 
-2.3032264e-01 0.0000000e+00 1.2460518e-05 
-2.2940138e-01 0.0000000e+00 9.6078766e-06 
-2.2844893e-01 0.0000000e+00 6.7552355e-06 
-2.2806165e-01 0.0000000e+00 6.1610372e-06 
-2.2843117e-01 0.0000000e+00 5.5668393e-06 
-2.2944407e-01 0.0000000e+00 4.9726409e-06 
-2.3098692e-01 0.0000000e+00 4.3784430e-06 
-2.3294628e-01 0.0000000e+00 3.7842449e-06 
-2.3520871e-01 0.0000000e+00 3.1900468e-06 
-2.3766077e-01 0.0000000e+00 2.5958486e-06 
-2.4018903e-01 0.0000000e+00 2.0016505e-06 
-2.4268007e-01 0.0000000e+00 1.4074523e-06 
-2.4502045e-01 0.0000000e+00 8.1325413e-07 
-2.4709673e-01 0.0000000e+00 2.1905601e-07 
-2.4879548e-01 0.0000000e+00 -3.7514212e-07 
-2.5013706e-01 0.0000000e+00 -4.9396289e-07 
-2.5123191e-01 0.0000000e+00 -6.1278371e-07 
-2.5210163e-01 0.0000000e+00 -7.3160447e-07 
-2.5276783e-01 0.0000000e+00 -8.5042529e-07 
-2.5325215e-01 0.0000000e+00 -9.6924600e-07 
-2.5357616e-01 0.0000000e+00 -1.0880668e-06 
-2.5376153e-01 0.0000000e+00 -1.2068876e-06 
-2.5382981e-01 0.0000000e+00 -1.3257084e-06 
-2.5380269e-01 0.0000000e+00 -1.4445292e-06 
-2.5370172e-01 0.0000000e+00 -1.5633500e-06 
-2.5354856e-01 0.0000000e+00 -1.6821708e-06 
-2.5336480e-01 0.0000000e+00 -1.8009915e-06 
-8.6647896e-03 0.0000000e+00 2.7374700e-03 
-2.9921263e-02 0.0000000e+00 -2.3095498e-03 
-1.2923270e-01 0.0000000e+00 8.0049053e-02 
-2.2840273e-01 0.0000000e+00 -2.3368085e-03 
-2.4880576e-01 0.0000000e+00 2.5153980e-03 
-2.5336316e-01 0.0000000e+00 -3.9929524e-04 
-8.6547993e-03 0.0000000e+00 4.5783832e-03 
-2.9967396e-02 0.0000000e+00 -5.8006328e-03 
-1.2923272e-01 0.0000000e+00 2.0253262e-01 
-2.2835653e-01 0.0000000e+00 -5.8369860e-03 
-2.4881603e-01 0.0000000e+00 4.2406679e-03 
-2.5336149e-01 0.0000000e+00 -8.0772204e-04 
-8.6448081e-03 0.0000000e+00 5.6423899e-03 
-3.0013528e-02 0.0000000e+00 -9.9877222e-03 
-1.2923273e-01 0.0000000e+00 3.6629367e-01 
-2.2831033e-01 0.0000000e+00 -1.0019024e-02 
-2.4882631e-01 0.0000000e+00 5.2753650e-03 
-2.5335985e-01 0.0000000e+00 -1.2021038e-03 
-8.6348178e-03 0.0000000e+00 6.0491408e-03 
-3.0059662e-02 0.0000000e+00 -1.4392122e-02 
-1.2923275e-01 0.0000000e+00 5.7013422e-01 
-2.2826412e-01 0.0000000e+00 -1.4408168e-02 
-2.4883659e-01 0.0000000e+00 5.7194196e-03 
-2.5335822e-01 0.0000000e+00 -1.5574627e-03 
-8.6248266e-03 0.0000000e+00 5.9182863e-03 
-3.0105794e-02 0.0000000e+00 -1.8535133e-02 
-1.2923276e-01 0.0000000e+00 8.1285626e-01 
-2.2821793e-01 0.0000000e+00 -1.8529667e-02 
-2.4884687e-01 0.0000000e+00 5.6727622e-03 
-2.5335658e-01 0.0000000e+00 -1.8488214e-03 
-8.6148363e-03 0.0000000e+00 5.3694774e-03 
-3.0151926e-02 0.0000000e+00 -2.1938059e-02 
-1.2923278e-01 0.0000000e+00 5.9326172e-01 
-2.2817172e-01 0.0000000e+00 -2.1908764e-02 
-2.4885716e-01 0.0000000e+00 5.2353232e-03 
-2.5335494e-01 0.0000000e+00 -2.0512019e-03 
-8.6048450e-03 0.0000000e+00 4.5223641e-03 
-3.0198058e-02 0.0000000e+00 -2.4122206e-02 
-1.2923279e-01 0.0000000e+00 4.1015270e-01 
-2.2812551e-01 0.0000000e+00 -2.4070708e-02 
-2.4886742e-01 0.0000000e+00 4.5070332e-03 
-2.5335327e-01 0.0000000e+00 -2.1396270e-03 
-8.5948547e-03 0.0000000e+00 3.4965968e-03 
-3.0244192e-02 0.0000000e+00 -2.4608875e-02 
-1.2923281e-01 0.0000000e+00 2.6233110e-01 
-2.2807932e-01 0.0000000e+00 -2.4540747e-02 
-2.4887770e-01 0.0000000e+00 3.5878217e-03 
-2.5335163e-01 0.0000000e+00 -2.0891186e-03 
-8.5848635e-03 0.0000000e+00 2.4118263e-03 
-3.0290324e-02 0.0000000e+00 -2.2919368e-02 
-1.2923284e-01 0.0000000e+00 1.4859894e-01 
-2.2803311e-01 0.0000000e+00 -2.2844123e-02 
-2.4888799e-01 0.0000000e+00 2.5776201e-03 
-2.5334999e-01 0.0000000e+00 -1.8746991e-03 
-8.5748732e-03 0.0000000e+00 1.3877030e-03 
-3.0336456e-02 0.0000000e+00 -1.8574990e-02 
-1.2923285e-01 0.0000000e+00 6.7758203e-02 
-2.2798692e-01 0.0000000e+00 -1.8506086e-02 
-2.4889827e-01 0.0000000e+00 1.5763581e-03 
-2.5334835e-01 0.0000000e+00 -1.4713912e-03 
-8.5648820e-03 0.0000000e+00 5.4387737e-04 
-3.0382589e-02 0.0000000e+00 -1.1097043e-02 
-1.2923287e-01 0.0000000e+00 1.8610902e-02 
-2.2794071e-01 0.0000000e+00 -1.1051881e-02 
-2.4890855e-01 0.0000000e+00 6.8396633e-04 
-2.5334671e-01 0.0000000e+00 -8.5421704e-04 
0.0000000e+00 0.0000000e+00 0.0000000e+00 
-1.1547764e-03 0.0000000e+00 -9.8702559e-17 
-2.2910128e-03 0.0000000e+00 -1.9740510e-16 
-3.3901695e-03 0.0000000e+00 -2.9610766e-16 
-4.4337059e-03 0.0000000e+00 -3.9481047e-16 
-5.4030833e-03 0.0000000e+00 -4.9351300e-16 
-6.2797605e-03 0.0000000e+00 -5.9221473e-16 
-7.0451978e-03 0.0000000e+00 -6.9091546e-16 
-7.6808557e-03 0.0000000e+00 -7.8961624e-16 
-8.1681935e-03 0.0000000e+00 -8.8831765e-16 
-8.4886728e-03 0.0000000e+00 -9.8701414e-16 
-8.6237518e-03 0.0000000e+00 -1.0857111e-15 
-8.5548917e-03 0.0000000e+00 -1.1844068e-15 
-8.3378786e-03 0.0000000e+00 -5.6918765e-07 
-8.1160078e-03 0.0000000e+00 -1.1383753e-06 
-8.0019981e-03 0.0000000e+00 -1.7075630e-06 
-8.1085730e-03 0.0000000e+00 -2.2767506e-06 
-8.5484525e-03 0.0000000e+00 -2.8459383e-06 
-9.4343582e-03 0.0000000e+00 -3.4151260e-06 
-1.0879011e-02 0.0000000e+00 -3.9843135e-06 
-1.2995132e-02 0.0000000e+00 -4.5535012e-06 
-1.5895443e-02 0.0000000e+00 -5.1226889e-06 
-1.9692663e-02 0.0000000e+00 -5.6918766e-06 
-2.4499517e-02 0.0000000e+00 -6.2610643e-06 
-3.0428721e-02 0.0000000e+00 -6.8302520e-06 
-3.8003355e-02 0.0000000e+00 -9.6766416e-06 
-4.7342420e-02 0.0000000e+00 -1.2523031e-05 
-5.7952534e-02 0.0000000e+00 -1.5369420e-05 
-6.9340318e-02 0.0000000e+00 -1.8215811e-05 
-8.1012391e-02 0.0000000e+00 -2.1062200e-05 
-9.2475370e-02 0.0000000e+00 -2.3908589e-05 
-1.0323587e-01 0.0000000e+00 -2.6754979e-05 
-1.1280052e-01 0.0000000e+00 -2.9601370e-05 
-1.2067592e-01 0.0000000e+00 -3.2447759e-05 
-1.2636870e-01 0.0000000e+00 -3.5294150e-05 
-1.2938549e-01 0.0000000e+00 -3.8140537e-05 
-1.2923288e-01 0.0000000e+00 -4.0986928e-05 
-1.2907964e-01 0.0000000e+00 -3.8134287e-05 
-1.3209441e-01 0.0000000e+00 -3.5281646e-05 
-1.3778362e-01 0.0000000e+00 -3.2429005e-05 
-1.4565365e-01 0.0000000e+00 -2.9576364e-05 
-1.5521096e-01 0.0000000e+00 -2.6723723e-05 
-1.6596192e-01 0.0000000e+00 -2.3871082e-05 
-1.7741300e-01 0.0000000e+00 -2.1018441e-05 
-1.8907060e-01 0.0000000e+00 -1.8165800e-05 
-2.0044112e-01 0.0000000e+00 -1.5313159e-05 
-2.1103100e-01 0.0000000e+00 -1.2460518e-05 
-2.2034666e-01 0.0000000e+00 -9.6078766e-06 
-2.2789451e-01 0.0000000e+00 -6.7552355e-06 
-2.3379035e-01 0.0000000e+00 -6.1610372e-06 
-2.3855466e-01 0.0000000e+00 -5.5668393e-06 
-2.4230085e-01 0.0000000e+00 -4.9726409e-06 
-2.4514240e-01 0.0000000e+00 -4.3784430e-06 
-2.4719270e-01 0.0000000e+00 -3.7842449e-06 
-2.4856521e-01 0.0000000e+00 -3.1900468e-06 
-2.4937335e-01 0.0000000e+00 -2.5958486e-06 
-2.4973056e-01 0.0000000e+00 -2.0016505e-06 
-2.4975029e-01 0.0000000e+00 -1.4074523e-06 
-2.4954595e-01 0.0000000e+00 -8.1325413e-07 
-2.4923098e-01 0.0000000e+00 -2.1905601e-07 
-2.4891882e-01 0.0000000e+00 3.7514212e-07 
-2.4873899e-01 0.0000000e+00 4.9396294e-07 
-2.4873097e-01 0.0000000e+00 6.1278371e-07 
-2.4887314e-01 0.0000000e+00 7.3160447e-07 
-2.4914391e-01 0.0000000e+00 8.5042529e-07 
-2.4952163e-01 0.0000000e+00 9.6924600e-07 
-2.4998471e-01 0.0000000e+00 1.0880668e-06 
-2.5051153e-01 0.0000000e+00 1.2068876e-06 
-2.5108045e-01 0.0000000e+00 1.3257085e-06 
-2.5166988e-01 0.0000000e+00 1.4445292e-06 
-2.5225821e-01 0.0000000e+00 1.5633500e-06 
-2.5282380e-01 0.0000000e+00 1.6821708e-06 
-2.5334504e-01 0.0000000e+00 1.8009915e-06 
ADJOINT_ROTATION 3 212  float
0.0000000e+00 -1.1117584e-03 0.0000000e+00 
0.0000000e+00 -1.1488383e-03 0.0000000e+00 
0.0000000e+00 -1.2600780e-03 0.0000000e+00 
0.0000000e+00 -1.4454775e-03 0.0000000e+00 
0.0000000e+00 -1.7050367e-03 0.0000000e+00 
0.0000000e+00 -2.0387559e-03 0.0000000e+00 
0.0000000e+00 -2.4466347e-03 0.0000000e+00 
0.0000000e+00 -2.9286733e-03 0.0000000e+00 
0.0000000e+00 -3.4848717e-03 0.0000000e+00 
0.0000000e+00 -4.1152299e-03 0.0000000e+00 
0.0000000e+00 -4.8197480e-03 0.0000000e+00 
0.0000000e+00 -5.5984259e-03 0.0000000e+00 
0.0000000e+00 -6.4512636e-03 0.0000000e+00 
0.0000000e+00 -8.1319464e-03 0.0000000e+00 
0.0000000e+00 -9.3617439e-03 0.0000000e+00 
0.0000000e+00 -1.0140657e-02 0.0000000e+00 
0.0000000e+00 -1.0468687e-02 0.0000000e+00 
0.0000000e+00 -1.0345831e-02 0.0000000e+00 
0.0000000e+00 -9.7720912e-03 0.0000000e+00 
0.0000000e+00 -8.7474659e-03 0.0000000e+00 
0.0000000e+00 -7.2719567e-03 0.0000000e+00 
0.0000000e+00 -5.3455629e-03 0.0000000e+00 
0.0000000e+00 -2.9682848e-03 0.0000000e+00 
0.0000000e+00 -1.4012189e-04 0.0000000e+00 
0.0000000e+00 3.1389254e-03 0.0000000e+00 
0.0000000e+00 4.0032514e-03 0.0000000e+00 
0.0000000e+00 2.8940504e-03 0.0000000e+00 
0.0000000e+00 -1.8867778e-04 0.0000000e+00 
0.0000000e+00 -5.2449331e-03 0.0000000e+00 
0.0000000e+00 -1.2274716e-02 0.0000000e+00 
0.0000000e+00 -2.1278026e-02 0.0000000e+00 
0.0000000e+00 -3.2254864e-02 0.0000000e+00 
0.0000000e+00 -4.5205224e-02 0.0000000e+00 
0.0000000e+00 -6.0129117e-02 0.0000000e+00 
0.0000000e+00 -7.7026539e-02 0.0000000e+00 
0.0000000e+00 -9.5897481e-02 0.0000000e+00 
0.0000000e+00 -1.1674196e-01 0.0000000e+00 
0.0000000e+00 -9.5886841e-02 0.0000000e+00 
0.0000000e+00 -7.7006049e-02 0.0000000e+00 
0.0000000e+00 -6.0099583e-02 0.0000000e+00 
0.0000000e+00 -4.5167442e-02 0.0000000e+00 
0.0000000e+00 -3.2209627e-02 0.0000000e+00 
0.0000000e+00 -2.1226134e-02 0.0000000e+00 
0.0000000e+00 -1.2216966e-02 0.0000000e+00 
0.0000000e+00 -5.1821214e-03 0.0000000e+00 
0.0000000e+00 -1.2160188e-04 0.0000000e+00 
0.0000000e+00 2.9645935e-03 0.0000000e+00 
0.0000000e+00 4.0764646e-03 0.0000000e+00 
0.0000000e+00 3.2140114e-03 0.0000000e+00 
0.0000000e+00 -4.0102263e-05 0.0000000e+00 
0.0000000e+00 -2.8404784e-03 0.0000000e+00 
0.0000000e+00 -5.1871170e-03 0.0000000e+00 
0.0000000e+00 -7.0800176e-03 0.0000000e+00 
0.0000000e+00 -8.5191811e-03 0.0000000e+00 
0.0000000e+00 -9.5046060e-03 0.0000000e+00 
0.0000000e+00 -1.0036294e-02 0.0000000e+00 
0.0000000e+00 -1.0114245e-02 0.0000000e+00 
0.0000000e+00 -9.7384574e-03 0.0000000e+00 
0.0000000e+00 -8.9089321e-03 0.0000000e+00 
0.0000000e+00 -7.6256697e-03 0.0000000e+00 
0.0000000e+00 -5.8886698e-03 0.0000000e+00 
0.0000000e+00 -4.8584645e-03 0.0000000e+00 
0.0000000e+00 -3.9147194e-03 0.0000000e+00 
0.0000000e+00 -3.0574354e-03 0.0000000e+00 
0.0000000e+00 -2.2866114e-03 0.0000000e+00 
0.0000000e+00 -1.6022478e-03 0.0000000e+00 
0.0000000e+00 -1.0043448e-03 0.0000000e+00 
0.0000000e+00 -4.9290224e-04 0.0000000e+00 
0.0000000e+00 -6.7920068e-05 0.0000000e+00 
0.0000000e+00 2.7060165e-04 0.0000000e+00 
0.0000000e+00 5.2266294e-04 0.0000000e+00 
0.0000000e+00 6.8826380e-04 0.0000000e+00 
0.0000000e+00 7.6740421e-04 0.0000000e+00 
0.0000000e+00 -4.5384993e-03 0.0000000e+00 
0.0000000e+00 5.9670289e-03 0.0000000e+00 
0.0000000e+00 -2.0289096e-01 0.0000000e+00 
0.0000000e+00 6.0019926e-03 0.0000000e+00 
0.0000000e+00 -4.2077331e-03 0.0000000e+00 
0.0000000e+00 8.1424695e-04 0.0000000e+00 
0.0000000e+00 -2.8650363e-03 0.0000000e+00 
0.0000000e+00 7.8377379e-03 0.0000000e+00 
0.0000000e+00 -2.8664395e-01 0.0000000e+00 
0.0000000e+00 7.8404667e-03 0.0000000e+00 
0.0000000e+00 -2.7266569e-03 0.0000000e+00 
0.0000000e+00 8.1113441e-04 0.0000000e+00 
0.0000000e+00 -1.4308742e-03 0.0000000e+00 
0.0000000e+00 8.7510543e-03 0.0000000e+00 
0.0000000e+00 -3.6800095e-01 0.0000000e+00 
0.0000000e+00 8.7294336e-03 0.0000000e+00 
0.0000000e+00 -1.4454417e-03 0.0000000e+00 
0.0000000e+00 7.5806660e-04 0.0000000e+00 
0.0000000e+00 -2.3601318e-04 0.0000000e+00 
0.0000000e+00 8.7069767e-03 0.0000000e+00 
0.0000000e+00 -4.4696191e-01 0.0000000e+00 
0.0000000e+00 8.6688939e-03 0.0000000e+00 
0.0000000e+00 -3.6408723e-04 0.0000000e+00 
0.0000000e+00 6.5504346e-04 0.0000000e+00 
0.0000000e+00 7.1954692e-04 0.0000000e+00 
0.0000000e+00 7.7055045e-03 0.0000000e+00 
0.0000000e+00 -5.2352685e-01 0.0000000e+00 
0.0000000e+00 7.6588471e-03 0.0000000e+00 
0.0000000e+00 5.1740650e-04 0.0000000e+00 
0.0000000e+00 5.0206506e-04 0.0000000e+00 
0.0000000e+00 1.4358060e-03 0.0000000e+00 
0.0000000e+00 5.7466393e-03 0.0000000e+00 
0.0000000e+00 4.0230423e-01 0.0000000e+00 
0.0000000e+00 5.6992932e-03 0.0000000e+00 
0.0000000e+00 1.1990395e-03 0.0000000e+00 
0.0000000e+00 2.9913138e-04 0.0000000e+00 
0.0000000e+00 1.9127640e-03 0.0000000e+00 
0.0000000e+00 2.8303801e-03 0.0000000e+00 
0.0000000e+00 3.3053130e-01 0.0000000e+00 
0.0000000e+00 2.7902327e-03 0.0000000e+00 
0.0000000e+00 1.6808116e-03 0.0000000e+00 
0.0000000e+00 4.6242414e-05 0.0000000e+00 
0.0000000e+00 2.1504213e-03 0.0000000e+00 
0.0000000e+00 -1.0432728e-03 0.0000000e+00 
0.0000000e+00 2.6115441e-01 0.0000000e+00 
0.0000000e+00 -1.0683348e-03 0.0000000e+00 
0.0000000e+00 1.9627232e-03 0.0000000e+00 
0.0000000e+00 -2.5660184e-04 0.0000000e+00 
0.0000000e+00 2.1487772e-03 0.0000000e+00 
0.0000000e+00 -5.8743195e-03 0.0000000e+00 
0.0000000e+00 1.9417354e-01 0.0000000e+00 
0.0000000e+00 -5.8764094e-03 0.0000000e+00 
0.0000000e+00 2.0447739e-03 0.0000000e+00 
0.0000000e+00 -6.0940138e-04 0.0000000e+00 
0.0000000e+00 1.9078323e-03 0.0000000e+00 
0.0000000e+00 -1.1662760e-02 0.0000000e+00 
0.0000000e+00 1.2958869e-01 0.0000000e+00 
0.0000000e+00 -1.1633990e-02 0.0000000e+00 
0.0000000e+00 1.9269638e-03 0.0000000e+00 
0.0000000e+00 -1.0121563e-03 0.0000000e+00 
0.0000000e+00 1.4275864e-03 0.0000000e+00 
0.0000000e+00 -1.8408595e-02 0.0000000e+00 
0.0000000e+00 6.7399859e-02 0.0000000e+00 
0.0000000e+00 -1.8341079e-02 0.0000000e+00 
0.0000000e+00 1.6092930e-03 0.0000000e+00 
0.0000000e+00 -1.4648663e-03 0.0000000e+00 
0.0000000e+00 -4.6314658e-03 0.0000000e+00 
0.0000000e+00 -4.5943856e-03 0.0000000e+00 
0.0000000e+00 -4.4831461e-03 0.0000000e+00 
0.0000000e+00 -4.2977463e-03 0.0000000e+00 
0.0000000e+00 -4.0381872e-03 0.0000000e+00 
0.0000000e+00 -3.7044683e-03 0.0000000e+00 
0.0000000e+00 -3.2965892e-03 0.0000000e+00 
0.0000000e+00 -2.8145507e-03 0.0000000e+00 
0.0000000e+00 -2.2583522e-03 0.0000000e+00 
0.0000000e+00 -1.6279940e-03 0.0000000e+00 
0.0000000e+00 -9.2347595e-04 0.0000000e+00 
0.0000000e+00 -1.4479809e-04 0.0000000e+00 
0.0000000e+00 7.0803956e-04 0.0000000e+00 
0.0000000e+00 9.5291610e-04 0.0000000e+00 
0.0000000e+00 7.4690807e-04 0.0000000e+00 
0.0000000e+00 9.0015550e-05 0.0000000e+00 
0.0000000e+00 -1.0177615e-03 0.0000000e+00 
0.0000000e+00 -2.5764231e-03 0.0000000e+00 
0.0000000e+00 -4.5859693e-03 0.0000000e+00 
0.0000000e+00 -7.0464001e-03 0.0000000e+00 
0.0000000e+00 -9.9577149e-03 0.0000000e+00 
0.0000000e+00 -1.3319915e-02 0.0000000e+00 
0.0000000e+00 -1.7132999e-02 0.0000000e+00 
0.0000000e+00 -2.1396969e-02 0.0000000e+00 
0.0000000e+00 -2.6111821e-02 0.0000000e+00 
0.0000000e+00 -3.4156315e-02 0.0000000e+00 
0.0000000e+00 -4.0227283e-02 0.0000000e+00 
0.0000000e+00 -4.4324722e-02 0.0000000e+00 
0.0000000e+00 -4.6448637e-02 0.0000000e+00 
0.0000000e+00 -4.6599023e-02 0.0000000e+00 
0.0000000e+00 -4.4775881e-02 0.0000000e+00 
0.0000000e+00 -4.0979214e-02 0.0000000e+00 
0.0000000e+00 -3.5209019e-02 0.0000000e+00 
0.0000000e+00 -2.7465295e-02 0.0000000e+00 
0.0000000e+00 -1.7748045e-02 0.0000000e+00 
0.0000000e+00 -6.0572685e-03 0.0000000e+00 
0.0000000e+00 7.6070358e-03 0.0000000e+00 
0.0000000e+00 -6.0521406e-03 0.0000000e+00 
0.0000000e+00 -1.7736992e-02 0.0000000e+00 
0.0000000e+00 -2.7447520e-02 0.0000000e+00 
0.0000000e+00 -3.5183724e-02 0.0000000e+00 
0.0000000e+00 -4.0945601e-02 0.0000000e+00 
0.0000000e+00 -4.4733156e-02 0.0000000e+00 
0.0000000e+00 -4.6546388e-02 0.0000000e+00 
0.0000000e+00 -4.6385292e-02 0.0000000e+00 
0.0000000e+00 -4.4249874e-02 0.0000000e+00 
0.0000000e+00 -4.0140133e-02 0.0000000e+00 
0.0000000e+00 -3.4056064e-02 0.0000000e+00 
0.0000000e+00 -2.5997674e-02 0.0000000e+00 
0.0000000e+00 -2.1244664e-02 0.0000000e+00 
0.0000000e+00 -1.6945392e-02 0.0000000e+00 
0.0000000e+00 -1.3099858e-02 0.0000000e+00 
0.0000000e+00 -9.7080600e-03 0.0000000e+00 
0.0000000e+00 -6.7700008e-03 0.0000000e+00 
0.0000000e+00 -4.2856792e-03 0.0000000e+00 
0.0000000e+00 -2.2550949e-03 0.0000000e+00 
0.0000000e+00 -6.7824841e-04 0.0000000e+00 
0.0000000e+00 4.4486052e-04 0.0000000e+00 
0.0000000e+00 1.1142318e-03 0.0000000e+00 
0.0000000e+00 1.3298654e-03 0.0000000e+00 
0.0000000e+00 1.0917615e-03 0.0000000e+00 
0.0000000e+00 3.6128800e-04 0.0000000e+00 
0.0000000e+00 -2.8272509e-04 0.0000000e+00 