# vtk DataFile Version 4.0
vtk output
ASCII
DATASET UNSTRUCTURED_GRID
POINTS 212 float
0.0000000e+00 0.0000000e+00 0.0000000e+00 
0.0000000e+00 0.0000000e+00 2.5000000e-01 
0.0000000e+00 0.0000000e+00 5.0000000e-01 
0.0000000e+00 0.0000000e+00 7.5000000e-01 
0.0000000e+00 0.0000000e+00 1.0000000e+00 
0.0000000e+00 0.0000000e+00 1.2500000e+00 
0.0000000e+00 0.0000000e+00 1.5000000e+00 
0.0000000e+00 0.0000000e+00 1.7500000e+00 
0.0000000e+00 0.0000000e+00 2.0000000e+00 
0.0000000e+00 0.0000000e+00 2.2500000e+00 
0.0000000e+00 0.0000000e+00 2.5000000e+00 
0.0000000e+00 0.0000000e+00 2.7500000e+00 
0.0000000e+00 0.0000000e+00 3.0000000e+00 
0.0000000e+00 0.0000000e+00 3.2500000e+00 
0.0000000e+00 0.0000000e+00 3.5000000e+00 
0.0000000e+00 0.0000000e+00 3.7500000e+00 
0.0000000e+00 0.0000000e+00 4.0000000e+00 
0.0000000e+00 0.0000000e+00 4.2500000e+00 
0.0000000e+00 0.0000000e+00 4.5000000e+00 
0.0000000e+00 0.0000000e+00 4.7500000e+00 
0.0000000e+00 0.0000000e+00 5.0000000e+00 
0.0000000e+00 0.0000000e+00 5.2500000e+00 
0.0000000e+00 0.0000000e+00 5.5000000e+00 
0.0000000e+00 0.0000000e+00 5.7500000e+00 
0.0000000e+00 0.0000000e+00 6.0000000e+00 
0.0000000e+00 0.0000000e+00 6.2500000e+00 
0.0000000e+00 0.0000000e+00 6.5000000e+00 
0.0000000e+00 0.0000000e+00 6.7500000e+00 
0.0000000e+00 0.0000000e+00 7.0000000e+00 
0.0000000e+00 0.0000000e+00 7.2500000e+00 
0.0000000e+00 0.0000000e+00 7.5000000e+00 
0.0000000e+00 0.0000000e+00 7.7500000e+00 
0.0000000e+00 0.0000000e+00 8.0000000e+00 
0.0000000e+00 0.0000000e+00 8.2500000e+00 
0.0000000e+00 0.0000000e+00 8.5000000e+00 
0.0000000e+00 0.0000000e+00 8.7500000e+00 
0.0000000e+00 0.0000000e+00 9.0000000e+00 
0.0000000e+00 0.0000000e+00 9.2500000e+00 
0.0000000e+00 0.0000000e+00 9.5000000e+00 
0.0000000e+00 0.0000000e+00 9.7500000e+00 
0.0000000e+00 0.0000000e+00 1.0000000e+01 
0.0000000e+00 0.0000000e+00 1.0250000e+01 
0.0000000e+00 0.0000000e+00 1.0500000e+01 
0.0000000e+00 0.0000000e+00 1.0750000e+01 
0.0000000e+00 0.0000000e+00 1.1000000e+01 
0.0000000e+00 0.0000000e+00 1.1250000e+01 
0.0000000e+00 0.0000000e+00 1.1500000e+01 
0.0000000e+00 0.0000000e+00 1.1750000e+01 
0.0000000e+00 0.0000000e+00 1.2000000e+01 
0.0000000e+00 0.0000000e+00 1.2250000e+01 
0.0000000e+00 0.0000000e+00 1.2500000e+01 
0.0000000e+00 0.0000000e+00 1.2750000e+01 
0.0000000e+00 0.0000000e+00 1.3000000e+01 
0.0000000e+00 0.0000000e+00 1.3250000e+01 
0.0000000e+00 0.0000000e+00 1.3500000e+01 
0.0000000e+00 0.0000000e+00 1.3750000e+01 
0.0000000e+00 0.0000000e+00 1.4000000e+01 
0.0000000e+00 0.0000000e+00 1.4250000e+01 
0.0000000e+00 0.0000000e+00 1.4500000e+01 
0.0000000e+00 0.0000000e+00 1.4750000e+01 
0.0000000e+00 0.0000000e+00 1.5000000e+01 
0.0000000e+00 0.0000000e+00 1.5250000e+01 
0.0000000e+00 0.0000000e+00 1.5500000e+01 
0.0000000e+00 0.0000000e+00 1.5750000e+01 
0.0000000e+00 0.0000000e+00 1.6000000e+01 
0.0000000e+00 0.0000000e+00 1.6250000e+01 
0.0000000e+00 0.0000000e+00 1.6500000e+01 
0.0000000e+00 0.0000000e+00 1.6750000e+01 
0.0000000e+00 0.0000000e+00 1.7000000e+01 
0.0000000e+00 0.0000000e+00 1.7250000e+01 
0.0000000e+00 0.0000000e+00 1.7500000e+01 
0.0000000e+00 0.0000000e+00 1.7750000e+01 
0.0000000e+00 0.0000000e+00 1.8000000e+01 
5.0000000e-01 0.0000000e+00 3.0000000e+00 
5.0000000e-01 0.0000000e+00 6.0000000e+00 
5.0000000e-01 0.0000000e+00 9.0000000e+00 
5.0000000e-01 0.0000000e+00 1.2000000e+01 
5.0000000e-01 0.0000000e+00 1.5000000e+01 
5.0000000e-01 0.0000000e+00 1.8000000e+01 
1.0000000e+00 0.0000000e+00 3.0000000e+00 
1.0000000e+00 0.0000000e+00 6.0000000e+00 
1.0000000e+00 0.0000000e+00 9.0000000e+00 
1.0000000e+00 0.0000000e+00 1.2000000e+01 
1.0000000e+00 0.0000000e+00 1.5000000e+01 
1.0000000e+00 0.0000000e+00 1.8000000e+01 
1.5000000e+00 0.0000000e+00 3.0000000e+00 
1.5000000e+00 0.0000000e+00 6.0000000e+00 
1.5000000e+00 0.0000000e+00 9.0000000e+00 
1.5000000e+00 0.0000000e+00 1.2000000e+01 
1.5000000e+00 0.0000000e+00 1.5000000e+01 
1.5000000e+00 0.0000000e+00 1.8000000e+01 
2.0000000e+00 0.0000000e+00 3.0000000e+00 
2.0000000e+00 0.0000000e+00 6.0000000e+00 
2.0000000e+00 0.0000000e+00 9.0000000e+00 
2.0000000e+00 0.0000000e+00 1.2000000e+01 
2.0000000e+00 0.0000000e+00 1.5000000e+01 
2.0000000e+00 0.0000000e+00 1.8000000e+01 
2.5000000e+00 0.0000000e+00 3.0000000e+00 
2.5000000e+00 0.0000000e+00 6.0000000e+00 
2.5000000e+00 0.0000000e+00 9.0000000e+00 
2.5000000e+00 0.0000000e+00 1.2000000e+01 
2.5000000e+00 0.0000000e+00 1.5000000e+01 
2.5000000e+00 0.0000000e+00 1.8000000e+01 
3.0000000e+00 0.0000000e+00 3.0000000e+00 
3.0000000e+00 0.0000000e+00 6.0000000e+00 
3.0000000e+00 0.0000000e+00 9.0000000e+00 
3.0000000e+00 0.0000000e+00 1.2000000e+01 
3.0000000e+00 0.0000000e+00 1.5000000e+01 
3.0000000e+00 0.0000000e+00 1.8000000e+01 
3.5000000e+00 0.0000000e+00 3.0000000e+00 
3.5000000e+00 0.0000000e+00 6.0000000e+00 
3.5000000e+00 0.0000000e+00 9.0000000e+00 
3.5000000e+00 0.0000000e+00 1.2000000e+01 
3.5000000e+00 0.0000000e+00 1.5000000e+01 
3.5000000e+00 0.0000000e+00 1.8000000e+01 
4.0000000e+00 0.0000000e+00 3.0000000e+00 
4.0000000e+00 0.0000000e+00 6.0000000e+00 
4.0000000e+00 0.0000000e+00 9.0000000e+00 
4.0000000e+00 0.0000000e+00 1.2000000e+01 
4.0000000e+00 0.0000000e+00 1.5000000e+01 
4.0000000e+00 0.0000000e+00 1.8000000e+01 
4.5000000e+00 0.0000000e+00 3.0000000e+00 
4.5000000e+00 0.0000000e+00 6.0000000e+00 
4.5000000e+00 0.0000000e+00 9.0000000e+00 
4.5000000e+00 0.0000000e+00 1.2000000e+01 
4.5000000e+00 0.0000000e+00 1.5000000e+01 
4.5000000e+00 0.0000000e+00 1.8000000e+01 
5.0000000e+00 0.0000000e+00 3.0000000e+00 
5.0000000e+00 0.0000000e+00 6.0000000e+00 
5.0000000e+00 0.0000000e+00 9.0000000e+00 
5.0000000e+00 0.0000000e+00 1.2000000e+01 
5.0000000e+00 0.0000000e+00 1.5000000e+01 
5.0000000e+00 0.0000000e+00 1.8000000e+01 
5.5000000e+00 0.0000000e+00 3.0000000e+00 
5.5000000e+00 0.0000000e+00 6.0000000e+00 
5.5000000e+00 0.0000000e+00 9.0000000e+00 
5.5000000e+00 0.0000000e+00 1.2000000e+01 
5.5000000e+00 0.0000000e+00 1.5000000e+01 
5.5000000e+00 0.0000000e+00 1.8000000e+01 
6.0000000e+00 0.0000000e+00 0.0000000e+00 
6.0000000e+00 0.0000000e+00 2.5000000e-01 
6.0000000e+00 0.0000000e+00 5.0000000e-01 
6.0000000e+00 0.0000000e+00 7.5000000e-01 
6.0000000e+00 0.0000000e+00 1.0000000e+00 
6.0000000e+00 0.0000000e+00 1.2500000e+00 
6.0000000e+00 0.0000000e+00 1.5000000e+00 
6.0000000e+00 0.0000000e+00 1.7500000e+00 
6.0000000e+00 0.0000000e+00 2.0000000e+00 
6.0000000e+00 0.0000000e+00 2.2500000e+00 
6.0000000e+00 0.0000000e+00 2.5000000e+00 
6.0000000e+00 0.0000000e+00 2.7500000e+00 
6.0000000e+00 0.0000000e+00 3.0000000e+00 
6.0000000e+00 0.0000000e+00 3.2500000e+00 
6.0000000e+00 0.0000000e+00 3.5000000e+00 
6.0000000e+00 0.0000000e+00 3.7500000e+00 
6.0000000e+00 0.0000000e+00 4.0000000e+00 
6.0000000e+00 0.0000000e+00 4.2500000e+00 
6.0000000e+00 0.0000000e+00 4.5000000e+00 
6.0000000e+00 0.0000000e+00 4.7500000e+00 
6.0000000e+00 0.0000000e+00 5.0000000e+00 
6.0000000e+00 0.0000000e+00 5.2500000e+00 
6.0000000e+00 0.0000000e+00 5.5000000e+00 
6.0000000e+00 0.0000000e+00 5.7500000e+00 
6.0000000e+00 0.0000000e+00 6.0000000e+00 
6.0000000e+00 0.0000000e+00 6.2500000e+00 
6.0000000e+00 0.0000000e+00 6.5000000e+00 
6.0000000e+00 0.0000000e+00 6.7500000e+00 
6.0000000e+00 0.0000000e+00 7.0000000e+00 
6.0000000e+00 0.0000000e+00 7.2500000e+00 
6.0000000e+00 0.0000000e+00 7.5000000e+00 
6.0000000e+00 0.0000000e+00 7.7500000e+00 
6.0000000e+00 0.0000000e+00 8.0000000e+00 
6.0000000e+00 0.0000000e+00 8.2500000e+00 
6.0000000e+00 0.0000000e+00 8.5000000e+00 
6.0000000e+00 0.0000000e+00 8.7500000e+00 
6.0000000e+00 0.0000000e+00 9.0000000e+00 
6.0000000e+00 0.0000000e+00 9.2500000e+00 
6.0000000e+00 0.0000000e+00 9.5000000e+00 
6.0000000e+00 0.0000000e+00 9.7500000e+00 
6.0000000e+00 0.0000000e+00 1.0000000e+01 
6.0000000e+00 0.0000000e+00 1.0250000e+01 
6.0000000e+00 0.0000000e+00 1.0500000e+01 
6.0000000e+00 0.0000000e+00 1.0750000e+01 
6.0000000e+00 0.0000000e+00 1.1000000e+01 
6.0000000e+00 0.0000000e+00 1.1250000e+01 
6.0000000e+00 0.0000000e+00 1.1500000e+01 
6.0000000e+00 0.0000000e+00 1.1750000e+01 
6.0000000e+00 0.0000000e+00 1.2000000e+01 
6.0000000e+00 0.0000000e+00 1.2250000e+01 
6.0000000e+00 0.0000000e+00 1.2500000e+01 
6.0000000e+00 0.0000000e+00 1.2750000e+01 
6.0000000e+00 0.0000000e+00 1.3000000e+01 
6.0000000e+00 0.0000000e+00 1.3250000e+01 
6.0000000e+00 0.0000000e+00 1.3500000e+01 
6.0000000e+00 0.0000000e+00 1.3750000e+01 
6.0000000e+00 0.0000000e+00 1.4000000e+01 
6.0000000e+00 0.0000000e+00 1.4250000e+01 
6.0000000e+00 0.0000000e+00 1.4500000e+01 
6.0000000e+00 0.0000000e+00 1.4750000e+01 
6.0000000e+00 0.0000000e+00 1.5000000e+01 
6.0000000e+00 0.0000000e+00 1.5250000e+01 
6.0000000e+00 0.0000000e+00 1.5500000e+01 
6.0000000e+00 0.0000000e+00 1.5750000e+01 
6.0000000e+00 0.0000000e+00 1.6000000e+01 
6.0000000e+00 0.0000000e+00 1.6250000e+01 
6.0000000e+00 0.0000000e+00 1.6500000e+01 
6.0000000e+00 0.0000000e+00 1.6750000e+01 
6.0000000e+00 0.0000000e+00 1.7000000e+01 
6.0000000e+00 0.0000000e+00 1.7250000e+01 
6.0000000e+00 0.0000000e+00 1.7500000e+01 
6.0000000e+00 0.0000000e+00 1.7750000e+01 
6.0000000e+00 0.0000000e+00 1.8000000e+01 

CELLS 216 648
2 0 1
2 1 2
2 2 3
2 3 4
2 4 5
2 5 6
2 6 7
2 7 8
2 8 9
2 9 10
2 10 11
2 11 12
2 12 13
2 13 14
2 14 15
2 15 16
2 16 17
2 17 18
2 18 19
2 19 20
2 20 21
2 21 22
2 22 23
2 23 24
2 24 25
2 25 26
2 26 27
2 27 28
2 28 29
2 29 30
2 30 31
2 31 32
2 32 33
2 33 34
2 34 35
2 35 36
2 36 37
2 37 38
2 38 39
2 39 40
2 40 41
2 41 42
2 42 43
2 43 44
2 44 45
2 45 46
2 46 47
2 47 48
2 48 49
2 49 50
2 50 51
2 51 52
2 52 53
2 53 54
2 54 55
2 55 56
2 56 57
2 57 58
2 58 59
2 59 60
2 60 61
2 61 62
2 62 63
2 63 64
2 64 65
2 65 66
2 66 67
2 67 68
2 68 69
2 69 70
2 70 71
2 71 72
2 139 140
2 140 141
2 141 142
2 142 143
2 143 144
2 144 145
2 145 146
2 146 147
2 147 148
2 148 149
2 149 150
2 150 151
2 151 152
2 152 153
2 153 154
2 154 155
2 155 156
2 156 157
2 157 158
2 158 159
2 159 160
2 160 161
2 161 162
2 162 163
2 163 164
2 164 165
2 165 166
2 166 167
2 167 168
2 168 169
2 169 170
2 170 171
2 171 172
2 172 173
2 173 174
2 174 175
2 175 176
2 176 177
2 177 178
2 178 179
2 179 180
2 180 181
2 181 182
2 182 183
2 183 184
2 184 185
2 185 186
2 186 187
2 187 188
2 188 189
2 189 190
2 190 191
2 191 192
2 192 193
2 193 194
2 194 195
2 195 196
2 196 197
2 197 198
2 198 199
2 199 200
2 200 201
2 201 202
2 202 203
2 203 204
2 204 205
2 205 206
2 206 207
2 207 208
2 208 209
2 209 210
2 210 211
2 12 73
2 73 79
2 79 85
2 85 91
2 91 97
2 97 103
2 103 109
2 109 115
2 115 121
2 121 127
2 127 133
2 133 151
2 24 74
2 74 80
2 80 86
2 86 92
2 92 98
2 98 104
2 104 110
2 110 116
2 116 122
2 122 128
2 128 134
2 134 163
2 36 75
2 75 81
2 81 87
2 87 93
2 93 99
2 99 105
2 105 111
2 111 117
2 117 123
2 123 129
2 129 135
2 135 175
2 48 76
2 76 82
2 82 88
2 88 94
2 94 100
2 100 106
2 106 112
2 112 118
2 118 124
2 124 130
2 130 136
2 136 187
2 60 77
2 77 83
2 83 89
2 89 95
2 95 101
2 101 107
2 107 113
2 113 119
2 119 125
2 125 131
2 131 137
2 137 199
2 72 78
2 78 84
2 84 90
2 90 96
2 96 102
2 102 108
2 108 114
2 114 120
2 120 126
2 126 132
2 132 138
2 138 211

CELL_TYPES 216
3
3
3
3
3
3
3
3
3
3
3
3
3
3
3
3
3
3
3
3
3
3
3
3
3
3
3
3
3
3
3
3
3
3
3
3
3
3
3
3
3
3
3
3
3
3
3
3
3
3
3
3
3
3
3
3
3
3
3
3
3
3
3
3
3
3
3
3
3
3
3
3
3
3
3
3
3
3
3
3
3
3
3
3
3
3
3
3
3
3
3
3
3
3
3
3
3
3
3
3
3
3
3
3
3
3
3
3
3
3
3
3
3
3
3
3
3
3
3
3
3
3
3
3
3
3
3
3
3
3
3
3
3
3
3
3
3
3
3
3
3
3
3
3
3
3
3
3
3
3
3
3
3
3
3
3
3
3
3
3
3
3
3
3
3
3
3
3
3
3
3
3
3
3
3
3
3
3
3
3
3
3
3
3
3
3
3
3
3
3
3
3
3
3
3
3
3
3
3
3
3
3
3
3
3
3
3
3
3
3
3
3
3
3
3
3
POINT_DATA 212
FIELD FieldData 7
DISPLACEMENT 3 212  float
0.0000000e+00 0.0000000e+00 0.0000000e+00 
-2.0600596e-07 0.0000000e+00 -4.4059661e-08 
-4.0344344e-07 0.0000000e+00 -8.8119322e-08 
-5.8374388e-07 0.0000000e+00 -1.3217898e-07 
-7.3833888e-07 0.0000000e+00 -1.7623864e-07 
-8.5865986e-07 0.0000000e+00 -2.2029829e-07 
-9.3613829e-07 0.0000000e+00 -2.6435796e-07 
-9.6220583e-07 0.0000000e+00 -3.0841761e-07 
-9.2829379e-07 0.0000000e+00 -3.5247729e-07 
-8.2583375e-07 0.0000000e+00 -3.9653693e-07 
-6.4625721e-07 0.0000000e+00 -4.4059658e-07 
-3.8099569e-07 0.0000000e+00 -4.8465625e-07 
-2.1480680e-08 0.0000000e+00 -5.2871593e-07 
3.0271511e-07 0.0000000e+00 -5.6543229e-07 
4.7498361e-07 0.0000000e+00 -6.0214870e-07 
5.2334019e-07 0.0000000e+00 -6.3886506e-07 
4.7580036e-07 0.0000000e+00 -6.7558142e-07 
3.6037957e-07 0.0000000e+00 -7.1229783e-07 
2.0509320e-07 0.0000000e+00 -7.4901419e-07 
3.7956745e-08 0.0000000e+00 -7.8573061e-07 
-1.1301437e-07 0.0000000e+00 -8.2244696e-07 
-2.1980472e-07 0.0000000e+00 -8.5916338e-07 
-2.5439883e-07 0.0000000e+00 -8.9587974e-07 
-1.8878129e-07 0.0000000e+00 -9.3259609e-07 
5.0633777e-09 0.0000000e+00 -9.6931251e-07 
2.0707917e-07 0.0000000e+00 -9.9868566e-07 
2.9415409e-07 0.0000000e+00 -1.0280587e-06 
2.8971962e-07 0.0000000e+00 -1.0574319e-06 
2.1720720e-07 0.0000000e+00 -1.0868049e-06 
1.0004828e-07 0.0000000e+00 -1.1161781e-06 
-3.8325673e-08 0.0000000e+00 -1.1455511e-06 
-1.7448322e-07 0.0000000e+00 -1.1749243e-06 
-2.8499289e-07 0.0000000e+00 -1.2042974e-06 
-3.4642326e-07 0.0000000e+00 -1.2336704e-06 
-3.3534286e-07 0.0000000e+00 -1.2630436e-06 
-2.2832025e-07 0.0000000e+00 -1.2924166e-06 
-1.9239372e-09 0.0000000e+00 -1.3217898e-06 
2.2136857e-07 0.0000000e+00 -1.3438196e-06 
3.2024099e-07 0.0000000e+00 -1.3658495e-06 
3.1986656e-07 0.0000000e+00 -1.3878793e-06 
2.4541853e-07 0.0000000e+00 -1.4099091e-06 
1.2207013e-07 0.0000000e+00 -1.4319389e-06 
-2.5005415e-08 0.0000000e+00 -1.4539687e-06 
-1.7063486e-07 0.0000000e+00 -1.4759986e-06 
-2.8964496e-07 0.0000000e+00 -1.4980284e-06 
-3.5686250e-07 0.0000000e+00 -1.5200583e-06 
-3.4711422e-07 0.0000000e+00 -1.5420881e-06 
-2.3522688e-07 0.0000000e+00 -1.5641180e-06 
3.9727261e-09 0.0000000e+00 -1.5861477e-06 
2.4958226e-07 0.0000000e+00 -1.6008343e-06 
3.7830159e-07 0.0000000e+00 -1.6155209e-06 
4.1170736e-07 0.0000000e+00 -1.6302074e-06 
3.7137625e-07 0.0000000e+00 -1.6448939e-06 
2.7888484e-07 0.0000000e+00 -1.6595804e-06 
1.5580980e-07 0.0000000e+00 -1.6742671e-06 
2.3727756e-08 0.0000000e+00 -1.6889536e-06 
-9.5784642e-08 0.0000000e+00 -1.7036401e-06 
-1.8115077e-07 0.0000000e+00 -1.7183268e-06 
-2.1079396e-07 0.0000000e+00 -1.7330133e-06 
-1.6313761e-07 0.0000000e+00 -1.7476998e-06 
-1.6605064e-08 0.0000000e+00 -1.7623863e-06 
1.0290613e-07 0.0000000e+00 -1.7697297e-06 
7.9520383e-08 0.0000000e+00 -1.7770730e-06 
-5.0152721e-08 0.0000000e+00 -1.7844162e-06 
-2.4950361e-07 0.0000000e+00 -1.7917595e-06 
-4.8192271e-07 0.0000000e+00 -1.7991027e-06 
-7.1080046e-07 0.0000000e+00 -1.8064460e-06 
-8.9952721e-07 0.0000000e+00 -1.8137893e-06 
-1.0114935e-06 0.0000000e+00 -1.8211326e-06 
-1.0100897e-06 0.0000000e+00 -1.8284759e-06 
-8.5870619e-07 0.0000000e+00 -1.8358191e-06 
-5.2073341e-07 0.0000000e+00 -1.8431624e-06 
4.0438163e-08 0.0000000e+00 -1.8505057e-06 
-1.7900566e-08 0.0000000e+00 -1.8157368e-06 
4.2194812e-09 0.0000000e+00 -1.9956310e-06 
-1.6032810e-09 0.0000000e+00 -2.3968694e-06 
3.3106053e-09 0.0000000e+00 -2.6930416e-06 
-1.3837554e-08 0.0000000e+00 -2.6711264e-06 
3.3698470e-08 0.0000000e+00 -3.6425663e-06 
-1.4320453e-08 0.0000000e+00 -3.6665178e-06 
3.3755851e-09 0.0000000e+00 -3.6331103e-06 
-1.2826248e-09 0.0000000e+00 -4.0742439e-06 
2.6484843e-09 0.0000000e+00 -4.3964460e-06 
-1.1070043e-08 0.0000000e+00 -4.2124047e-06 
2.6958775e-08 0.0000000e+00 -5.9065619e-06 
-1.0740340e-08 0.0000000e+00 -5.6024010e-06 
2.5316889e-09 0.0000000e+00 -5.4030916e-06 
-9.6196862e-10 0.0000000e+00 -5.8752553e-06 
1.9863631e-09 0.0000000e+00 -6.2177028e-06 
-8.3025320e-09 0.0000000e+00 -5.9075633e-06 
2.0219082e-08 0.0000000e+00 -8.1638336e-06 
-7.1602266e-09 0.0000000e+00 -7.2510957e-06 
1.6877926e-09 0.0000000e+00 -6.9332855e-06 
-6.4131239e-10 0.0000000e+00 -7.4276131e-06 
1.3242422e-09 0.0000000e+00 -7.7845216e-06 
-5.5350213e-09 0.0000000e+00 -7.3843121e-06 
1.3479387e-08 0.0000000e+00 -1.0042092e-05 
-3.5801133e-09 0.0000000e+00 -8.3466812e-06 
8.4389629e-10 0.0000000e+00 -7.9577703e-06 
-3.2065617e-10 0.0000000e+00 -8.4653966e-06 
6.6212108e-10 0.0000000e+00 -8.8309816e-06 
-2.7675107e-09 0.0000000e+00 -8.3767300e-06 
6.7396937e-09 0.0000000e+00 -1.1275415e-05 
1.2054161e-17 0.0000000e+00 -8.7296039e-06 
1.8002387e-17 0.0000000e+00 -8.3169934e-06 
2.2170381e-17 0.0000000e+00 -8.8290526e-06 
2.5785506e-17 0.0000000e+00 -9.1975298e-06 
2.9287246e-17 0.0000000e+00 -8.7252638e-06 
3.1662992e-17 0.0000000e+00 -1.1704252e-05 
3.5801135e-09 0.0000000e+00 -8.3466812e-06 
-8.4389623e-10 0.0000000e+00 -7.9577703e-06 
3.2065622e-10 0.0000000e+00 -8.4653966e-06 
-6.6212102e-10 0.0000000e+00 -8.8309816e-06 
2.7675109e-09 0.0000000e+00 -8.3767300e-06 
-6.7396937e-09 0.0000000e+00 -1.1275415e-05 
7.1602266e-09 0.0000000e+00 -7.2510957e-06 
-1.6877925e-09 0.0000000e+00 -6.9332855e-06 
6.4131245e-10 0.0000000e+00 -7.4276131e-06 
-1.3242420e-09 0.0000000e+00 -7.7845216e-06 
5.5350218e-09 0.0000000e+00 -7.3843121e-06 
-1.3479387e-08 0.0000000e+00 -1.0042092e-05 
1.0740340e-08 0.0000000e+00 -5.6024010e-06 
-2.5316889e-09 0.0000000e+00 -5.4030916e-06 
9.6196862e-10 0.0000000e+00 -5.8752553e-06 
-1.9863631e-09 0.0000000e+00 -6.2177028e-06 
8.3025320e-09 0.0000000e+00 -5.9075633e-06 
-2.0219082e-08 0.0000000e+00 -8.1638336e-06 
1.4320453e-08 0.0000000e+00 -3.6665178e-06 
-3.3755849e-09 0.0000000e+00 -3.6331103e-06 
1.2826248e-09 0.0000000e+00 -4.0742439e-06 
-2.6484841e-09 0.0000000e+00 -4.3964460e-06 
1.1070044e-08 0.0000000e+00 -4.2124047e-06 
-2.6958775e-08 0.0000000e+00 -5.9065619e-06 
1.7900566e-08 0.0000000e+00 -1.8157368e-06 
-4.2194812e-09 0.0000000e+00 -1.9956310e-06 
1.6032811e-09 0.0000000e+00 -2.3968694e-06 
-3.3106051e-09 0.0000000e+00 -2.6930416e-06 
1.3837554e-08 0.0000000e+00 -2.6711264e-06 
-3.3698470e-08 0.0000000e+00 -3.6425663e-06 
0.0000000e+00 0.0000000e+00 0.0000000e+00 
2.0600596e-07 0.0000000e+00 -4.4059661e-08 
4.0344344e-07 0.0000000e+00 -8.8119322e-08 
5.8374388e-07 0.0000000e+00 -1.3217898e-07 
7.3833888e-07 0.0000000e+00 -1.7623864e-07 
8.5865986e-07 0.0000000e+00 -2.2029829e-07 
9.3613829e-07 0.0000000e+00 -2.6435796e-07 
9.6220583e-07 0.0000000e+00 -3.0841761e-07 
9.2829379e-07 0.0000000e+00 -3.5247729e-07 
8.2583375e-07 0.0000000e+00 -3.9653693e-07 
6.4625721e-07 0.0000000e+00 -4.4059658e-07 
3.8099569e-07 0.0000000e+00 -4.8465625e-07 
2.1480680e-08 0.0000000e+00 -5.2871593e-07 
-3.0271511e-07 0.0000000e+00 -5.6543229e-07 
-4.7498361e-07 0.0000000e+00 -6.0214870e-07 
-5.2334019e-07 0.0000000e+00 -6.3886506e-07 
-4.7580036e-07 0.0000000e+00 -6.7558142e-07 
-3.6037957e-07 0.0000000e+00 -7.1229783e-07 
-2.0509320e-07 0.0000000e+00 -7.4901419e-07 
-3.7956745e-08 0.0000000e+00 -7.8573061e-07 
1.1301438e-07 0.0000000e+00 -8.2244696e-07 
2.1980472e-07 0.0000000e+00 -8.5916338e-07 
2.5439883e-07 0.0000000e+00 -8.9587974e-07 
1.8878129e-07 0.0000000e+00 -9.3259609e-07 
-5.0633777e-09 0.0000000e+00 -9.6931251e-07 
-2.0707917e-07 0.0000000e+00 -9.9868566e-07 
-2.9415409e-07 0.0000000e+00 -1.0280587e-06 
-2.8971962e-07 0.0000000e+00 -1.0574319e-06 
-2.1720720e-07 0.0000000e+00 -1.0868049e-06 
-1.0004828e-07 0.0000000e+00 -1.1161781e-06 
3.8325673e-08 0.0000000e+00 -1.1455511e-06 
1.7448322e-07 0.0000000e+00 -1.1749243e-06 
2.8499289e-07 0.0000000e+00 -1.2042974e-06 
3.4642326e-07 0.0000000e+00 -1.2336704e-06 
3.3534286e-07 0.0000000e+00 -1.2630436e-06 
2.2832025e-07 0.0000000e+00 -1.2924166e-06 
1.9239372e-09 0.0000000e+00 -1.3217898e-06 
-2.2136857e-07 0.0000000e+00 -1.3438196e-06 
-3.2024099e-07 0.0000000e+00 -1.3658495e-06 
-3.1986656e-07 0.0000000e+00 -1.3878793e-06 
-2.4541853e-07 0.0000000e+00 -1.4099091e-06 
-1.2207013e-07 0.0000000e+00 -1.4319389e-06 
2.5005415e-08 0.0000000e+00 -1.4539687e-06 
1.7063486e-07 0.0000000e+00 -1.4759986e-06 
2.8964496e-07 0.0000000e+00 -1.4980284e-06 
3.5686250e-07 0.0000000e+00 -1.5200583e-06 
3.4711422e-07 0.0000000e+00 -1.5420881e-06 
2.3522688e-07 0.0000000e+00 -1.5641180e-06 
-3.9727261e-09 0.0000000e+00 -1.5861477e-06 
-2.4958226e-07 0.0000000e+00 -1.6008343e-06 
-3.7830159e-07 0.0000000e+00 -1.6155209e-06 
-4.1170736e-07 0.0000000e+00 -1.6302074e-06 
-3.7137625e-07 0.0000000e+00 -1.6448939e-06 
-2.7888484e-07 0.0000000e+00 -1.6595804e-06 
-1.5580980e-07 0.0000000e+00 -1.6742671e-06 
-2.3727756e-08 0.0000000e+00 -1.6889536e-06 
9.5784642e-08 0.0000000e+00 -1.7036401e-06 
1.8115077e-07 0.0000000e+00 -1.7183268e-06 
2.1079396e-07 0.0000000e+00 -1.7330133e-06 
1.6313761e-07 0.0000000e+00 -1.7476998e-06 
1.6605064e-08 0.0000000e+00 -1.7623863e-06 
-1.0290613e-07 0.0000000e+00 -1.7697297e-06 
-7.9520383e-08 0.0000000e+00 -1.7770730e-06 
5.0152721e-08 0.0000000e+00 -1.7844162e-06 
2.4950361e-07 0.0000000e+00 -1.7917595e-06 
4.8192271e-07 0.0000000e+00 -1.7991027e-06 
7.1080046e-07 0.0000000e+00 -1.8064460e-06 
8.9952721e-07 0.0000000e+00 -1.8137893e-06 
1.0114935e-06 0.0000000e+00 -1.8211326e-06 
1.0100897e-06 0.0000000e+00 -1.8284759e-06 
8.5870619e-07 0.0000000e+00 -1.8358191e-06 
5.2073341e-07 0.0000000e+00 -1.8431624e-06 
-4.0438163e-08 0.0000000e+00 -1.8505057e-06 
ROTATION 3 212  float
0.0000000e+00 -8.2973622e-07 0.0000000e+00 
0.0000000e+00 -8.1259918e-07 0.0000000e+00 
0.0000000e+00 -7.6118823e-07 0.0000000e+00 
0.0000000e+00 -6.7550320e-07 0.0000000e+00 
0.0000000e+00 -5.5554420e-07 0.0000000e+00 
0.0000000e+00 -4.0131121e-07 0.0000000e+00 
0.0000000e+00 -2.1280422e-07 0.0000000e+00 
0.0000000e+00 9.9767732e-09 0.0000000e+00 
0.0000000e+00 2.6703177e-07 0.0000000e+00 
0.0000000e+00 5.5836074e-07 0.0000000e+00 
0.0000000e+00 8.8396376e-07 0.0000000e+00 
0.0000000e+00 1.2438408e-06 0.0000000e+00 
0.0000000e+00 1.6379918e-06 0.0000000e+00 
0.0000000e+00 9.7425163e-07 0.0000000e+00 
0.0000000e+00 4.2257321e-07 0.0000000e+00 
0.0000000e+00 -1.7043396e-08 0.0000000e+00 
0.0000000e+00 -3.4459822e-07 0.0000000e+00 
0.0000000e+00 -5.6009128e-07 0.0000000e+00 
0.0000000e+00 -6.6352260e-07 0.0000000e+00 
0.0000000e+00 -6.5489212e-07 0.0000000e+00 
0.0000000e+00 -5.3419990e-07 0.0000000e+00 
0.0000000e+00 -3.0144588e-07 0.0000000e+00 
0.0000000e+00 4.3369909e-08 0.0000000e+00 
0.0000000e+00 5.0024744e-07 0.0000000e+00 
0.0000000e+00 1.0691867e-06 0.0000000e+00 
0.0000000e+00 5.6256044e-07 0.0000000e+00 
0.0000000e+00 1.4965994e-07 0.0000000e+00 
0.0000000e+00 -1.6951475e-07 0.0000000e+00 
0.0000000e+00 -3.9496365e-07 0.0000000e+00 
0.0000000e+00 -5.2668673e-07 0.0000000e+00 
0.0000000e+00 -5.6468400e-07 0.0000000e+00 
0.0000000e+00 -5.0895545e-07 0.0000000e+00 
0.0000000e+00 -3.5950106e-07 0.0000000e+00 
0.0000000e+00 -1.1632089e-07 0.0000000e+00 
0.0000000e+00 2.2058509e-07 0.0000000e+00 
0.0000000e+00 6.5121691e-07 0.0000000e+00 
0.0000000e+00 1.1755745e-06 0.0000000e+00 
0.0000000e+00 6.2754771e-07 0.0000000e+00 
0.0000000e+00 1.8021385e-07 0.0000000e+00 
0.0000000e+00 -1.6642707e-07 0.0000000e+00 
0.0000000e+00 -4.1237504e-07 0.0000000e+00 
0.0000000e+00 -5.5763007e-07 0.0000000e+00 
0.0000000e+00 -6.0219213e-07 0.0000000e+00 
0.0000000e+00 -5.4606124e-07 0.0000000e+00 
0.0000000e+00 -3.8923741e-07 0.0000000e+00 
0.0000000e+00 -1.3172065e-07 0.0000000e+00 
0.0000000e+00 2.2648905e-07 0.0000000e+00 
0.0000000e+00 6.8539174e-07 0.0000000e+00 
0.0000000e+00 1.2449873e-06 0.0000000e+00 
0.0000000e+00 7.3427327e-07 0.0000000e+00 
0.0000000e+00 3.0986581e-07 0.0000000e+00 
0.0000000e+00 -2.8235117e-08 0.0000000e+00 
0.0000000e+00 -2.8002950e-07 0.0000000e+00 
0.0000000e+00 -4.4551732e-07 0.0000000e+00 
0.0000000e+00 -5.2469858e-07 0.0000000e+00 
0.0000000e+00 -5.1757331e-07 0.0000000e+00 
0.0000000e+00 -4.2414146e-07 0.0000000e+00 
0.0000000e+00 -2.4440308e-07 0.0000000e+00 
0.0000000e+00 2.1641874e-08 0.0000000e+00 
0.0000000e+00 3.7399337e-07 0.0000000e+00 
0.0000000e+00 8.1265142e-07 0.0000000e+00 
0.0000000e+00 1.6784452e-07 0.0000000e+00 
0.0000000e+00 -3.3052407e-07 0.0000000e+00 
0.0000000e+00 -6.8245436e-07 0.0000000e+00 
0.0000000e+00 -8.8794638e-07 0.0000000e+00 
0.0000000e+00 -9.4700005e-07 0.0000000e+00 
0.0000000e+00 -8.5961540e-07 0.0000000e+00 
0.0000000e+00 -6.2579250e-07 0.0000000e+00 
0.0000000e+00 -2.4553125e-07 0.0000000e+00 
0.0000000e+00 2.8116827e-07 0.0000000e+00 
0.0000000e+00 9.5430607e-07 0.0000000e+00 
0.0000000e+00 1.7738822e-06 0.0000000e+00 
0.0000000e+00 2.7398967e-06 0.0000000e+00 
0.0000000e+00 3.3150829e-06 0.0000000e+00 
0.0000000e+00 2.8410786e-06 0.0000000e+00 
0.0000000e+00 2.9297353e-06 0.0000000e+00 
0.0000000e+00 2.9875791e-06 0.0000000e+00 
0.0000000e+00 2.6272992e-06 0.0000000e+00 
0.0000000e+00 4.2333372e-06 0.0000000e+00 
0.0000000e+00 3.9284887e-06 0.0000000e+00 
0.0000000e+00 3.5492853e-06 0.0000000e+00 
0.0000000e+00 3.6202105e-06 0.0000000e+00 
0.0000000e+00 3.6664858e-06 0.0000000e+00 
0.0000000e+00 3.3782617e-06 0.0000000e+00 
0.0000000e+00 4.6630921e-06 0.0000000e+00 
0.0000000e+00 3.6909462e-06 0.0000000e+00 
0.0000000e+00 3.4065438e-06 0.0000000e+00 
0.0000000e+00 3.4597376e-06 0.0000000e+00 
0.0000000e+00 3.4944439e-06 0.0000000e+00 
0.0000000e+00 3.2782762e-06 0.0000000e+00 
0.0000000e+00 4.2418988e-06 0.0000000e+00 
0.0000000e+00 2.8151926e-06 0.0000000e+00 
0.0000000e+00 2.6255909e-06 0.0000000e+00 
0.0000000e+00 2.6610535e-06 0.0000000e+00 
0.0000000e+00 2.6841910e-06 0.0000000e+00 
0.0000000e+00 2.5400791e-06 0.0000000e+00 
0.0000000e+00 3.1824943e-06 0.0000000e+00 
0.0000000e+00 1.5139648e-06 0.0000000e+00 
0.0000000e+00 1.4191641e-06 0.0000000e+00 
0.0000000e+00 1.4368953e-06 0.0000000e+00 
0.0000000e+00 1.4484641e-06 0.0000000e+00 
0.0000000e+00 1.3764081e-06 0.0000000e+00 
0.0000000e+00 1.6976156e-06 0.0000000e+00 
0.0000000e+00 -1.0716743e-18 0.0000000e+00 
0.0000000e+00 -6.8938111e-19 0.0000000e+00 
0.0000000e+00 -5.3270359e-19 0.0000000e+00 
0.0000000e+00 -4.8883386e-19 0.0000000e+00 
0.0000000e+00 -3.6975896e-19 0.0000000e+00 
0.0000000e+00 -1.5740571e-19 0.0000000e+00 
0.0000000e+00 -1.5139648e-06 0.0000000e+00 
0.0000000e+00 -1.4191641e-06 0.0000000e+00 
0.0000000e+00 -1.4368953e-06 0.0000000e+00 
0.0000000e+00 -1.4484641e-06 0.0000000e+00 
0.0000000e+00 -1.3764081e-06 0.0000000e+00 
0.0000000e+00 -1.6976156e-06 0.0000000e+00 
0.0000000e+00 -2.8151926e-06 0.0000000e+00 
0.0000000e+00 -2.6255909e-06 0.0000000e+00 
0.0000000e+00 -2.6610535e-06 0.0000000e+00 
0.0000000e+00 -2.6841910e-06 0.0000000e+00 
0.0000000e+00 -2.5400791e-06 0.0000000e+00 
0.0000000e+00 -3.1824943e-06 0.0000000e+00 
0.0000000e+00 -3.6909462e-06 0.0000000e+00 
0.0000000e+00 -3.4065438e-06 0.0000000e+00 
0.0000000e+00 -3.4597376e-06 0.0000000e+00 
0.0000000e+00 -3.4944439e-06 0.0000000e+00 
0.0000000e+00 -3.2782762e-06 0.0000000e+00 
0.0000000e+00 -4.2418988e-06 0.0000000e+00 
0.0000000e+00 -3.9284887e-06 0.0000000e+00 
0.0000000e+00 -3.5492853e-06 0.0000000e+00 
0.0000000e+00 -3.6202105e-06 0.0000000e+00 
0.0000000e+00 -3.6664858e-06 0.0000000e+00 
0.0000000e+00 -3.3782617e-06 0.0000000e+00 
0.0000000e+00 -4.6630921e-06 0.0000000e+00 
0.0000000e+00 -3.3150829e-06 0.0000000e+00 
0.0000000e+00 -2.8410786e-06 0.0000000e+00 
0.0000000e+00 -2.9297353e-06 0.0000000e+00 
0.0000000e+00 -2.9875791e-06 0.0000000e+00 
0.0000000e+00 -2.6272992e-06 0.0000000e+00 
0.0000000e+00 -4.2333372e-06 0.0000000e+00 
0.0000000e+00 8.2973622e-07 0.0000000e+00 
0.0000000e+00 8.1259918e-07 0.0000000e+00 
0.0000000e+00 7.6118823e-07 0.0000000e+00 
0.0000000e+00 6.7550320e-07 0.0000000e+00 
0.0000000e+00 5.5554420e-07 0.0000000e+00 
0.0000000e+00 4.0131121e-07 0.0000000e+00 
0.0000000e+00 2.1280422e-07 0.0000000e+00 
0.0000000e+00 -9.9767732e-09 0.0000000e+00 
0.0000000e+00 -2.6703177e-07 0.0000000e+00 
0.0000000e+00 -5.5836074e-07 0.0000000e+00 
0.0000000e+00 -8.8396376e-07 0.0000000e+00 
0.0000000e+00 -1.2438408e-06 0.0000000e+00 
0.0000000e+00 -1.6379918e-06 0.0000000e+00 
0.0000000e+00 -9.7425163e-07 0.0000000e+00 
0.0000000e+00 -4.2257321e-07 0.0000000e+00 
0.0000000e+00 1.7043396e-08 0.0000000e+00 
0.0000000e+00 3.4459822e-07 0.0000000e+00 
0.0000000e+00 5.6009128e-07 0.0000000e+00 
0.0000000e+00 6.6352260e-07 0.0000000e+00 
0.0000000e+00 6.5489212e-07 0.0000000e+00 
0.0000000e+00 5.3419990e-07 0.0000000e+00 
0.0000000e+00 3.0144588e-07 0.0000000e+00 
0.0000000e+00 -4.3369909e-08 0.0000000e+00 
0.0000000e+00 -5.0024744e-07 0.0000000e+00 
0.0000000e+00 -1.0691867e-06 0.0000000e+00 
0.0000000e+00 -5.6256044e-07 0.0000000e+00 
0.0000000e+00 -1.4965994e-07 0.0000000e+00 
0.0000000e+00 1.6951475e-07 0.0000000e+00 
0.0000000e+00 3.9496365e-07 0.0000000e+00 
0.0000000e+00 5.2668673e-07 0.0000000e+00 
0.0000000e+00 5.6468400e-07 0.0000000e+00 
0.0000000e+00 5.0895545e-07 0.0000000e+00 
0.0000000e+00 3.5950106e-07 0.0000000e+00 
0.0000000e+00 1.1632089e-07 0.0000000e+00 
0.0000000e+00 -2.2058509e-07 0.0000000e+00 
0.0000000e+00 -6.5121691e-07 0.0000000e+00 
0.0000000e+00 -1.1755745e-06 0.0000000e+00 
0.0000000e+00 -6.2754771e-07 0.0000000e+00 
0.0000000e+00 -1.8021385e-07 0.0000000e+00 
0.0000000e+00 1.6642707e-07 0.0000000e+00 
0.0000000e+00 4.1237504e-07 0.0000000e+00 
0.0000000e+00 5.5763007e-07 0.0000000e+00 
0.0000000e+00 6.0219213e-07 0.0000000e+00 
0.0000000e+00 5.4606124e-07 0.0000000e+00 
0.0000000e+00 3.8923741e-07 0.0000000e+00 
0.0000000e+00 1.3172065e-07 0.0000000e+00 
0.0000000e+00 -2.2648905e-07 0.0000000e+00 
0.0000000e+00 -6.8539174e-07 0.0000000e+00 
0.0000000e+00 -1.2449873e-06 0.0000000e+00 
0.0000000e+00 -7.3427327e-07 0.0000000e+00 
0.0000000e+00 -3.0986581e-07 0.0000000e+00 
0.0000000e+00 2.8235117e-08 0.0000000e+00 
0.0000000e+00 2.8002950e-07 0.0000000e+00 
0.0000000e+00 4.4551732e-07 0.0000000e+00 
0.0000000e+00 5.2469858e-07 0.0000000e+00 
0.0000000e+00 5.1757331e-07 0.0000000e+00 
0.0000000e+00 4.2414146e-07 0.0000000e+00 
0.0000000e+00 2.4440308e-07 0.0000000e+00 
0.0000000e+00 -2.1641874e-08 0.0000000e+00 
0.0000000e+00 -3.7399337e-07 0.0000000e+00 
0.0000000e+00 -8.1265142e-07 0.0000000e+00 
0.0000000e+00 -1.6784452e-07 0.0000000e+00 
0.0000000e+00 3.3052407e-07 0.0000000e+00 
0.0000000e+00 6.8245436e-07 0.0000000e+00 
0.0000000e+00 8.8794638e-07 0.0000000e+00 