# vtk DataFile Version 4.0
vtk output
ASCII
DATASET UNSTRUCTURED_GRID
POINTS 212 float
0.0000000e+00 0.0000000e+00 0.0000000e+00 
0.0000000e+00 0.0000000e+00 2.5000000e-01 
0.0000000e+00 0.0000000e+00 5.0000000e-01 
0.0000000e+00 0.0000000e+00 7.5000000e-01 
0.0000000e+00 0.0000000e+00 1.0000000e+00 
0.0000000e+00 0.0000000e+00 1.2500000e+00 
0.0000000e+00 0.0000000e+00 1.5000000e+00 
0.0000000e+00 0.0000000e+00 1.7500000e+00 
0.0000000e+00 0.0000000e+00 2.0000000e+00 
0.0000000e+00 0.0000000e+00 2.2500000e+00 
0.0000000e+00 0.0000000e+00 2.5000000e+00 
0.0000000e+00 0.0000000e+00 2.7500000e+00 
0.0000000e+00 0.0000000e+00 3.0000000e+00 
0.0000000e+00 0.0000000e+00 3.2500000e+00 
0.0000000e+00 0.0000000e+00 3.5000000e+00 
0.0000000e+00 0.0000000e+00 3.7500000e+00 
0.0000000e+00 0.0000000e+00 4.0000000e+00 
0.0000000e+00 0.0000000e+00 4.2500000e+00 
0.0000000e+00 0.0000000e+00 4.5000000e+00 
0.0000000e+00 0.0000000e+00 4.7500000e+00 
0.0000000e+00 0.0000000e+00 5.0000000e+00 
0.0000000e+00 0.0000000e+00 5.2500000e+00 
0.0000000e+00 0.0000000e+00 5.5000000e+00 
0.0000000e+00 0.0000000e+00 5.7500000e+00 
0.0000000e+00 0.0000000e+00 6.0000000e+00 
0.0000000e+00 0.0000000e+00 6.2500000e+00 
0.0000000e+00 0.0000000e+00 6.5000000e+00 
0.0000000e+00 0.0000000e+00 6.7500000e+00 
0.0000000e+00 0.0000000e+00 7.0000000e+00 
0.0000000e+00 0.0000000e+00 7.2500000e+00 
0.0000000e+00 0.0000000e+00 7.5000000e+00 
0.0000000e+00 0.0000000e+00 7.7500000e+00 
0.0000000e+00 0.0000000e+00 8.0000000e+00 
0.0000000e+00 0.0000000e+00 8.2500000e+00 
0.0000000e+00 0.0000000e+00 8.5000000e+00 
0.0000000e+00 0.0000000e+00 8.7500000e+00 
0.0000000e+00 0.0000000e+00 9.0000000e+00 
0.0000000e+00 0.0000000e+00 9.2500000e+00 
0.0000000e+00 0.0000000e+00 9.5000000e+00 
0.0000000e+00 0.0000000e+00 9.7500000e+00 
0.0000000e+00 0.0000000e+00 1.0000000e+01 
0.0000000e+00 0.0000000e+00 1.0250000e+01 
0.0000000e+00 0.0000000e+00 1.0500000e+01 
0.0000000e+00 0.0000000e+00 1.0750000e+01 
0.0000000e+00 0.0000000e+00 1.1000000e+01 
0.0000000e+00 0.0000000e+00 1.1250000e+01 
0.0000000e+00 0.0000000e+00 1.1500000e+01 
0.0000000e+00 0.0000000e+00 1.1750000e+01 
0.0000000e+00 0.0000000e+00 1.2000000e+01 
0.0000000e+00 0.0000000e+00 1.2250000e+01 
0.0000000e+00 0.0000000e+00 1.2500000e+01 
0.0000000e+00 0.0000000e+00 1.2750000e+01 
0.0000000e+00 0.0000000e+00 1.3000000e+01 
0.0000000e+00 0.0000000e+00 1.3250000e+01 
0.0000000e+00 0.0000000e+00 1.3500000e+01 
0.0000000e+00 0.0000000e+00 1.3750000e+01 
0.0000000e+00 0.0000000e+00 1.4000000e+01 
0.0000000e+00 0.0000000e+00 1.4250000e+01 
0.0000000e+00 0.0000000e+00 1.4500000e+01 
0.0000000e+00 0.0000000e+00 1.4750000e+01 
0.0000000e+00 0.0000000e+00 1.5000000e+01 
0.0000000e+00 0.0000000e+00 1.5250000e+01 
0.0000000e+00 0.0000000e+00 1.5500000e+01 
0.0000000e+00 0.0000000e+00 1.5750000e+01 
0.0000000e+00 0.0000000e+00 1.6000000e+01 
0.0000000e+00 0.0000000e+00 1.6250000e+01 
0.0000000e+00 0.0000000e+00 1.6500000e+01 
0.0000000e+00 0.0000000e+00 1.6750000e+01 
0.0000000e+00 0.0000000e+00 1.7000000e+01 
0.0000000e+00 0.0000000e+00 1.7250000e+01 
0.0000000e+00 0.0000000e+00 1.7500000e+01 
0.0000000e+00 0.0000000e+00 1.7750000e+01 
0.0000000e+00 0.0000000e+00 1.8000000e+01 
5.0000000e-01 0.0000000e+00 3.0000000e+00 
5.0000000e-01 0.0000000e+00 6.0000000e+00 
5.0000000e-01 0.0000000e+00 9.0000000e+00 
5.0000000e-01 0.0000000e+00 1.2000000e+01 
5.0000000e-01 0.0000000e+00 1.5000000e+01 
5.0000000e-01 0.0000000e+00 1.8000000e+01 
1.0000000e+00 0.0000000e+00 3.0000000e+00 
1.0000000e+00 0.0000000e+00 6.0000000e+00 
1.0000000e+00 0.0000000e+00 9.0000000e+00 
1.0000000e+00 0.0000000e+00 1.2000000e+01 
1.0000000e+00 0.0000000e+00 1.5000000e+01 
1.0000000e+00 0.0000000e+00 1.8000000e+01 
1.5000000e+00 0.0000000e+00 3.0000000e+00 
1.5000000e+00 0.0000000e+00 6.0000000e+00 
1.5000000e+00 0.0000000e+00 9.0000000e+00 
1.5000000e+00 0.0000000e+00 1.2000000e+01 
1.5000000e+00 0.0000000e+00 1.5000000e+01 
1.5000000e+00 0.0000000e+00 1.8000000e+01 
2.0000000e+00 0.0000000e+00 3.0000000e+00 
2.0000000e+00 0.0000000e+00 6.0000000e+00 
2.0000000e+00 0.0000000e+00 9.0000000e+00 
2.0000000e+00 0.0000000e+00 1.2000000e+01 
2.0000000e+00 0.0000000e+00 1.5000000e+01 
2.0000000e+00 0.0000000e+00 1.8000000e+01 
2.5000000e+00 0.0000000e+00 3.0000000e+00 
2.5000000e+00 0.0000000e+00 6.0000000e+00 
2.5000000e+00 0.0000000e+00 9.0000000e+00 
2.5000000e+00 0.0000000e+00 1.2000000e+01 
2.5000000e+00 0.0000000e+00 1.5000000e+01 
2.5000000e+00 0.0000000e+00 1.8000000e+01 
3.0000000e+00 0.0000000e+00 3.0000000e+00 
3.0000000e+00 0.0000000e+00 6.0000000e+00 
3.0000000e+00 0.0000000e+00 9.0000000e+00 
3.0000000e+00 0.0000000e+00 1.2000000e+01 
3.0000000e+00 0.0000000e+00 1.5000000e+01 
3.0000000e+00 0.0000000e+00 1.8000000e+01 
3.5000000e+00 0.0000000e+00 3.0000000e+00 
3.5000000e+00 0.0000000e+00 6.0000000e+00 
3.5000000e+00 0.0000000e+00 9.0000000e+00 
3.5000000e+00 0.0000000e+00 1.2000000e+01 
3.5000000e+00 0.0000000e+00 1.5000000e+01 
3.5000000e+00 0.0000000e+00 1.8000000e+01 
4.0000000e+00 0.0000000e+00 3.0000000e+00 
4.0000000e+00 0.0000000e+00 6.0000000e+00 
4.0000000e+00 0.0000000e+00 9.0000000e+00 
4.0000000e+00 0.0000000e+00 1.2000000e+01 
4.0000000e+00 0.0000000e+00 1.5000000e+01 
4.0000000e+00 0.0000000e+00 1.8000000e+01 
4.5000000e+00 0.0000000e+00 3.0000000e+00 
4.5000000e+00 0.0000000e+00 6.0000000e+00 
4.5000000e+00 0.0000000e+00 9.0000000e+00 
4.5000000e+00 0.0000000e+00 1.2000000e+01 
4.5000000e+00 0.0000000e+00 1.5000000e+01 
4.5000000e+00 0.0000000e+00 1.8000000e+01 
5.0000000e+00 0.0000000e+00 3.0000000e+00 
5.0000000e+00 0.0000000e+00 6.0000000e+00 
5.0000000e+00 0.0000000e+00 9.0000000e+00 
5.0000000e+00 0.0000000e+00 1.2000000e+01 
5.0000000e+00 0.0000000e+00 1.5000000e+01 
5.0000000e+00 0.0000000e+00 1.8000000e+01 
5.5000000e+00 0.0000000e+00 3.0000000e+00 
5.5000000e+00 0.0000000e+00 6.0000000e+00 
5.5000000e+00 0.0000000e+00 9.0000000e+00 
5.5000000e+00 0.0000000e+00 1.2000000e+01 
5.5000000e+00 0.0000000e+00 1.5000000e+01 
5.5000000e+00 0.0000000e+00 1.8000000e+01 
6.0000000e+00 0.0000000e+00 0.0000000e+00 
6.0000000e+00 0.0000000e+00 2.5000000e-01 
6.0000000e+00 0.0000000e+00 5.0000000e-01 
6.0000000e+00 0.0000000e+00 7.5000000e-01 
6.0000000e+00 0.0000000e+00 1.0000000e+00 
6.0000000e+00 0.0000000e+00 1.2500000e+00 
6.0000000e+00 0.0000000e+00 1.5000000e+00 
6.0000000e+00 0.0000000e+00 1.7500000e+00 
6.0000000e+00 0.0000000e+00 2.0000000e+00 
6.0000000e+00 0.0000000e+00 2.2500000e+00 
6.0000000e+00 0.0000000e+00 2.5000000e+00 
6.0000000e+00 0.0000000e+00 2.7500000e+00 
6.0000000e+00 0.0000000e+00 3.0000000e+00 
6.0000000e+00 0.0000000e+00 3.2500000e+00 
6.0000000e+00 0.0000000e+00 3.5000000e+00 
6.0000000e+00 0.0000000e+00 3.7500000e+00 
6.0000000e+00 0.0000000e+00 4.0000000e+00 
6.0000000e+00 0.0000000e+00 4.2500000e+00 
6.0000000e+00 0.0000000e+00 4.5000000e+00 
6.0000000e+00 0.0000000e+00 4.7500000e+00 
6.0000000e+00 0.0000000e+00 5.0000000e+00 
6.0000000e+00 0.0000000e+00 5.2500000e+00 
6.0000000e+00 0.0000000e+00 5.5000000e+00 
6.0000000e+00 0.0000000e+00 5.7500000e+00 
6.0000000e+00 0.0000000e+00 6.0000000e+00 
6.0000000e+00 0.0000000e+00 6.2500000e+00 
6.0000000e+00 0.0000000e+00 6.5000000e+00 
6.0000000e+00 0.0000000e+00 6.7500000e+00 
6.0000000e+00 0.0000000e+00 7.0000000e+00 
6.0000000e+00 0.0000000e+00 7.2500000e+00 
6.0000000e+00 0.0000000e+00 7.5000000e+00 
6.0000000e+00 0.0000000e+00 7.7500000e+00 
6.0000000e+00 0.0000000e+00 8.0000000e+00 
6.0000000e+00 0.0000000e+00 8.2500000e+00 
6.0000000e+00 0.0000000e+00 8.5000000e+00 
6.0000000e+00 0.0000000e+00 8.7500000e+00 
6.0000000e+00 0.0000000e+00 9.0000000e+00 
6.0000000e+00 0.0000000e+00 9.2500000e+00 
6.0000000e+00 0.0000000e+00 9.5000000e+00 
6.0000000e+00 0.0000000e+00 9.7500000e+00 
6.0000000e+00 0.0000000e+00 1.0000000e+01 
6.0000000e+00 0.0000000e+00 1.0250000e+01 
6.0000000e+00 0.0000000e+00 1.0500000e+01 
6.0000000e+00 0.0000000e+00 1.0750000e+01 
6.0000000e+00 0.0000000e+00 1.1000000e+01 
6.0000000e+00 0.0000000e+00 1.1250000e+01 
6.0000000e+00 0.0000000e+00 1.1500000e+01 
6.0000000e+00 0.0000000e+00 1.1750000e+01 
6.0000000e+00 0.0000000e+00 1.2000000e+01 
6.0000000e+00 0.0000000e+00 1.2250000e+01 
6.0000000e+00 0.0000000e+00 1.2500000e+01 
6.0000000e+00 0.0000000e+00 1.2750000e+01 
6.0000000e+00 0.0000000e+00 1.3000000e+01 
6.0000000e+00 0.0000000e+00 1.3250000e+01 
6.0000000e+00 0.0000000e+00 1.3500000e+01 
6.0000000e+00 0.0000000e+00 1.3750000e+01 
6.0000000e+00 0.0000000e+00 1.4000000e+01 
6.0000000e+00 0.0000000e+00 1.4250000e+01 
6.0000000e+00 0.0000000e+00 1.4500000e+01 
6.0000000e+00 0.0000000e+00 1.4750000e+01 
6.0000000e+00 0.0000000e+00 1.5000000e+01 
6.0000000e+00 0.0000000e+00 1.5250000e+01 
6.0000000e+00 0.0000000e+00 1.5500000e+01 
6.0000000e+00 0.0000000e+00 1.5750000e+01 
6.0000000e+00 0.0000000e+00 1.6000000e+01 
6.0000000e+00 0.0000000e+00 1.6250000e+01 
6.0000000e+00 0.0000000e+00 1.6500000e+01 
6.0000000e+00 0.0000000e+00 1.6750000e+01 
6.0000000e+00 0.0000000e+00 1.7000000e+01 
6.0000000e+00 0.0000000e+00 1.7250000e+01 
6.0000000e+00 0.0000000e+00 1.7500000e+01 
6.0000000e+00 0.0000000e+00 1.7750000e+01 
6.0000000e+00 0.0000000e+00 1.8000000e+01 

CELLS 216 648
2 0 1
2 1 2
2 2 3
2 3 4
2 4 5
2 5 6
2 6 7
2 7 8
2 8 9
2 9 10
2 10 11
2 11 12
2 12 13
2 13 14
2 14 15
2 15 16
2 16 17
2 17 18
2 18 19
2 19 20
2 20 21
2 21 22
2 22 23
2 23 24
2 24 25
2 25 26
2 26 27
2 27 28
2 28 29
2 29 30
2 30 31
2 31 32
2 32 33
2 33 34
2 34 35
2 35 36
2 36 37
2 37 38
2 38 39
2 39 40
2 40 41
2 41 42
2 42 43
2 43 44
2 44 45
2 45 46
2 46 47
2 47 48
2 48 49
2 49 50
2 50 51
2 51 52
2 52 53
2 53 54
2 54 55
2 55 56
2 56 57
2 57 58
2 58 59
2 59 60
2 60 61
2 61 62
2 62 63
2 63 64
2 64 65
2 65 66
2 66 67
2 67 68
2 68 69
2 69 70
2 70 71
2 71 72
2 139 140
2 140 141
2 141 142
2 142 143
2 143 144
2 144 145
2 145 146
2 146 147
2 147 148
2 148 149
2 149 150
2 150 151
2 151 152
2 152 153
2 153 154
2 154 155
2 155 156
2 156 157
2 157 158
2 158 159
2 159 160
2 160 161
2 161 162
2 162 163
2 163 164
2 164 165
2 165 166
2 166 167
2 167 168
2 168 169
2 169 170
2 170 171
2 171 172
2 172 173
2 173 174
2 174 175
2 175 176
2 176 177
2 177 178
2 178 179
2 179 180
2 180 181
2 181 182
2 182 183
2 183 184
2 184 185
2 185 186
2 186 187
2 187 188
2 188 189
2 189 190
2 190 191
2 191 192
2 192 193
2 193 194
2 194 195
2 195 196
2 196 197
2 197 198
2 198 199
2 199 200
2 200 201
2 201 202
2 202 203
2 203 204
2 204 205
2 205 206
2 206 207
2 207 208
2 208 209
2 209 210
2 210 211
2 12 73
2 73 79
2 79 85
2 85 91
2 91 97
2 97 103
2 103 109
2 109 115
2 115 121
2 121 127
2 127 133
2 133 151
2 24 74
2 74 80
2 80 86
2 86 92
2 92 98
2 98 104
2 104 110
2 110 116
2 116 122
2 122 128
2 128 134
2 134 163
2 36 75
2 75 81
2 81 87
2 87 93
2 93 99
2 99 105
2 105 111
2 111 117
2 117 123
2 123 129
2 129 135
2 135 175
2 48 76
2 76 82
2 82 88
2 88 94
2 94 100
2 100 106
2 106 112
2 112 118
2 118 124
2 124 130
2 130 136
2 136 187
2 60 77
2 77 83
2 83 89
2 89 95
2 95 101
2 101 107
2 107 113
2 113 119
2 119 125
2 125 131
2 131 137
2 137 199
2 72 78
2 78 84
2 84 90
2 90 96
2 96 102
2 102 108
2 108 114
2 114 120
2 120 126
2 126 132
2 132 138
2 138 211

CELL_TYPES 216
3
3
3
3
3
3
3
3
3
3
3
3
3
3
3
3
3
3
3
3
3
3
3
3
3
3
3
3
3
3
3
3
3
3
3
3
3
3
3
3
3
3
3
3
3
3
3
3
3
3
3
3
3
3
3
3
3
3
3
3
3
3
3
3
3
3
3
3
3
3
3
3
3
3
3
3
3
3
3
3
3
3
3
3
3
3
3
3
3
3
3
3
3
3
3
3
3
3
3
3
3
3
3
3
3
3
3
3
3
3
3
3
3
3
3
3
3
3
3
3
3
3
3
3
3
3
3
3
3
3
3
3
3
3
3
3
3
3
3
3
3
3
3
3
3
3
3
3
3
3
3
3
3
3
3
3
3
3
3
3
3
3
3
3
3
3
3
3
3
3
3
3
3
3
3
3
3
3
3
3
3
3
3
3
3
3
3
3
3
3
3
3
3
3
3
3
3
3
3
3
3
3
3
3
3
3
3
3
3
3
3
3
3
3
3
3
POINT_DATA 212
FIELD FieldData 7
DISPLACEMENT 3 212  float
0.0000000e+00 0.0000000e+00 0.0000000e+00 
-9.0833268e-08 0.0000000e+00 -5.2365724e-08 
-1.7794332e-07 0.0000000e+00 -1.0473145e-07 
-2.5760696e-07 0.0000000e+00 -1.5709718e-07 
-3.2610095e-07 0.0000000e+00 -2.0946290e-07 
-3.7970210e-07 0.0000000e+00 -2.6182863e-07 
-4.1468718e-07 0.0000000e+00 -3.1419435e-07 
-4.2733299e-07 0.0000000e+00 -3.6656007e-07 
-4.1391630e-07 0.0000000e+00 -4.1892579e-07 
-3.7071393e-07 0.0000000e+00 -4.7129151e-07 
-2.9400263e-07 0.0000000e+00 -5.2365726e-07 
-1.8005922e-07 0.0000000e+00 -5.7602296e-07 
-2.5160464e-08 0.0000000e+00 -6.2838870e-07 
1.1501778e-07 0.0000000e+00 -6.7202683e-07 
1.9029375e-07 0.0000000e+00 -7.1566490e-07 
2.1263180e-07 0.0000000e+00 -7.5930302e-07 
1.9399627e-07 0.0000000e+00 -8.0294114e-07 
1.4635151e-07 0.0000000e+00 -8.4657921e-07 
8.1661852e-08 0.0000000e+00 -8.9021734e-07 
1.1891648e-08 0.0000000e+00 -9.3385546e-07 
-5.0994757e-08 0.0000000e+00 -9.7749353e-07 
-9.5033023e-08 0.0000000e+00 -1.0211317e-06 
-1.0825880e-07 0.0000000e+00 -1.0647698e-06 
-7.8707750e-08 0.0000000e+00 -1.1084079e-06 
5.5844747e-09 0.0000000e+00 -1.1520459e-06 
9.2964505e-08 0.0000000e+00 -1.1869564e-06 
1.3055953e-07 0.0000000e+00 -1.2218669e-06 
1.2850475e-07 0.0000000e+00 -1.2567774e-06 
9.6935345e-08 0.0000000e+00 -1.2916879e-06 
4.5986507e-08 0.0000000e+00 -1.3265984e-06 
-1.4206577e-08 0.0000000e+00 -1.3615089e-06 
-7.3508716e-08 0.0000000e+00 -1.3964193e-06 
-1.2178472e-07 0.0000000e+00 -1.4313298e-06 
-1.4889940e-07 0.0000000e+00 -1.4662403e-06 
-1.4471757e-07 0.0000000e+00 -1.5011508e-06 
-9.9104042e-08 0.0000000e+00 -1.5360613e-06 
-1.9236195e-09 0.0000000e+00 -1.5709718e-06 
9.4196508e-08 0.0000000e+00 -1.5971547e-06 
1.3704921e-07 0.0000000e+00 -1.6233375e-06 
1.3739975e-07 0.0000000e+00 -1.6495203e-06 
1.0601337e-07 0.0000000e+00 -1.6757032e-06 
5.3655334e-08 0.0000000e+00 -1.7018860e-06 
-8.9090983e-09 0.0000000e+00 -1.7280689e-06 
-7.0914673e-08 0.0000000e+00 -1.7542518e-06 
-1.2159613e-07 0.0000000e+00 -1.7804347e-06 
-1.5018823e-07 0.0000000e+00 -1.8066175e-06 
-1.4592568e-07 0.0000000e+00 -1.8328004e-06 
-9.8043252e-08 0.0000000e+00 -1.8589833e-06 
4.2243204e-09 0.0000000e+00 -1.8851661e-06 
1.0882373e-07 0.0000000e+00 -1.9026213e-06 
1.6277926e-07 0.0000000e+00 -1.9200766e-06 
1.7547249e-07 0.0000000e+00 -1.9375318e-06 
1.5628505e-07 0.0000000e+00 -1.9549871e-06 
1.1459856e-07 0.0000000e+00 -1.9724423e-06 
5.9794601e-08 0.0000000e+00 -1.9898976e-06 
1.2548173e-09 0.0000000e+00 -2.0073528e-06 
-5.1639198e-08 0.0000000e+00 -2.0248081e-06 
-8.9505832e-08 0.0000000e+00 -2.0422633e-06 
-1.0296348e-07 0.0000000e+00 -2.0597186e-06 
-8.2630507e-08 0.0000000e+00 -2.0771738e-06 
-1.9125329e-08 0.0000000e+00 -2.0946291e-06 
3.3521864e-08 0.0000000e+00 -2.1033566e-06 
2.5457116e-08 0.0000000e+00 -2.1120843e-06 
-2.7673599e-08 0.0000000e+00 -2.1208118e-06 
-1.1022430e-07 0.0000000e+00 -2.1295396e-06 
-2.0654902e-07 0.0000000e+00 -2.1382671e-06 
-3.0100176e-07 0.0000000e+00 -2.1469948e-06 
-3.7793657e-07 0.0000000e+00 -2.1557223e-06 
-4.2170745e-07 0.0000000e+00 -2.1644501e-06 
-4.1666846e-07 0.0000000e+00 -2.1731776e-06 
-3.4717357e-07 0.0000000e+00 -2.1819053e-06 
-1.9757684e-07 0.0000000e+00 -2.1906328e-06 
4.7767717e-08 0.0000000e+00 -2.1993606e-06 
-2.0967054e-08 0.0000000e+00 -1.1827868e-06 
4.6537290e-09 0.0000000e+00 -1.5946721e-06 
-1.6030163e-09 0.0000000e+00 -2.0331986e-06 
3.5202670e-09 0.0000000e+00 -2.3596879e-06 
-1.5937774e-08 0.0000000e+00 -2.4869623e-06 
3.9806430e-08 0.0000000e+00 -2.9770886e-06 
-1.6773644e-08 0.0000000e+00 -1.9794259e-06 
3.7229830e-09 0.0000000e+00 -2.2998611e-06 
-1.2824131e-09 0.0000000e+00 -2.7544247e-06 
2.8162135e-09 0.0000000e+00 -3.0909735e-06 
-1.2750220e-08 0.0000000e+00 -3.1510028e-06 
3.1845143e-08 0.0000000e+00 -3.9564520e-06 
-1.2580232e-08 0.0000000e+00 -2.8124812e-06 
2.7922373e-09 0.0000000e+00 -3.0617889e-06 
-9.6180974e-10 0.0000000e+00 -3.5288258e-06 
2.1121602e-09 0.0000000e+00 -3.8731982e-06 
-9.5626644e-09 0.0000000e+00 -3.8809262e-06 
2.3883858e-08 0.0000000e+00 -4.9316263e-06 
-8.3868219e-09 0.0000000e+00 -3.5218677e-06 
1.8614915e-09 0.0000000e+00 -3.7203699e-06 
-6.4120653e-10 0.0000000e+00 -4.1963162e-06 
1.4081067e-09 0.0000000e+00 -4.5462775e-06 
-6.3751098e-09 0.0000000e+00 -4.5166466e-06 
1.5922572e-08 0.0000000e+00 -5.7425264e-06 
-4.1934110e-09 0.0000000e+00 -3.9932384e-06 
9.3074576e-10 0.0000000e+00 -4.1612570e-06 
-3.2060327e-10 0.0000000e+00 -4.6425489e-06 
7.0405337e-10 0.0000000e+00 -4.9958635e-06 
-3.1875549e-09 0.0000000e+00 -4.9438177e-06 
7.9612859e-09 0.0000000e+00 -6.2748049e-06 
-1.3077031e-18 0.0000000e+00 -4.1579847e-06 
-2.3120844e-18 0.0000000e+00 -4.3158425e-06 
-3.2366930e-18 0.0000000e+00 -4.7989165e-06 
-4.1653404e-18 0.0000000e+00 -5.1533489e-06 
-5.0217477e-18 0.0000000e+00 -5.0938311e-06 
-5.6925238e-18 0.0000000e+00 -6.4598544e-06 
4.1934110e-09 0.0000000e+00 -3.9932384e-06 
-9.3074576e-10 0.0000000e+00 -4.1612570e-06 
3.2060324e-10 0.0000000e+00 -4.6425489e-06 
-7.0405343e-10 0.0000000e+00 -4.9958635e-06 
3.1875549e-09 0.0000000e+00 -4.9438177e-06 
-7.9612859e-09 0.0000000e+00 -6.2748049e-06 
8.3868219e-09 0.0000000e+00 -3.5218677e-06 
-1.8614915e-09 0.0000000e+00 -3.7203699e-06 
6.4120648e-10 0.0000000e+00 -4.1963162e-06 
-1.4081067e-09 0.0000000e+00 -4.5462775e-06 
6.3751098e-09 0.0000000e+00 -4.5166466e-06 
-1.5922572e-08 0.0000000e+00 -5.7425264e-06 
1.2580232e-08 0.0000000e+00 -2.8124812e-06 
-2.7922373e-09 0.0000000e+00 -3.0617889e-06 
9.6180974e-10 0.0000000e+00 -3.5288258e-06 
-2.1121602e-09 0.0000000e+00 -3.8731982e-06 
9.5626644e-09 0.0000000e+00 -3.8809262e-06 
-2.3883858e-08 0.0000000e+00 -4.9316263e-06 
1.6773644e-08 0.0000000e+00 -1.9794259e-06 
-3.7229830e-09 0.0000000e+00 -2.2998611e-06 
1.2824130e-09 0.0000000e+00 -2.7544247e-06 
-2.8162135e-09 0.0000000e+00 -3.0909735e-06 
1.2750220e-08 0.0000000e+00 -3.1510028e-06 
-3.1845143e-08 0.0000000e+00 -3.9564520e-06 
2.0967054e-08 0.0000000e+00 -1.1827868e-06 
-4.6537290e-09 0.0000000e+00 -1.5946721e-06 
1.6030163e-09 0.0000000e+00 -2.0331986e-06 
-3.5202670e-09 0.0000000e+00 -2.3596879e-06 
1.5937774e-08 0.0000000e+00 -2.4869623e-06 
-3.9806430e-08 0.0000000e+00 -2.9770886e-06 
0.0000000e+00 0.0000000e+00 0.0000000e+00 
9.0833268e-08 0.0000000e+00 -5.2365724e-08 
1.7794332e-07 0.0000000e+00 -1.0473145e-07 
2.5760696e-07 0.0000000e+00 -1.5709718e-07 
3.2610095e-07 0.0000000e+00 -2.0946290e-07 
3.7970210e-07 0.0000000e+00 -2.6182863e-07 
4.1468718e-07 0.0000000e+00 -3.1419435e-07 
4.2733299e-07 0.0000000e+00 -3.6656007e-07 
4.1391630e-07 0.0000000e+00 -4.1892579e-07 
3.7071393e-07 0.0000000e+00 -4.7129151e-07 
2.9400263e-07 0.0000000e+00 -5.2365726e-07 
1.8005922e-07 0.0000000e+00 -5.7602296e-07 
2.5160464e-08 0.0000000e+00 -6.2838870e-07 
-1.1501778e-07 0.0000000e+00 -6.7202683e-07 
-1.9029375e-07 0.0000000e+00 -7.1566490e-07 
-2.1263180e-07 0.0000000e+00 -7.5930302e-07 
-1.9399627e-07 0.0000000e+00 -8.0294114e-07 
-1.4635151e-07 0.0000000e+00 -8.4657921e-07 
-8.1661852e-08 0.0000000e+00 -8.9021734e-07 
-1.1891648e-08 0.0000000e+00 -9.3385546e-07 
5.0994757e-08 0.0000000e+00 -9.7749353e-07 
9.5033023e-08 0.0000000e+00 -1.0211317e-06 
1.0825880e-07 0.0000000e+00 -1.0647698e-06 
7.8707750e-08 0.0000000e+00 -1.1084079e-06 
-5.5844747e-09 0.0000000e+00 -1.1520459e-06 
-9.2964505e-08 0.0000000e+00 -1.1869564e-06 
-1.3055953e-07 0.0000000e+00 -1.2218669e-06 
-1.2850475e-07 0.0000000e+00 -1.2567774e-06 
-9.6935345e-08 0.0000000e+00 -1.2916879e-06 
-4.5986507e-08 0.0000000e+00 -1.3265984e-06 
1.4206577e-08 0.0000000e+00 -1.3615089e-06 
7.3508716e-08 0.0000000e+00 -1.3964193e-06 
1.2178472e-07 0.0000000e+00 -1.4313298e-06 
1.4889940e-07 0.0000000e+00 -1.4662403e-06 
1.4471757e-07 0.0000000e+00 -1.5011508e-06 
9.9104042e-08 0.0000000e+00 -1.5360613e-06 
1.9236195e-09 0.0000000e+00 -1.5709718e-06 
-9.4196508e-08 0.0000000e+00 -1.5971547e-06 
-1.3704921e-07 0.0000000e+00 -1.6233375e-06 
-1.3739975e-07 0.0000000e+00 -1.6495203e-06 
-1.0601337e-07 0.0000000e+00 -1.6757032e-06 
-5.3655334e-08 0.0000000e+00 -1.7018860e-06 
8.9090983e-09 0.0000000e+00 -1.7280689e-06 
7.0914673e-08 0.0000000e+00 -1.7542518e-06 
1.2159613e-07 0.0000000e+00 -1.7804347e-06 
1.5018823e-07 0.0000000e+00 -1.8066175e-06 
1.4592568e-07 0.0000000e+00 -1.8328004e-06 
9.8043252e-08 0.0000000e+00 -1.8589833e-06 
-4.2243204e-09 0.0000000e+00 -1.8851661e-06 
-1.0882373e-07 0.0000000e+00 -1.9026213e-06 
-1.6277926e-07 0.0000000e+00 -1.9200766e-06 
-1.7547249e-07 0.0000000e+00 -1.9375318e-06 
-1.5628505e-07 0.0000000e+00 -1.9549871e-06 
-1.1459856e-07 0.0000000e+00 -1.9724423e-06 
-5.9794601e-08 0.0000000e+00 -1.9898976e-06 
-1.2548173e-09 0.0000000e+00 -2.0073528e-06 
5.1639198e-08 0.0000000e+00 -2.0248081e-06 
8.9505832e-08 0.0000000e+00 -2.0422633e-06 
1.0296348e-07 0.0000000e+00 -2.0597186e-06 
8.2630507e-08 0.0000000e+00 -2.0771738e-06 
1.9125329e-08 0.0000000e+00 -2.0946291e-06 
-3.3521864e-08 0.0000000e+00 -2.1033566e-06 
-2.5457116e-08 0.0000000e+00 -2.1120843e-06 
2.7673599e-08 0.0000000e+00 -2.1208118e-06 
1.1022430e-07 0.0000000e+00 -2.1295396e-06 
2.0654902e-07 0.0000000e+00 -2.1382671e-06 
3.0100176e-07 0.0000000e+00 -2.1469948e-06 
3.7793657e-07 0.0000000e+00 -2.1557223e-06 
4.2170745e-07 0.0000000e+00 -2.1644501e-06 
4.1666846e-07 0.0000000e+00 -2.1731776e-06 
3.4717357e-07 0.0000000e+00 -2.1819053e-06 
1.9757684e-07 0.0000000e+00 -2.1906328e-06 
-4.7767717e-08 0.0000000e+00 -2.1993606e-06 
ROTATION 3 212  float
0.0000000e+00 -3.6581523e-07 0.0000000e+00 
0.0000000e+00 -3.5836879e-07 0.0000000e+00 
0.0000000e+00 -3.3602953e-07 0.0000000e+00 
0.0000000e+00 -2.9879740e-07 0.0000000e+00 
0.0000000e+00 -2.4667241e-07 0.0000000e+00 
0.0000000e+00 -1.7965459e-07 0.0000000e+00 
0.0000000e+00 -9.7743921e-08 0.0000000e+00 
0.0000000e+00 -9.4039665e-10 0.0000000e+00 
0.0000000e+00 1.1075598e-07 0.0000000e+00 
0.0000000e+00 2.3734520e-07 0.0000000e+00 
0.0000000e+00 3.7882728e-07 0.0000000e+00 
0.0000000e+00 5.3520222e-07 0.0000000e+00 
0.0000000e+00 7.0646996e-07 0.0000000e+00 
0.0000000e+00 4.2293220e-07 0.0000000e+00 
0.0000000e+00 1.8725181e-07 0.0000000e+00 
0.0000000e+00 -5.7118810e-10 0.0000000e+00 
0.0000000e+00 -1.4053681e-07 0.0000000e+00 
0.0000000e+00 -2.3264508e-07 0.0000000e+00 
0.0000000e+00 -2.7689595e-07 0.0000000e+00 
0.0000000e+00 -2.7328946e-07 0.0000000e+00 
0.0000000e+00 -2.2182557e-07 0.0000000e+00 
0.0000000e+00 -1.2250432e-07 0.0000000e+00 
0.0000000e+00 2.4674314e-08 0.0000000e+00 
0.0000000e+00 2.1971033e-07 0.0000000e+00 
0.0000000e+00 4.6260371e-07 0.0000000e+00 
0.0000000e+00 2.4319331e-07 0.0000000e+00 
0.0000000e+00 6.4323700e-08 0.0000000e+00 
0.0000000e+00 -7.4005172e-08 0.0000000e+00 
0.0000000e+00 -1.7179329e-07 0.0000000e+00 
0.0000000e+00 -2.2904064e-07 0.0000000e+00 
0.0000000e+00 -2.4574723e-07 0.0000000e+00 
0.0000000e+00 -2.2191308e-07 0.0000000e+00 
0.0000000e+00 -1.5753817e-07 0.0000000e+00 
0.0000000e+00 -5.2622497e-08 0.0000000e+00 
0.0000000e+00 9.2833929e-08 0.0000000e+00 
0.0000000e+00 2.7883112e-07 0.0000000e+00 
0.0000000e+00 5.0536903e-07 0.0000000e+00 
0.0000000e+00 2.7076882e-07 0.0000000e+00 
0.0000000e+00 7.9229636e-08 0.0000000e+00 
0.0000000e+00 -6.9248529e-08 0.0000000e+00 
0.0000000e+00 -1.7466567e-07 0.0000000e+00 
0.0000000e+00 -2.3702178e-07 0.0000000e+00 
0.0000000e+00 -2.5631687e-07 0.0000000e+00 
0.0000000e+00 -2.3255090e-07 0.0000000e+00 
0.0000000e+00 -1.6572393e-07 0.0000000e+00 
0.0000000e+00 -5.5835930e-08 0.0000000e+00 
0.0000000e+00 9.7113102e-08 0.0000000e+00 
0.0000000e+00 2.9312315e-07 0.0000000e+00 
0.0000000e+00 5.3219424e-07 0.0000000e+00 
0.0000000e+00 3.1085546e-07 0.0000000e+00 
0.0000000e+00 1.2704309e-07 0.0000000e+00 
0.0000000e+00 -1.9242810e-08 0.0000000e+00 
0.0000000e+00 -1.2800227e-07 0.0000000e+00 
0.0000000e+00 -1.9923530e-07 0.0000000e+00 
0.0000000e+00 -2.3294187e-07 0.0000000e+00 
0.0000000e+00 -2.2912201e-07 0.0000000e+00 
0.0000000e+00 -1.8777571e-07 0.0000000e+00 
0.0000000e+00 -1.0890295e-07 0.0000000e+00 
0.0000000e+00 7.4962401e-09 0.0000000e+00 
0.0000000e+00 1.6142188e-07 0.0000000e+00 
0.0000000e+00 3.5287397e-07 0.0000000e+00 
0.0000000e+00 7.8734239e-08 0.0000000e+00 
0.0000000e+00 -1.3282157e-07 0.0000000e+00 
0.0000000e+00 -2.8179349e-07 0.0000000e+00 
0.0000000e+00 -3.6818147e-07 0.0000000e+00 
0.0000000e+00 -3.9198557e-07 0.0000000e+00 
0.0000000e+00 -3.5320576e-07 0.0000000e+00 
0.0000000e+00 -2.5184204e-07 0.0000000e+00 
0.0000000e+00 -8.7894414e-08 0.0000000e+00 
0.0000000e+00 1.3863712e-07 0.0000000e+00 
0.0000000e+00 4.2775258e-07 0.0000000e+00 
0.0000000e+00 7.7945191e-07 0.0000000e+00 
0.0000000e+00 1.1937352e-06 0.0000000e+00 
0.0000000e+00 1.4272682e-06 0.0000000e+00 
0.0000000e+00 1.2240464e-06 0.0000000e+00 
0.0000000e+00 1.2596842e-06 0.0000000e+00 
0.0000000e+00 1.2820385e-06 0.0000000e+00 
0.0000000e+00 1.1326049e-06 0.0000000e+00 
0.0000000e+00 1.8333226e-06 0.0000000e+00 
0.0000000e+00 1.6906794e-06 0.0000000e+00 
0.0000000e+00 1.5281018e-06 0.0000000e+00 
0.0000000e+00 1.5566120e-06 0.0000000e+00 
0.0000000e+00 1.5744955e-06 0.0000000e+00 
0.0000000e+00 1.4549487e-06 0.0000000e+00 
0.0000000e+00 2.0155228e-06 0.0000000e+00 
0.0000000e+00 1.5881806e-06 0.0000000e+00 
0.0000000e+00 1.4662475e-06 0.0000000e+00 
0.0000000e+00 1.4876301e-06 0.0000000e+00 
0.0000000e+00 1.5010427e-06 0.0000000e+00 
0.0000000e+00 1.4113825e-06 0.0000000e+00 
0.0000000e+00 1.8318132e-06 0.0000000e+00 
0.0000000e+00 1.2112495e-06 0.0000000e+00 
0.0000000e+00 1.1299608e-06 0.0000000e+00 
0.0000000e+00 1.1442158e-06 0.0000000e+00 
0.0000000e+00 1.1531575e-06 0.0000000e+00 
0.0000000e+00 1.0933842e-06 0.0000000e+00 
0.0000000e+00 1.3736712e-06 0.0000000e+00 
0.0000000e+00 6.5136345e-07 0.0000000e+00 
0.0000000e+00 6.1071910e-07 0.0000000e+00 
0.0000000e+00 6.1784664e-07 0.0000000e+00 
0.0000000e+00 6.2231749e-07 0.0000000e+00 
0.0000000e+00 5.9243081e-07 0.0000000e+00 
0.0000000e+00 7.3257434e-07 0.0000000e+00 
0.0000000e+00 1.5030331e-19 0.0000000e+00 
0.0000000e+00 1.1042692e-19 0.0000000e+00 
0.0000000e+00 8.5887604e-20 0.0000000e+00 
0.0000000e+00 7.6685362e-20 0.0000000e+00 
0.0000000e+00 8.8955016e-20 0.0000000e+00 
0.0000000e+00 1.1469066e-20 0.0000000e+00 
0.0000000e+00 -6.5136345e-07 0.0000000e+00 
0.0000000e+00 -6.1071910e-07 0.0000000e+00 
0.0000000e+00 -6.1784664e-07 0.0000000e+00 
0.0000000e+00 -6.2231749e-07 0.0000000e+00 
0.0000000e+00 -5.9243081e-07 0.0000000e+00 
0.0000000e+00 -7.3257434e-07 0.0000000e+00 
0.0000000e+00 -1.2112495e-06 0.0000000e+00 
0.0000000e+00 -1.1299608e-06 0.0000000e+00 
0.0000000e+00 -1.1442158e-06 0.0000000e+00 
0.0000000e+00 -1.1531575e-06 0.0000000e+00 
0.0000000e+00 -1.0933842e-06 0.0000000e+00 
0.0000000e+00 -1.3736712e-06 0.0000000e+00 
0.0000000e+00 -1.5881806e-06 0.0000000e+00 
0.0000000e+00 -1.4662475e-06 0.0000000e+00 
0.0000000e+00 -1.4876301e-06 0.0000000e+00 
0.0000000e+00 -1.5010427e-06 0.0000000e+00 
0.0000000e+00 -1.4113825e-06 0.0000000e+00 
0.0000000e+00 -1.8318132e-06 0.0000000e+00 
0.0000000e+00 -1.6906794e-06 0.0000000e+00 
0.0000000e+00 -1.5281018e-06 0.0000000e+00 
0.0000000e+00 -1.5566120e-06 0.0000000e+00 
0.0000000e+00 -1.5744955e-06 0.0000000e+00 
0.0000000e+00 -1.4549487e-06 0.0000000e+00 
0.0000000e+00 -2.0155228e-06 0.0000000e+00 
0.0000000e+00 -1.4272682e-06 0.0000000e+00 
0.0000000e+00 -1.2240464e-06 0.0000000e+00 
0.0000000e+00 -1.2596842e-06 0.0000000e+00 
0.0000000e+00 -1.2820385e-06 0.0000000e+00 
0.0000000e+00 -1.1326049e-06 0.0000000e+00 
0.0000000e+00 -1.8333226e-06 0.0000000e+00 
0.0000000e+00 3.6581523e-07 0.0000000e+00 
0.0000000e+00 3.5836879e-07 0.0000000e+00 
0.0000000e+00 3.3602953e-07 0.0000000e+00 
0.0000000e+00 2.9879740e-07 0.0000000e+00 
0.0000000e+00 2.4667241e-07 0.0000000e+00 
0.0000000e+00 1.7965459e-07 0.0000000e+00 
0.0000000e+00 9.7743921e-08 0.0000000e+00 
0.0000000e+00 9.4039665e-10 0.0000000e+00 
0.0000000e+00 -1.1075598e-07 0.0000000e+00 
0.0000000e+00 -2.3734520e-07 0.0000000e+00 
0.0000000e+00 -3.7882728e-07 0.0000000e+00 
0.0000000e+00 -5.3520222e-07 0.0000000e+00 
0.0000000e+00 -7.0646996e-07 0.0000000e+00 
0.0000000e+00 -4.2293220e-07 0.0000000e+00 
0.0000000e+00 -1.8725181e-07 0.0000000e+00 
0.0000000e+00 5.7118810e-10 0.0000000e+00 
0.0000000e+00 1.4053681e-07 0.0000000e+00 
0.0000000e+00 2.3264508e-07 0.0000000e+00 
0.0000000e+00 2.7689595e-07 0.0000000e+00 
0.0000000e+00 2.7328946e-07 0.0000000e+00 
0.0000000e+00 2.2182557e-07 0.0000000e+00 
0.0000000e+00 1.2250432e-07 0.0000000e+00 
0.0000000e+00 -2.4674314e-08 0.0000000e+00 
0.0000000e+00 -2.1971033e-07 0.0000000e+00 
0.0000000e+00 -4.6260371e-07 0.0000000e+00 
0.0000000e+00 -2.4319331e-07 0.0000000e+00 
0.0000000e+00 -6.4323700e-08 0.0000000e+00 
0.0000000e+00 7.4005172e-08 0.0000000e+00 
0.0000000e+00 1.7179329e-07 0.0000000e+00 
0.0000000e+00 2.2904064e-07 0.0000000e+00 
0.0000000e+00 2.4574723e-07 0.0000000e+00 
0.0000000e+00 2.2191308e-07 0.0000000e+00 
0.0000000e+00 1.5753817e-07 0.0000000e+00 
0.0000000e+00 5.2622497e-08 0.0000000e+00 
0.0000000e+00 -9.2833929e-08 0.0000000e+00 
0.0000000e+00 -2.7883112e-07 0.0000000e+00 
0.0000000e+00 -5.0536903e-07 0.0000000e+00 
0.0000000e+00 -2.7076882e-07 0.0000000e+00 
0.0000000e+00 -7.9229636e-08 0.0000000e+00 
0.0000000e+00 6.9248529e-08 0.0000000e+00 
0.0000000e+00 1.7466567e-07 0.0000000e+00 
0.0000000e+00 2.3702178e-07 0.0000000e+00 
0.0000000e+00 2.5631687e-07 0.0000000e+00 
0.0000000e+00 2.3255090e-07 0.0000000e+00 
0.0000000e+00 1.6572393e-07 0.0000000e+00 
0.0000000e+00 5.5835930e-08 0.0000000e+00 
0.0000000e+00 -9.7113102e-08 0.0000000e+00 
0.0000000e+00 -2.9312315e-07 0.0000000e+00 
0.0000000e+00 -5.3219424e-07 0.0000000e+00 
0.0000000e+00 -3.1085546e-07 0.0000000e+00 
0.0000000e+00 -1.2704309e-07 0.0000000e+00 
0.0000000e+00 1.9242810e-08 0.0000000e+00 
0.0000000e+00 1.2800227e-07 0.0000000e+00 
0.0000000e+00 1.9923530e-07 0.0000000e+00 
0.0000000e+00 2.3294187e-07 0.0000000e+00 
0.0000000e+00 2.2912201e-07 0.0000000e+00 
0.0000000e+00 1.8777571e-07 0.0000000e+00 
0.0000000e+00 1.0890295e-07 0.0000000e+00 
0.0000000e+00 -7.4962401e-09 0.0000000e+00 
0.0000000e+00 -1.6142188e-07 0.0000000e+00 
0.0000000e+00 -3.5287397e-07 0.0000000e+00 
0.0000000e+00 -7.8734239e-08 0.0000000e+00 
0.0000000e+00 1.3282157e-07 0.0000000e+00 
0.0000000e+00 2.8179349e-07 0.0000000e+00 
0.0000000e+00 3.6818147e-07 0.0000000e+00 