# vtk DataFile Version 4.0
vtk output
ASCII
DATASET UNSTRUCTURED_GRID
POINTS 86 float
0.0000000e+00 0.0000000e+00 0.0000000e+00 
0.0000000e+00 0.0000000e+00 6.0000002e-01 
0.0000000e+00 0.0000000e+00 1.2000000e+00 
0.0000000e+00 0.0000000e+00 1.8000000e+00 
0.0000000e+00 0.0000000e+00 2.4000001e+00 
0.0000000e+00 0.0000000e+00 3.0000000e+00 
0.0000000e+00 0.0000000e+00 3.5999999e+00 
0.0000000e+00 0.0000000e+00 4.1999998e+00 
0.0000000e+00 0.0000000e+00 4.8000002e+00 
0.0000000e+00 0.0000000e+00 5.4000001e+00 
0.0000000e+00 0.0000000e+00 6.0000000e+00 
0.0000000e+00 0.0000000e+00 6.5999999e+00 
0.0000000e+00 0.0000000e+00 7.1999998e+00 
0.0000000e+00 0.0000000e+00 7.8000002e+00 
0.0000000e+00 0.0000000e+00 8.3999996e+00 
0.0000000e+00 0.0000000e+00 9.0000000e+00 
0.0000000e+00 0.0000000e+00 9.6000004e+00 
0.0000000e+00 0.0000000e+00 1.0200000e+01 
0.0000000e+00 0.0000000e+00 1.0800000e+01 
0.0000000e+00 0.0000000e+00 1.1400000e+01 
0.0000000e+00 0.0000000e+00 1.2000000e+01 
0.0000000e+00 0.0000000e+00 1.2600000e+01 
0.0000000e+00 0.0000000e+00 1.3200000e+01 
0.0000000e+00 0.0000000e+00 1.3800000e+01 
0.0000000e+00 0.0000000e+00 1.4400000e+01 
0.0000000e+00 0.0000000e+00 1.5000000e+01 
0.0000000e+00 0.0000000e+00 1.5600000e+01 
0.0000000e+00 0.0000000e+00 1.6200001e+01 
0.0000000e+00 0.0000000e+00 1.6799999e+01 
0.0000000e+00 0.0000000e+00 1.7400000e+01 
0.0000000e+00 0.0000000e+00 1.8000000e+01 
6.0000000e+00 0.0000000e+00 0.0000000e+00 
6.0000000e+00 0.0000000e+00 6.0000002e-01 
6.0000000e+00 0.0000000e+00 1.2000000e+00 
6.0000000e+00 0.0000000e+00 1.8000000e+00 
6.0000000e+00 0.0000000e+00 2.4000001e+00 
6.0000000e+00 0.0000000e+00 3.0000000e+00 
6.0000000e+00 0.0000000e+00 3.5999999e+00 
6.0000000e+00 0.0000000e+00 4.1999998e+00 
6.0000000e+00 0.0000000e+00 4.8000002e+00 
6.0000000e+00 0.0000000e+00 5.4000001e+00 
6.0000000e+00 0.0000000e+00 6.0000000e+00 
6.0000000e+00 0.0000000e+00 6.5999999e+00 
6.0000000e+00 0.0000000e+00 7.1999998e+00 
6.0000000e+00 0.0000000e+00 7.8000002e+00 
6.0000000e+00 0.0000000e+00 8.3999996e+00 
6.0000000e+00 0.0000000e+00 9.0000000e+00 
6.0000000e+00 0.0000000e+00 9.6000004e+00 
6.0000000e+00 0.0000000e+00 1.0200000e+01 
6.0000000e+00 0.0000000e+00 1.0800000e+01 
6.0000000e+00 0.0000000e+00 1.1400000e+01 
6.0000000e+00 0.0000000e+00 1.2000000e+01 
6.0000000e+00 0.0000000e+00 1.2600000e+01 
6.0000000e+00 0.0000000e+00 1.3200000e+01 
6.0000000e+00 0.0000000e+00 1.3800000e+01 
6.0000000e+00 0.0000000e+00 1.4400000e+01 
6.0000000e+00 0.0000000e+00 1.5000000e+01 
6.0000000e+00 0.0000000e+00 1.5600000e+01 
6.0000000e+00 0.0000000e+00 1.6200001e+01 
6.0000000e+00 0.0000000e+00 1.6799999e+01 
6.0000000e+00 0.0000000e+00 1.7400000e+01 
6.0000000e+00 0.0000000e+00 1.8000000e+01 
1.2000000e+00 0.0000000e+00 3.0000000e+00 
2.4000001e+00 0.0000000e+00 3.0000000e+00 
3.5999999e+00 0.0000000e+00 3.0000000e+00 
4.8000002e+00 0.0000000e+00 3.0000000e+00 
1.2000000e+00 0.0000000e+00 6.0000000e+00 
2.4000001e+00 0.0000000e+00 6.0000000e+00 
3.5999999e+00 0.0000000e+00 6.0000000e+00 
4.8000002e+00 0.0000000e+00 6.0000000e+00 
1.2000000e+00 0.0000000e+00 9.0000000e+00 
2.4000001e+00 0.0000000e+00 9.0000000e+00 
3.5999999e+00 0.0000000e+00 9.0000000e+00 
4.8000002e+00 0.0000000e+00 9.0000000e+00 
1.2000000e+00 0.0000000e+00 1.2000000e+01 
2.4000001e+00 0.0000000e+00 1.2000000e+01 
3.5999999e+00 0.0000000e+00 1.2000000e+01 
4.8000002e+00 0.0000000e+00 1.2000000e+01 
1.2000000e+00 0.0000000e+00 1.5000000e+01 
2.4000001e+00 0.0000000e+00 1.5000000e+01 
3.5999999e+00 0.0000000e+00 1.5000000e+01 
4.8000002e+00 0.0000000e+00 1.5000000e+01 
1.2000000e+00 0.0000000e+00 1.8000000e+01 
2.4000001e+00 0.0000000e+00 1.8000000e+01 
3.5999999e+00 0.0000000e+00 1.8000000e+01 
4.8000002e+00 0.0000000e+00 1.8000000e+01 

CELLS 90 270
2 0 1
2 1 2
2 2 3
2 3 4
2 4 5
2 5 6
2 6 7
2 7 8
2 8 9
2 9 10
2 10 11
2 11 12
2 12 13
2 13 14
2 14 15
2 15 16
2 16 17
2 17 18
2 18 19
2 19 20
2 20 21
2 21 22
2 22 23
2 23 24
2 24 25
2 25 26
2 26 27
2 27 28
2 28 29
2 29 30
2 31 32
2 32 33
2 33 34
2 34 35
2 35 36
2 36 37
2 37 38
2 38 39
2 39 40
2 40 41
2 41 42
2 42 43
2 43 44
2 44 45
2 45 46
2 46 47
2 47 48
2 48 49
2 49 50
2 50 51
2 51 52
2 52 53
2 53 54
2 54 55
2 55 56
2 56 57
2 57 58
2 58 59
2 59 60
2 60 61
2 5 62
2 62 63
2 63 64
2 64 65
2 65 36
2 10 66
2 66 67
2 67 68
2 68 69
2 69 41
2 15 70
2 70 71
2 71 72
2 72 73
2 73 46
2 20 74
2 74 75
2 75 76
2 76 77
2 77 51
2 25 78
2 78 79
2 79 80
2 80 81
2 81 56
2 30 82
2 82 83
2 83 84
2 84 85
2 85 61

CELL_TYPES 90
3
3
3
3
3
3
3
3
3
3
3
3
3
3
3
3
3
3
3
3
3
3
3
3
3
3
3
3
3
3
3
3
3
3
3
3
3
3
3
3
3
3
3
3
3
3
3
3
3
3
3
3
3
3
3
3
3
3
3
3
3
3
3
3
3
3
3
3
3
3
3
3
3
3
3
3
3
3
3
3
3
3
3
3
3
3
3
3
3
3
POINT_DATA 86
FIELD FieldData 7
DISPLACEMENT 3 86  float
0.0000000e+00 0.0000000e+00 0.0000000e+00 
1.0280958e-02 0.0000000e+00 2.9342041e-07 
2.0115839e-02 0.0000000e+00 5.8684083e-07 
2.9058568e-02 0.0000000e+00 8.8026121e-07 
3.6663070e-02 0.0000000e+00 1.1736817e-06 
4.2483263e-02 0.0000000e+00 1.4671020e-06 
4.7407214e-02 0.0000000e+00 1.6854642e-06 
5.2427705e-02 0.0000000e+00 1.9038264e-06 
5.7255749e-02 0.0000000e+00 2.1221886e-06 
6.1602350e-02 0.0000000e+00 2.3405507e-06 
6.5178521e-02 0.0000000e+00 2.5589127e-06 
6.8773888e-02 0.0000000e+00 2.6910629e-06 
7.3051721e-02 0.0000000e+00 2.8232132e-06 
7.7533454e-02 0.0000000e+00 2.9553637e-06 
8.1740551e-02 0.0000000e+00 3.0875140e-06 
8.5194446e-02 0.0000000e+00 3.2196642e-06 
8.8258065e-02 0.0000000e+00 3.2848593e-06 
9.1457695e-02 0.0000000e+00 3.3500546e-06 
9.4559789e-02 0.0000000e+00 3.4152497e-06 
9.7330809e-02 0.0000000e+00 3.4804450e-06 
9.9537209e-02 0.0000000e+00 3.5456401e-06 
1.0156806e-01 0.0000000e+00 3.5520168e-06 
1.0385342e-01 0.0000000e+00 3.5583935e-06 
1.0622128e-01 0.0000000e+00 3.5647702e-06 
1.0849962e-01 0.0000000e+00 3.5711471e-06 
1.1051644e-01 0.0000000e+00 3.5775238e-06 
1.1230922e-01 0.0000000e+00 3.5959426e-06 
1.1395482e-01 0.0000000e+00 3.6143617e-06 
1.1534014e-01 0.0000000e+00 3.6327808e-06 
1.1635213e-01 0.0000000e+00 3.6511999e-06 
1.1687773e-01 0.0000000e+00 3.6696188e-06 
0.0000000e+00 0.0000000e+00 0.0000000e+00 
1.0441782e-02 0.0000000e+00 -6.1415795e-07 
2.0397298e-02 0.0000000e+00 -1.2283159e-06 
2.9380281e-02 0.0000000e+00 -1.8424739e-06 
3.6904462e-02 0.0000000e+00 -2.4566318e-06 
4.2483576e-02 0.0000000e+00 -3.0707899e-06 
4.7129225e-02 0.0000000e+00 -3.5424762e-06 
5.1994931e-02 0.0000000e+00 -4.0141626e-06 
5.6807313e-02 0.0000000e+00 -4.4858489e-06 
6.1292984e-02 0.0000000e+00 -4.9575351e-06 
6.5178558e-02 0.0000000e+00 -5.4292218e-06 
6.9077581e-02 0.0000000e+00 -5.7692728e-06 
7.3482990e-02 0.0000000e+00 -6.1093237e-06 
7.7940501e-02 0.0000000e+00 -6.4493747e-06 
8.1995815e-02 0.0000000e+00 -6.7894257e-06 
8.5194670e-02 0.0000000e+00 -7.1294767e-06 
8.8014767e-02 0.0000000e+00 -7.3303549e-06 
9.1085672e-02 0.0000000e+00 -7.5312332e-06 
9.4180837e-02 0.0000000e+00 -7.7321110e-06 
9.7073704e-02 0.0000000e+00 -7.9329893e-06 
9.9537738e-02 0.0000000e+00 -8.1338676e-06 
1.0193346e-01 0.0000000e+00 -8.2606839e-06 
1.0455517e-01 0.0000000e+00 -8.3874993e-06 
1.0707690e-01 0.0000000e+00 -8.5143147e-06 
1.0917266e-01 0.0000000e+00 -8.6411310e-06 
1.1051650e-01 0.0000000e+00 -8.7679464e-06 
1.1151679e-01 0.0000000e+00 -8.7235831e-06 
1.1274074e-01 0.0000000e+00 -8.6792197e-06 
1.1410065e-01 0.0000000e+00 -8.6348564e-06 
1.1550882e-01 0.0000000e+00 -8.5904940e-06 
1.1687755e-01 0.0000000e+00 -8.5461306e-06 
4.2483397e-02 0.0000000e+00 -4.9104490e-03 
4.2483468e-02 0.0000000e+00 -3.0207909e-03 
4.2483535e-02 0.0000000e+00 1.4012253e-03 
4.2483605e-02 0.0000000e+00 3.9346023e-03 
6.5178499e-02 0.0000000e+00 -2.4468254e-03 
6.5178506e-02 0.0000000e+00 -2.1109532e-04 
6.5178573e-02 0.0000000e+00 2.8096836e-03 
6.5178566e-02 0.0000000e+00 3.7539077e-03 
8.5194558e-02 0.0000000e+00 -3.0322133e-03 
8.5194677e-02 0.0000000e+00 -2.0772174e-03 
8.5194744e-02 0.0000000e+00 4.8008526e-04 
8.5194707e-02 0.0000000e+00 2.1944346e-03 
9.9537261e-02 0.0000000e+00 -1.5218364e-03 
9.9537350e-02 0.0000000e+00 -7.7367629e-05 
9.9537514e-02 0.0000000e+00 1.7510353e-03 
9.9537678e-02 0.0000000e+00 2.2808833e-03 
1.1051647e-01 0.0000000e+00 -2.7972013e-03 
1.1051650e-01 0.0000000e+00 -3.6535070e-03 
1.1051657e-01 0.0000000e+00 -2.4684756e-03 
1.1051657e-01 0.0000000e+00 -3.8522793e-04 
1.1687772e-01 0.0000000e+00 4.6056206e-04 
1.1687769e-01 0.0000000e+00 1.8324581e-03 
1.1687766e-01 0.0000000e+00 2.7681561e-03 
1.1687760e-01 0.0000000e+00 2.1637953e-03 
ROTATION 3 86  float
0.0000000e+00 1.7258840e-02 0.0000000e+00 
0.0000000e+00 1.6887110e-02 0.0000000e+00 
0.0000000e+00 1.5771920e-02 0.0000000e+00 
0.0000000e+00 1.3913267e-02 0.0000000e+00 
0.0000000e+00 1.1311155e-02 0.0000000e+00 
0.0000000e+00 7.9655815e-03 0.0000000e+00 
0.0000000e+00 8.3673112e-03 0.0000000e+00 
0.0000000e+00 8.2873888e-03 0.0000000e+00 
0.0000000e+00 7.7258134e-03 0.0000000e+00 
0.0000000e+00 6.6825850e-03 0.0000000e+00 
0.0000000e+00 5.1577035e-03 0.0000000e+00 
0.0000000e+00 6.6939304e-03 0.0000000e+00 
0.0000000e+00 7.4325697e-03 0.0000000e+00 
0.0000000e+00 7.3736217e-03 0.0000000e+00 
0.0000000e+00 6.5170871e-03 0.0000000e+00 
0.0000000e+00 4.8629646e-03 0.0000000e+00 
0.0000000e+00 5.2842502e-03 0.0000000e+00 
0.0000000e+00 5.3163050e-03 0.0000000e+00 
0.0000000e+00 4.9591297e-03 0.0000000e+00 
0.0000000e+00 4.2127236e-03 0.0000000e+00 
0.0000000e+00 3.0770875e-03 0.0000000e+00 
0.0000000e+00 3.6446243e-03 0.0000000e+00 
0.0000000e+00 3.9254678e-03 0.0000000e+00 
0.0000000e+00 3.9196187e-03 0.0000000e+00 
0.0000000e+00 3.6270763e-03 0.0000000e+00 
0.0000000e+00 3.0478407e-03 0.0000000e+00 
0.0000000e+00 2.8967264e-03 0.0000000e+00 
0.0000000e+00 2.5571692e-03 0.0000000e+00 
0.0000000e+00 2.0291691e-03 0.0000000e+00 
0.0000000e+00 1.3127262e-03 0.0000000e+00 
0.0000000e+00 4.0784036e-04 0.0000000e+00 
0.0000000e+00 1.7538045e-02 0.0000000e+00 
0.0000000e+00 1.7132822e-02 0.0000000e+00 
0.0000000e+00 1.5917156e-02 0.0000000e+00 
0.0000000e+00 1.3891043e-02 0.0000000e+00 
0.0000000e+00 1.1054487e-02 0.0000000e+00 
0.0000000e+00 7.4074855e-03 0.0000000e+00 
0.0000000e+00 8.0020707e-03 0.0000000e+00 
0.0000000e+00 8.1410147e-03 0.0000000e+00 
0.0000000e+00 7.8243176e-03 0.0000000e+00 
0.0000000e+00 7.0519797e-03 0.0000000e+00 
0.0000000e+00 5.8240001e-03 0.0000000e+00 
0.0000000e+00 7.0465482e-03 0.0000000e+00 
0.0000000e+00 7.5119529e-03 0.0000000e+00 
0.0000000e+00 7.2202142e-03 0.0000000e+00 
0.0000000e+00 6.1713317e-03 0.0000000e+00 
0.0000000e+00 4.3653054e-03 0.0000000e+00 
0.0000000e+00 4.9721040e-03 0.0000000e+00 
0.0000000e+00 5.2013216e-03 0.0000000e+00 
0.0000000e+00 5.0529572e-03 0.0000000e+00 
0.0000000e+00 4.5270110e-03 0.0000000e+00 
0.0000000e+00 3.6234837e-03 0.0000000e+00 
0.0000000e+00 4.2717471e-03 0.0000000e+00 
0.0000000e+00 4.3767346e-03 0.0000000e+00 
0.0000000e+00 3.9384472e-03 0.0000000e+00 
0.0000000e+00 2.9568840e-03 0.0000000e+00 
0.0000000e+00 1.4320454e-03 0.0000000e+00 
0.0000000e+00 1.8778933e-03 0.0000000e+00 
0.0000000e+00 2.1775761e-03 0.0000000e+00 
0.0000000e+00 2.3310937e-03 0.0000000e+00 
0.0000000e+00 2.3384460e-03 0.0000000e+00 
0.0000000e+00 2.1996330e-03 0.0000000e+00 
0.0000000e+00 7.0848886e-04 0.0000000e+00 
0.0000000e+00 -3.2438918e-03 0.0000000e+00 
0.0000000e+00 -3.5121078e-03 0.0000000e+00 
0.0000000e+00 -9.6159347e-05 0.0000000e+00 
0.0000000e+00 -4.9121783e-04 0.0000000e+00 
0.0000000e+00 -2.6586964e-03 0.0000000e+00 
0.0000000e+00 -2.0152684e-03 0.0000000e+00 
0.0000000e+00 8.0726255e-04 0.0000000e+00 
0.0000000e+00 5.3146953e-04 0.0000000e+00 
0.0000000e+00 -1.7877497e-03 0.0000000e+00 
0.0000000e+00 -2.1612169e-03 0.0000000e+00 
0.0000000e+00 -2.4651291e-04 0.0000000e+00 
0.0000000e+00 -2.9958517e-04 0.0000000e+00 
0.0000000e+00 -1.6764636e-03 0.0000000e+00 
0.0000000e+00 -1.1767396e-03 0.0000000e+00 
0.0000000e+00 4.8779475e-04 0.0000000e+00 
0.0000000e+00 1.5719546e-03 0.0000000e+00 
0.0000000e+00 -1.9294739e-04 0.0000000e+00 
0.0000000e+00 -1.6219792e-03 0.0000000e+00 
0.0000000e+00 -1.4898338e-03 0.0000000e+00 
0.0000000e+00 -9.5880457e-04 0.0000000e+00 
0.0000000e+00 -1.1445931e-03 0.0000000e+00 
0.0000000e+00 -2.3180810e-04 0.0000000e+00 
0.0000000e+00 1.2434827e-03 0.0000000e+00 
REACTION 3 86  float
-2.0651688e+02 -0.0000000e+00 -4.8903403e+02 
-1.0913936e-11 -0.0000000e+00 -0.0000000e+00 
1.8189894e-11 -0.0000000e+00 3.9790393e-13 
5.8207661e-11 -0.0000000e+00 -2.2737368e-13 
-4.1491148e-09 -0.0000000e+00 -0.0000000e+00 
-9.8830810e-10 -0.0000000e+00 -8.1206508e-10 
1.6454578e-08 -0.0000000e+00 -7.7989171e-10 
-5.8207661e-11 -0.0000000e+00 -5.4569682e-10 
2.5793270e-09 -0.0000000e+00 -9.0949470e-13 
1.8189894e-12 -0.0000000e+00 -0.0000000e+00 
-1.5950263e-10 -0.0000000e+00 4.2746251e-11 
5.2750693e-11 -0.0000000e+00 -2.1827873e-11 
-1.0913936e-10 -0.0000000e+00 -1.8189894e-12 
1.7098500e-10 -0.0000000e+00 -1.8189894e-12 
-3.0922820e-11 -0.0000000e+00 -9.0949470e-13 
-2.2722020e-09 -0.0000000e+00 -1.0658141e-11 
2.0008883e-11 -0.0000000e+00 7.1850081e-11 
-4.0563464e-10 -0.0000000e+00 9.0949470e-13 
6.2755134e-11 -0.0000000e+00 1.8189894e-12 
-2.7165697e-08 -0.0000000e+00 -7.2759576e-12 
4.7400590e-09 -0.0000000e+00 1.2498447e-09 
2.3929715e-08 -0.0000000e+00 -2.3464963e-10 
-1.0368240e-10 -0.0000000e+00 4.5474735e-12 
-9.8225428e-11 -0.0000000e+00 1.8189894e-12 
2.0918378e-11 -0.0000000e+00 9.0949470e-13 
1.5920705e-08 -0.0000000e+00 1.1254997e-11 
5.2750693e-11 -0.0000000e+00 -1.1823431e-11 
-2.8012437e-10 -0.0000000e+00 1.8189894e-12 
6.3209882e-11 -0.0000000e+00 -9.0949470e-13 
-2.2669155e-10 -0.0000000e+00 -0.0000000e+00 
2.0022043e-08 -0.0000000e+00 -2.8421709e-13 
-2.2512354e+02 -0.0000000e+00 1.0235966e+03 
-0.0000000e+00 -0.0000000e+00 -0.0000000e+00 
5.0931703e-11 -0.0000000e+00 -6.8212103e-13 
6.5483619e-11 -0.0000000e+00 -2.2737368e-13 
-7.2759576e-12 -0.0000000e+00 -4.5474735e-13 
-2.2650681e-09 -0.0000000e+00 2.0463631e-12 
5.6388672e-11 -0.0000000e+00 -2.7284841e-12 
-7.6397555e-11 -0.0000000e+00 -9.0949470e-13 
1.4188117e-10 -0.0000000e+00 -0.0000000e+00 
-2.7284841e-11 -0.0000000e+00 9.0949470e-13 
-1.7144203e-08 -0.0000000e+00 1.3642421e-12 
6.1845640e-11 -0.0000000e+00 -0.0000000e+00 
-1.8189894e-12 -0.0000000e+00 1.8189894e-12 
1.4006218e-10 -0.0000000e+00 -1.8189894e-12 
-1.8189894e-12 -0.0000000e+00 1.8189894e-12 
-8.2282838e-09 -0.0000000e+00 4.5474735e-13 
-0.0000000e+00 -0.0000000e+00 -7.2759576e-12 
-1.5097612e-10 -0.0000000e+00 -1.8189894e-12 
1.0004442e-10 -0.0000000e+00 -1.8189894e-12 
-6.2864274e-09 -0.0000000e+00 7.2759576e-12 
-1.2855708e-08 -0.0000000e+00 2.2737368e-13 
9.2768460e-11 -0.0000000e+00 7.2759576e-12 
-2.3646862e-10 -0.0000000e+00 -0.0000000e+00 
7.7307050e-11 -0.0000000e+00 -1.8189894e-12 
-1.2922101e-08 -0.0000000e+00 -0.0000000e+00 
-7.3208639e-09 -0.0000000e+00 1.8474111e-12 
4.2291504e-11 -0.0000000e+00 -9.0949470e-12 
-3.6379788e-10 -0.0000000e+00 -1.8189894e-12 
1.5552359e-10 -0.0000000e+00 1.8189894e-12 
-1.5415935e-10 -0.0000000e+00 -0.0000000e+00 
-1.3163117e-08 -0.0000000e+00 2.6147973e-12 
-1.6409913e-09 -0.0000000e+00 7.9131723e-10 
7.4505806e-09 -0.0000000e+00 4.5793058e-10 
-7.4505806e-09 -0.0000000e+00 -1.8096102e-10 
-2.9660896e-09 -0.0000000e+00 4.5474735e-13 
-2.4332927e-09 -0.0000000e+00 3.4134473e-11 
1.8811370e-08 -0.0000000e+00 -2.8506975e-11 
-6.2593486e-09 -0.0000000e+00 4.2632564e-13 
1.4901161e-08 -0.0000000e+00 1.1368684e-12 
1.4901161e-08 -0.0000000e+00 -1.0240342e-10 
-1.6515600e-08 -0.0000000e+00 2.4272140e-11 
-1.6738568e-08 -0.0000000e+00 6.3096195e-12 
1.4901161e-08 -0.0000000e+00 1.1084467e-11 
-6.9444468e-09 -0.0000000e+00 -3.2604817e-09 
-3.7682639e-09 -0.0000000e+00 7.8661344e-10 
-0.0000000e+00 -0.0000000e+00 7.5900175e-10 
3.9161705e-09 -0.0000000e+00 -4.6341597e-10 
-1.4901161e-08 -0.0000000e+00 1.2263968e-11 
-1.6719696e-08 -0.0000000e+00 7.5459639e-12 
1.3986252e-09 -0.0000000e+00 9.3791641e-13 
9.7540465e-09 -0.0000000e+00 -1.2505552e-11 
-1.5271826e-08 -0.0000000e+00 -2.8421709e-14 
4.4703484e-08 -0.0000000e+00 4.4053650e-13 
-2.5098061e-08 -0.0000000e+00 4.2632564e-14 
4.3891760e-08 -0.0000000e+00 2.2737368e-13 
REACTION_MOMENT 3 86  float
-0.0000000e+00 -2.9103830e-11 -0.0000000e+00 
-0.0000000e+00 1.1823431e-11 -0.0000000e+00 
-0.0000000e+00 -5.8207661e-11 -0.0000000e+00 
-0.0000000e+00 -1.6370905e-11 -0.0000000e+00 
-0.0000000e+00 3.0677256e-09 -0.0000000e+00 
-0.0000000e+00 -1.9928166e-09 -0.0000000e+00 
-0.0000000e+00 -1.2814326e-08 -0.0000000e+00 
-0.0000000e+00 -1.0469194e-08 -0.0000000e+00 
-0.0000000e+00 -1.1696102e-09 -0.0000000e+00 
-0.0000000e+00 7.0031092e-11 -0.0000000e+00 
-0.0000000e+00 4.1040948e-11 -0.0000000e+00 
-0.0000000e+00 -1.3415047e-10 -0.0000000e+00 
-0.0000000e+00 -7.0940587e-11 -0.0000000e+00 
-0.0000000e+00 -8.6401997e-12 -0.0000000e+00 
-0.0000000e+00 -7.0485839e-12 -0.0000000e+00 
-0.0000000e+00 4.0188297e-11 -0.0000000e+00 
-0.0000000e+00 -2.5238478e-11 -0.0000000e+00 
-0.0000000e+00 -1.1095835e-10 -0.0000000e+00 
-0.0000000e+00 9.3677954e-11 -0.0000000e+00 
-0.0000000e+00 9.7697921e-09 -0.0000000e+00 
-0.0000000e+00 -1.1667225e-08 -0.0000000e+00 
-0.0000000e+00 -1.8451374e-09 -0.0000000e+00 
-0.0000000e+00 1.3142198e-10 -0.0000000e+00 
-0.0000000e+00 5.6388672e-11 -0.0000000e+00 
-0.0000000e+00 -6.2186700e-11 -0.0000000e+00 
-0.0000000e+00 -4.6065907e-10 -0.0000000e+00 
-0.0000000e+00 -1.5859314e-10 -0.0000000e+00 
-0.0000000e+00 -7.4919626e-11 -0.0000000e+00 
-0.0000000e+00 -6.8951067e-11 -0.0000000e+00 
-0.0000000e+00 -4.1183057e-11 -0.0000000e+00 
-0.0000000e+00 -1.2761348e-11 -0.0000000e+00 
-0.0000000e+00 -5.4569682e-12 -0.0000000e+00 
-0.0000000e+00 1.8189894e-12 -0.0000000e+00 
-0.0000000e+00 -1.8189894e-12 -0.0000000e+00 
-0.0000000e+00 3.5925041e-11 -0.0000000e+00 
-0.0000000e+00 4.1836756e-11 -0.0000000e+00 
-0.0000000e+00 -5.9117156e-11 -0.0000000e+00 
-0.0000000e+00 1.5870683e-10 -0.0000000e+00 
-0.0000000e+00 -1.9554136e-11 -0.0000000e+00 
-0.0000000e+00 -1.2278178e-11 -0.0000000e+00 
-0.0000000e+00 1.3801582e-10 -0.0000000e+00 
-0.0000000e+00 5.9799277e-11 -0.0000000e+00 
-0.0000000e+00 4.5474735e-12 -0.0000000e+00 
-0.0000000e+00 2.3192115e-11 -0.0000000e+00 
-0.0000000e+00 5.9117156e-12 -0.0000000e+00 
-0.0000000e+00 -3.0468073e-11 -0.0000000e+00 
-0.0000000e+00 5.2978066e-11 -0.0000000e+00 
-0.0000000e+00 6.3437255e-11 -0.0000000e+00 
-0.0000000e+00 3.1832315e-12 -0.0000000e+00 
-0.0000000e+00 -9.5951691e-11 -0.0000000e+00 
-0.0000000e+00 1.2012379e-08 -0.0000000e+00 
-0.0000000e+00 6.5426775e-09 -0.0000000e+00 
-0.0000000e+00 5.6843419e-11 -0.0000000e+00 
-0.0000000e+00 -7.7307050e-11 -0.0000000e+00 
-0.0000000e+00 -2.4328983e-11 -0.0000000e+00 
-0.0000000e+00 3.4393111e-09 -0.0000000e+00 
-0.0000000e+00 -7.0056672e-09 -0.0000000e+00 
-0.0000000e+00 1.0584245e-10 -0.0000000e+00 
-0.0000000e+00 -5.8435035e-11 -0.0000000e+00 
-0.0000000e+00 -1.2641976e-10 -0.0000000e+00 
-0.0000000e+00 -9.9817044e-11 -0.0000000e+00 
-0.0000000e+00 -7.9126039e-11 -0.0000000e+00 
-0.0000000e+00 1.3477575e-10 -0.0000000e+00 
-0.0000000e+00 5.1500137e-10 -0.0000000e+00 
-0.0000000e+00 -2.6966518e-10 -0.0000000e+00 
-0.0000000e+00 3.1832315e-12 -0.0000000e+00 
-0.0000000e+00 7.2191142e-12 -0.0000000e+00 
-0.0000000e+00 -2.4272140e-11 -0.0000000e+00 
-0.0000000e+00 -3.0979663e-12 -0.0000000e+00 
-0.0000000e+00 -5.4001248e-12 -0.0000000e+00 
-0.0000000e+00 6.2527761e-13 -0.0000000e+00 
-0.0000000e+00 1.3073986e-12 -0.0000000e+00 
-0.0000000e+00 9.8054898e-13 -0.0000000e+00 
-0.0000000e+00 -6.2527761e-12 -0.0000000e+00 
-0.0000000e+00 4.1046633e-10 -0.0000000e+00 
-0.0000000e+00 4.4082071e-11 -0.0000000e+00 
-0.0000000e+00 3.3583092e-10 -0.0000000e+00 
-0.0000000e+00 -2.9422154e-10 -0.0000000e+00 
-0.0000000e+00 6.3096195e-12 -0.0000000e+00 
-0.0000000e+00 1.4352963e-11 -0.0000000e+00 
-0.0000000e+00 1.6683543e-11 -0.0000000e+00 
-0.0000000e+00 3.1263880e-13 -0.0000000e+00 
-0.0000000e+00 -2.8421709e-14 -0.0000000e+00 
-0.0000000e+00 7.6738615e-13 -0.0000000e+00 
-0.0000000e+00 -1.7053026e-13 -0.0000000e+00 
-0.0000000e+00 1.7053026e-13 -0.0000000e+00 
VOLUME_ACCELERATION 3 86  float
0.0000000e+00 0.0000000e+00 0.0000000e+00 
0.0000000e+00 0.0000000e+00 0.0000000e+00 
0.0000000e+00 0.0000000e+00 0.0000000e+00 
0.0000000e+00 0.0000000e+00 0.0000000e+00 
0.0000000e+00 0.0000000e+00 0.0000000e+00 
0.0000000e+00 0.0000000e+00 0.0000000e+00 
0.0000000e+00 0.0000000e+00 0.0000000e+00 
0.0000000e+00 0.0000000e+00 0.0000000e+00 
0.0000000e+00 0.0000000e+00 0.0000000e+00 
0.0000000e+00 0.0000000e+00 0.0000000e+00 
0.0000000e+00 0.0000000e+00 0.0000000e+00 
0.0000000e+00 0.0000000e+00 0.0000000e+00 
0.0000000e+00 0.0000000e+00 0.0000000e+00 
0.0000000e+00 0.0000000e+00 0.0000000e+00 
0.0000000e+00 0.0000000e+00 0.0000000e+00 
0.0000000e+00 0.0000000e+00 0.0000000e+00 
0.0000000e+00 0.0000000e+00 0.0000000e+00 
0.0000000e+00 0.0000000e+00 0.0000000e+00 
0.0000000e+00 0.0000000e+00 0.0000000e+00 
0.0000000e+00 0.0000000e+00 0.0000000e+00 
0.0000000e+00 0.0000000e+00 0.0000000e+00 
0.0000000e+00 0.0000000e+00 0.0000000e+00 
0.0000000e+00 0.0000000e+00 0.0000000e+00 
0.0000000e+00 0.0000000e+00 0.0000000e+00 
0.0000000e+00 0.0000000e+00 0.0000000e+00 
0.0000000e+00 0.0000000e+00 0.0000000e+00 
0.0000000e+00 0.0000000e+00 0.0000000e+00 
0.0000000e+00 0.0000000e+00 0.0000000e+00 
0.0000000e+00 0.0000000e+00 0.0000000e+00 
0.0000000e+00 0.0000000e+00 0.0000000e+00 
0.0000000e+00 0.0000000e+00 0.0000000e+00 
0.0000000e+00 0.0000000e+00 0.0000000e+00 
0.0000000e+00 0.0000000e+00 0.0000000e+00 
0.0000000e+00 0.0000000e+00 0.0000000e+00 
0.0000000e+00 0.0000000e+00 0.0000000e+00 
0.0000000e+00 0.0000000e+00 0.0000000e+00 
0.0000000e+00 0.0000000e+00 0.0000000e+00 
0.0000000e+00 0.0000000e+00 0.0000000e+00 
0.0000000e+00 0.0000000e+00 0.0000000e+00 
0.0000000e+00 0.0000000e+00 0.0000000e+00 
0.0000000e+00 0.0000000e+00 0.0000000e+00 
0.0000000e+00 0.0000000e+00 0.0000000e+00 
0.0000000e+00 0.0000000e+00 0.0000000e+00 
0.0000000e+00 0.0000000e+00 0.0000000e+00 
0.0000000e+00 0.0000000e+00 0.0000000e+00 
0.0000000e+00 0.0000000e+00 0.0000000e+00 
0.0000000e+00 0.0000000e+00 0.0000000e+00 
0.0000000e+00 0.0000000e+00 0.0000000e+00 
0.0000000e+00 0.0000000e+00 0.0000000e+00 
0.0000000e+00 0.0000000e+00 0.0000000e+00 
0.0000000e+00 0.0000000e+00 0.0000000e+00 
0.0000000e+00 0.0000000e+00 0.0000000e+00 
0.0000000e+00 0.0000000e+00 0.0000000e+00 
0.0000000e+00 0.0000000e+00 0.0000000e+00 
0.0000000e+00 0.0000000e+00 0.0000000e+00 
0.0000000e+00 0.0000000e+00 0.0000000e+00 
0.0000000e+00 0.0000000e+00 0.0000000e+00 
0.0000000e+00 0.0000000e+00 0.0000000e+00 
0.0000000e+00 0.0000000e+00 0.0000000e+00 
0.0000000e+00 0.0000000e+00 0.0000000e+00 
0.0000000e+00 0.0000000e+00 0.0000000e+00 
0.0000000e+00 0.0000000e+00 0.0000000e+00 
0.0000000e+00 0.0000000e+00 0.0000000e+00 
0.0000000e+00 0.0000000e+00 0.0000000e+00 
0.0000000e+00 0.0000000e+00 0.0000000e+00 
0.0000000e+00 0.0000000e+00 0.0000000e+00 
0.0000000e+00 0.0000000e+00 0.0000000e+00 
0.0000000e+00 0.0000000e+00 0.0000000e+00 
0.0000000e+00 0.0000000e+00 0.0000000e+00 
0.0000000e+00 0.0000000e+00 0.0000000e+00 
0.0000000e+00 0.0000000e+00 0.0000000e+00 
0.0000000e+00 0.0000000e+00 0.0000000e+00 
0.0000000e+00 0.0000000e+00 0.0000000e+00 
0.0000000e+00 0.0000000e+00 0.0000000e+00 
0.0000000e+00 0.0000000e+00 0.0000000e+00 
0.0000000e+00 0.0000000e+00 0.0000000e+00 
0.0000000e+00 0.0000000e+00 0.0000000e+00 
0.0000000e+00 0.0000000e+00 0.0000000e+00 
0.0000000e+00 0.0000000e+00 0.0000000e+00 
0.0000000e+00 0.0000000e+00 0.0000000e+00 
0.0000000e+00 0.0000000e+00 0.0000000e+00 
0.0000000e+00 0.0000000e+00 0.0000000e+00 
0.0000000e+00 0.0000000e+00 0.0000000e+00 
0.0000000e+00 0.0000000e+00 0.0000000e+00 
0.0000000e+00 0.0000000e+00 0.0000000e+00 
0.0000000e+00 0.0000000e+00 0.0000000e+00 
POINT_LOAD 3 86  float
0.0000000e+00 0.0000000e+00 0.0000000e+00 
0.0000000e+00 0.0000000e+00 0.0000000e+00 
0.0000000e+00 0.0000000e+00 0.0000000e+00 
0.0000000e+00 0.0000000e+00 0.0000000e+00 
0.0000000e+00 0.0000000e+00 0.0000000e+00 
-3.9826363e+01 0.0000000e+00 -7.8045860e+01 
0.0000000e+00 0.0000000e+00 0.0000000e+00 
0.0000000e+00 0.0000000e+00 0.0000000e+00 
0.0000000e+00 0.0000000e+00 0.0000000e+00 
0.0000000e+00 0.0000000e+00 0.0000000e+00 
-6.7780106e+01 0.0000000e+00 -9.9721268e+01 
0.0000000e+00 0.0000000e+00 0.0000000e+00 
0.0000000e+00 0.0000000e+00 0.0000000e+00 
0.0000000e+00 0.0000000e+00 0.0000000e+00 
0.0000000e+00 0.0000000e+00 0.0000000e+00 
1.5783094e+01 0.0000000e+00 -2.8149607e+01 
0.0000000e+00 0.0000000e+00 0.0000000e+00 
0.0000000e+00 0.0000000e+00 0.0000000e+00 
0.0000000e+00 0.0000000e+00 0.0000000e+00 
0.0000000e+00 0.0000000e+00 0.0000000e+00 
-1.3999146e+01 0.0000000e+00 3.1269088e-02 
0.0000000e+00 0.0000000e+00 0.0000000e+00 
0.0000000e+00 0.0000000e+00 0.0000000e+00 
0.0000000e+00 0.0000000e+00 0.0000000e+00 
0.0000000e+00 0.0000000e+00 0.0000000e+00 
0.0000000e+00 0.0000000e+00 0.0000000e+00 
0.0000000e+00 0.0000000e+00 0.0000000e+00 
0.0000000e+00 0.0000000e+00 0.0000000e+00 
0.0000000e+00 0.0000000e+00 0.0000000e+00 
0.0000000e+00 0.0000000e+00 0.0000000e+00 
5.4038177e+01 0.0000000e+00 -5.7019604e+01 
0.0000000e+00 0.0000000e+00 0.0000000e+00 
0.0000000e+00 0.0000000e+00 0.0000000e+00 
0.0000000e+00 0.0000000e+00 0.0000000e+00 
0.0000000e+00 0.0000000e+00 0.0000000e+00 
0.0000000e+00 0.0000000e+00 0.0000000e+00 
7.3029083e+01 0.0000000e+00 7.4438141e+01 
0.0000000e+00 0.0000000e+00 0.0000000e+00 
0.0000000e+00 0.0000000e+00 0.0000000e+00 
0.0000000e+00 0.0000000e+00 0.0000000e+00 
0.0000000e+00 0.0000000e+00 0.0000000e+00 
-8.8515762e+01 0.0000000e+00 -6.7016762e+01 
0.0000000e+00 0.0000000e+00 0.0000000e+00 
0.0000000e+00 0.0000000e+00 0.0000000e+00 
0.0000000e+00 0.0000000e+00 0.0000000e+00 
0.0000000e+00 0.0000000e+00 0.0000000e+00 
7.3616699e+01 0.0000000e+00 -4.4655079e+01 
0.0000000e+00 0.0000000e+00 0.0000000e+00 
0.0000000e+00 0.0000000e+00 0.0000000e+00 
0.0000000e+00 0.0000000e+00 0.0000000e+00 
0.0000000e+00 0.0000000e+00 0.0000000e+00 
0.0000000e+00 0.0000000e+00 0.0000000e+00 
0.0000000e+00 0.0000000e+00 0.0000000e+00 
0.0000000e+00 0.0000000e+00 0.0000000e+00 
0.0000000e+00 0.0000000e+00 0.0000000e+00 
0.0000000e+00 0.0000000e+00 0.0000000e+00 
4.9895168e+01 0.0000000e+00 -4.7946342e+01 
0.0000000e+00 0.0000000e+00 0.0000000e+00 
0.0000000e+00 0.0000000e+00 0.0000000e+00 
0.0000000e+00 0.0000000e+00 0.0000000e+00 
0.0000000e+00 0.0000000e+00 0.0000000e+00 
0.0000000e+00 0.0000000e+00 0.0000000e+00 
5.4685753e+01 0.0000000e+00 -5.2701797e+01 
0.0000000e+00 0.0000000e+00 0.0000000e+00 
0.0000000e+00 0.0000000e+00 0.0000000e+00 
8.3392426e+01 0.0000000e+00 -5.6046093e+01 
-2.5800800e+01 0.0000000e+00 3.2817407e+00 
-5.1562046e+01 0.0000000e+00 8.9848267e+01 
6.2148525e+01 0.0000000e+00 -2.0977376e+00 
0.0000000e+00 0.0000000e+00 0.0000000e+00 
0.0000000e+00 0.0000000e+00 0.0000000e+00 
4.2737339e+01 0.0000000e+00 9.2394276e+00 
8.6729240e+01 0.0000000e+00 -5.6797646e+01 
0.0000000e+00 0.0000000e+00 0.0000000e+00 
-3.0545452e+01 0.0000000e+00 -8.1750069e+01 
-6.4495491e+01 0.0000000e+00 9.8860023e+01 
0.0000000e+00 0.0000000e+00 0.0000000e+00 
9.1496597e+01 0.0000000e+00 -4.2547821e+01 
0.0000000e+00 0.0000000e+00 0.0000000e+00 
-2.7986044e+01 0.0000000e+00 -8.6789719e+01 
5.0271210e+01 0.0000000e+00 -8.3391800e+01 
6.5419800e+01 0.0000000e+00 -8.7241074e+01 
2.3488367e+01 0.0000000e+00 1.1428149e+01 
0.0000000e+00 0.0000000e+00 0.0000000e+00 
2.6918102e+01 0.0000000e+00 7.4453880e+01 
-1.1497956e+01 0.0000000e+00 7.5774750e+01 
POINT_MOMENT 3 86  float
0.0000000e+00 0.0000000e+00 0.0000000e+00 
0.0000000e+00 0.0000000e+00 0.0000000e+00 
0.0000000e+00 0.0000000e+00 0.0000000e+00 
0.0000000e+00 0.0000000e+00 0.0000000e+00 
0.0000000e+00 0.0000000e+00 0.0000000e+00 
0.0000000e+00 0.0000000e+00 0.0000000e+00 
0.0000000e+00 0.0000000e+00 0.0000000e+00 
0.0000000e+00 0.0000000e+00 0.0000000e+00 
0.0000000e+00 0.0000000e+00 0.0000000e+00 
0.0000000e+00 0.0000000e+00 0.0000000e+00 
0.0000000e+00 0.0000000e+00 0.0000000e+00 
0.0000000e+00 0.0000000e+00 0.0000000e+00 
0.0000000e+00 0.0000000e+00 0.0000000e+00 
0.0000000e+00 0.0000000e+00 0.0000000e+00 
0.0000000e+00 0.0000000e+00 0.0000000e+00 
0.0000000e+00 0.0000000e+00 0.0000000e+00 
0.0000000e+00 0.0000000e+00 0.0000000e+00 
0.0000000e+00 0.0000000e+00 0.0000000e+00 
0.0000000e+00 0.0000000e+00 0.0000000e+00 
0.0000000e+00 0.0000000e+00 0.0000000e+00 
0.0000000e+00 0.0000000e+00 0.0000000e+00 
0.0000000e+00 0.0000000e+00 0.0000000e+00 
0.0000000e+00 0.0000000e+00 0.0000000e+00 
0.0000000e+00 0.0000000e+00 0.0000000e+00 
0.0000000e+00 0.0000000e+00 0.0000000e+00 
0.0000000e+00 0.0000000e+00 0.0000000e+00 
0.0000000e+00 0.0000000e+00 0.0000000e+00 
0.0000000e+00 0.0000000e+00 0.0000000e+00 
0.0000000e+00 0.0000000e+00 0.0000000e+00 
0.0000000e+00 0.0000000e+00 0.0000000e+00 
0.0000000e+00 0.0000000e+00 0.0000000e+00 
0.0000000e+00 0.0000000e+00 0.0000000e+00 
0.0000000e+00 0.0000000e+00 0.0000000e+00 
0.0000000e+00 0.0000000e+00 0.0000000e+00 
0.0000000e+00 0.0000000e+00 0.0000000e+00 
0.0000000e+00 0.0000000e+00 0.0000000e+00 
0.0000000e+00 0.0000000e+00 0.0000000e+00 
0.0000000e+00 0.0000000e+00 0.0000000e+00 
0.0000000e+00 0.0000000e+00 0.0000000e+00 
0.0000000e+00 0.0000000e+00 0.0000000e+00 
0.0000000e+00 0.0000000e+00 0.0000000e+00 
0.0000000e+00 0.0000000e+00 0.0000000e+00 
0.0000000e+00 0.0000000e+00 0.0000000e+00 
0.0000000e+00 0.0000000e+00 0.0000000e+00 
0.0000000e+00 0.0000000e+00 0.0000000e+00 
0.0000000e+00 0.0000000e+00 0.0000000e+00 
0.0000000e+00 0.0000000e+00 0.0000000e+00 
0.0000000e+00 0.0000000e+00 0.0000000e+00 
0.0000000e+00 0.0000000e+00 0.0000000e+00 
0.0000000e+00 0.0000000e+00 0.0000000e+00 
0.0000000e+00 0.0000000e+00 0.0000000e+00 
0.0000000e+00 0.0000000e+00 0.0000000e+00 
0.0000000e+00 0.0000000e+00 0.0000000e+00 
0.0000000e+00 0.0000000e+00 0.0000000e+00 
0.0000000e+00 0.0000000e+00 0.0000000e+00 
0.0000000e+00 0.0000000e+00 0.0000000e+00 