# vtk DataFile Version 4.0
vtk output
ASCII
DATASET UNSTRUCTURED_GRID
POINTS 11 float
4.0000000e-06 0.0000000e+00 0.0000000e+00 
1.0000000e-01 0.0000000e+00 0.0000000e+00 
2.0000000e-01 0.0000000e+00 0.0000000e+00 
3.0000001e-01 0.0000000e+00 0.0000000e+00 
4.0000001e-01 0.0000000e+00 0.0000000e+00 
5.0000000e-01 0.0000000e+00 0.0000000e+00 
6.0000002e-01 0.0000000e+00 0.0000000e+00 
6.9999999e-01 0.0000000e+00 0.0000000e+00 
8.0000001e-01 0.0000000e+00 0.0000000e+00 
8.9999998e-01 0.0000000e+00 0.0000000e+00 
1.0000000e+00 0.0000000e+00 0.0000000e+00 

CELLS 10 30
2 0 1
2 1 2
2 2 3
2 3 4
2 4 5
2 5 6
2 6 7
2 7 8
2 8 9
2 9 10

CELL_TYPES 10
3
3
3
3
3
3
3
3
3
3
POINT_DATA 11
FIELD FieldData 5
DISPLACEMENT 3 11  float
0.0000000e+00 0.0000000e+00 0.0000000e+00 
0.0000000e+00 0.0000000e+00 1.5673381e-03 
0.0000000e+00 0.0000000e+00 5.3966199e-03 
0.0000000e+00 0.0000000e+00 1.0178316e-02 
0.0000000e+00 0.0000000e+00 1.4602900e-02 
0.0000000e+00 0.0000000e+00 1.7360844e-02 
0.0000000e+00 0.0000000e+00 1.7460078e-02 
0.0000000e+00 0.0000000e+00 1.5178377e-02 
0.0000000e+00 0.0000000e+00 1.1110974e-02 
0.0000000e+00 0.0000000e+00 5.8531039e-03 
0.0000000e+00 0.0000000e+00 0.0000000e+00 
ROTATION 3 11  float
0.0000000e+00 0.0000000e+00 0.0000000e+00 
0.0000000e+00 -2.9165646e-02 0.0000000e+00 
0.0000000e+00 -4.5237437e-02 0.0000000e+00 
0.0000000e+00 -4.8213951e-02 0.0000000e+00 
0.0000000e+00 -3.8095180e-02 0.0000000e+00 
0.0000000e+00 -1.4881131e-02 0.0000000e+00 
0.0000000e+00 1.1904391e-02 0.0000000e+00 
0.0000000e+00 3.2737575e-02 0.0000000e+00 
0.0000000e+00 4.7618419e-02 0.0000000e+00 
0.0000000e+00 5.6546926e-02 0.0000000e+00 
0.0000000e+00 5.9523094e-02 0.0000000e+00 
ADJOINT_DISPLACEMENT 3 11  float
0.0000000e+00 0.0000000e+00 0.0000000e+00 
0.0000000e+00 0.0000000e+00 7.2494871e-03 
0.0000000e+00 0.0000000e+00 2.7999137e-02 
0.0000000e+00 0.0000000e+00 6.0748927e-02 
0.0000000e+00 0.0000000e+00 1.0399885e-01 
0.0000000e+00 0.0000000e+00 1.5624888e-01 
0.0000000e+00 0.0000000e+00 1.1599899e-01 
0.0000000e+00 0.0000000e+00 8.1749178e-02 
0.0000000e+00 0.0000000e+00 5.1999424e-02 
0.0000000e+00 0.0000000e+00 2.5249703e-02 
0.0000000e+00 0.0000000e+00 0.0000000e+00 
ADJOINT_ROTATION 3 11  float
0.0000000e+00 0.0000000e+00 0.0000000e+00 
0.0000000e+00 -1.4249571e-01 0.0000000e+00 
0.0000000e+00 -2.6999724e-01 0.0000000e+00 
0.0000000e+00 -3.8249859e-01 0.0000000e+00 
0.0000000e+00 -4.7999975e-01 0.0000000e+00 
0.0000000e+00 -5.6250077e-01 0.0000000e+00 
0.0000000e+00 3.6999843e-01 0.0000000e+00 
0.0000000e+00 3.1749782e-01 0.0000000e+00 
0.0000000e+00 2.7999735e-01 0.0000000e+00 
0.0000000e+00 2.5749710e-01 0.0000000e+00 
0.0000000e+00 2.4999700e-01 0.0000000e+00 
SHAPE_SENSITIVITY 3 11  float
-1.1250102e+01 9.7960856e-06 -1.6987377e-05 
-2.6079253e-04 1.4638013e-05 -1.7477901e-04 
-6.3458848e-04 5.6945178e-06 -4.7570482e-04 
-9.2294277e-04 -1.4703520e-06 -7.0776913e-04 
-8.9624227e-04 -7.3939705e-06 -6.7991077e-04 
9.9997339e+00 -1.2974226e-07 -2.7888158e-04 
-1.9801405e-04 2.3588052e-06 -1.5041097e-04 
-5.1023916e-04 -3.8837138e-06 -4.1373953e-04 
-6.6584896e-04 -1.7483842e-06 -5.4593937e-04 
-7.3248119e-04 -4.4972839e-07 -6.0282566e-04 
1.2495649e+00 -3.0465952e-08 -3.0906944e-04 
CELL_DATA 10
FIELD FieldData 2
I22_SENSITIVITY 1 10  float
-8.7622772e+01
9.4973993e+00
9.4973993e+00
9.4973993e+00
9.4973993e+00
3.8125175e+01
2.3125113e+01
1.1875055e+01
4.3750224e+00
6.2500423e-01
YOUNG_MODULUS_SENSITIVITY 1 10  float
-4.1725129e-04
4.5225723e-05
4.5225723e-05
4.5225723e-05
4.5225723e-05
1.8154847e-04
1.1011959e-04
5.6547884e-05
2.0833439e-05
2.9762107e-06
