# vtk DataFile Version 4.0
vtk output
ASCII
DATASET UNSTRUCTURED_GRID
POINTS 11 float
4.0000000e-06 0.0000000e+00 0.0000000e+00 
1.0000000e-01 0.0000000e+00 0.0000000e+00 
2.0000000e-01 0.0000000e+00 0.0000000e+00 
3.0000001e-01 0.0000000e+00 0.0000000e+00 
4.0000001e-01 0.0000000e+00 0.0000000e+00 
5.0000000e-01 0.0000000e+00 0.0000000e+00 
6.0000002e-01 0.0000000e+00 0.0000000e+00 
6.9999999e-01 0.0000000e+00 0.0000000e+00 
8.0000001e-01 0.0000000e+00 0.0000000e+00 
8.9999998e-01 0.0000000e+00 0.0000000e+00 
1.0000000e+00 0.0000000e+00 0.0000000e+00 

CELLS 10 30
2 0 1
2 1 2
2 2 3
2 3 4
2 4 5
2 5 6
2 6 7
2 7 8
2 8 9
2 9 10

CELL_TYPES 10
3
3
3
3
3
3
3
3
3
3
POINT_DATA 11
FIELD FieldData 4
DISPLACEMENT 3 11  float
0.0000000e+00 0.0000000e+00 0.0000000e+00 
0.0000000e+00 -3.3747279e-03 0.0000000e+00 
0.0000000e+00 -1.0666234e-02 0.0000000e+00 
0.0000000e+00 -1.8374503e-02 0.0000000e+00 
0.0000000e+00 -2.3999512e-02 0.0000000e+00 
0.0000000e+00 -2.6041243e-02 0.0000000e+00 
0.0000000e+00 -2.3999674e-02 0.0000000e+00 
0.0000000e+00 -1.8374786e-02 0.0000000e+00 
0.0000000e+00 -1.0666559e-02 0.0000000e+00 
0.0000000e+00 -3.3749696e-03 0.0000000e+00 
0.0000000e+00 0.0000000e+00 0.0000000e+00 
REACTION 3 11  float
-0.0000000e+00 5.0002651e+00 -0.0000000e+00 
-0.0000000e+00 1.6120399e-03 -0.0000000e+00 
-0.0000000e+00 2.8106249e-03 -0.0000000e+00 
-0.0000000e+00 2.2736287e-03 -0.0000000e+00 
-0.0000000e+00 8.9459942e-04 -0.0000000e+00 
-0.0000000e+00 2.0839495e-04 -0.0000000e+00 
-0.0000000e+00 8.9454872e-04 -0.0000000e+00 
-0.0000000e+00 2.2735791e-03 -0.0000000e+00 
-0.0000000e+00 2.8106393e-03 -0.0000000e+00 
-0.0000000e+00 1.6120990e-03 -0.0000000e+00 
-0.0000000e+00 5.0002642e+00 -0.0000000e+00 
ROTATION 3 11  float
0.0000000e+00 0.0000000e+00 0.0000000e+00 
0.0000000e+00 0.0000000e+00 -5.9997857e-02 
0.0000000e+00 0.0000000e+00 -7.9998910e-02 
0.0000000e+00 0.0000000e+00 -6.9999754e-02 
0.0000000e+00 0.0000000e+00 -4.0000401e-02 
0.0000000e+00 0.0000000e+00 -8.4499266e-07 
0.0000000e+00 0.0000000e+00 3.9998915e-02 
0.0000000e+00 0.0000000e+00 6.9998883e-02 
0.0000000e+00 0.0000000e+00 7.9999052e-02 
0.0000000e+00 0.0000000e+00 5.9999425e-02 
0.0000000e+00 0.0000000e+00 0.0000000e+00 
REACTION_MOMENT 3 11  float
-0.0000000e+00 -0.0000000e+00 8.2499355e-01 
-0.0000000e+00 -0.0000000e+00 -1.5543122e-15 
-0.0000000e+00 -0.0000000e+00 -2.6645353e-15 
-0.0000000e+00 -0.0000000e+00 -3.4416914e-15 
-0.0000000e+00 -0.0000000e+00 -0.0000000e+00 
-0.0000000e+00 -0.0000000e+00 3.4416914e-15 
-0.0000000e+00 -0.0000000e+00 -2.2204460e-15 
-0.0000000e+00 -0.0000000e+00 -2.6645353e-15 
-0.0000000e+00 -0.0000000e+00 -2.2204460e-16 
-0.0000000e+00 -0.0000000e+00 -8.8817842e-16 
-0.0000000e+00 -0.0000000e+00 -8.2499319e-01 
CELL_DATA 10
FIELD FieldData 0
