# vtk DataFile Version 4.0
vtk output
ASCII
DATASET UNSTRUCTURED_GRID
POINTS 30 float
0.0000000e+00 0.0000000e+00 0.0000000e+00 
0.0000000e+00 0.0000000e+00 8.0000001e-01 
0.0000000e+00 0.0000000e+00 1.6000000e+00 
0.0000000e+00 0.0000000e+00 2.4000001e+00 
0.0000000e+00 0.0000000e+00 3.2000000e+00 
0.0000000e+00 0.0000000e+00 4.0000000e+00 
0.0000000e+00 0.0000000e+00 4.8000002e+00 
0.0000000e+00 0.0000000e+00 5.5999999e+00 
0.0000000e+00 0.0000000e+00 6.4000001e+00 
0.0000000e+00 0.0000000e+00 7.1999998e+00 
0.0000000e+00 0.0000000e+00 8.0000000e+00 
1.0000000e+01 0.0000000e+00 0.0000000e+00 
1.0000000e+01 0.0000000e+00 8.0000001e-01 
1.0000000e+01 0.0000000e+00 1.6000000e+00 
1.0000000e+01 0.0000000e+00 2.4000001e+00 
1.0000000e+01 0.0000000e+00 3.2000000e+00 
1.0000000e+01 0.0000000e+00 4.0000000e+00 
1.0000000e+01 0.0000000e+00 4.8000002e+00 
1.0000000e+01 0.0000000e+00 5.5999999e+00 
1.0000000e+01 0.0000000e+00 6.4000001e+00 
1.0000000e+01 0.0000000e+00 7.1999998e+00 
1.0000000e+01 0.0000000e+00 8.0000000e+00 
2.0000000e+00 0.0000000e+00 4.0000000e+00 
4.0000000e+00 0.0000000e+00 4.0000000e+00 
6.0000000e+00 0.0000000e+00 4.0000000e+00 
8.0000000e+00 0.0000000e+00 4.0000000e+00 
2.0000000e+00 0.0000000e+00 8.0000000e+00 
4.0000000e+00 0.0000000e+00 8.0000000e+00 
6.0000000e+00 0.0000000e+00 8.0000000e+00 
8.0000000e+00 0.0000000e+00 8.0000000e+00 

CELLS 30 90
2 0 1
2 1 2
2 2 3
2 3 4
2 4 5
2 5 6
2 6 7
2 7 8
2 8 9
2 9 10
2 11 12
2 12 13
2 13 14
2 14 15
2 15 16
2 16 17
2 17 18
2 18 19
2 19 20
2 20 21
2 5 22
2 22 23
2 23 24
2 24 25
2 25 16
2 10 26
2 26 27
2 27 28
2 28 29
2 29 21

CELL_TYPES 30
3
3
3
3
3
3
3
3
3
3
3
3
3
3
3
3
3
3
3
3
3
3
3
3
3
3
3
3
3
3
POINT_DATA 30
FIELD FieldData 7
DISPLACEMENT 3 30  float
0.0000000e+00 0.0000000e+00 0.0000000e+00 
5.9375592e-04 0.0000000e+00 2.8192849e-06 
1.0606569e-03 0.0000000e+00 3.2968219e-06 
1.3279647e-03 0.0000000e+00 2.3397984e-06 
1.4153233e-03 0.0000000e+00 1.4937708e-06 
1.3550689e-03 0.0000000e+00 9.2546145e-07 
1.1313281e-03 0.0000000e+00 3.4364980e-06 
8.3711295e-04 0.0000000e+00 6.0448215e-06 
5.9428473e-04 0.0000000e+00 5.1320390e-06 
5.1650585e-04 0.0000000e+00 6.5173253e-06 
6.5922440e-04 0.0000000e+00 5.9945028e-06 
0.0000000e+00 0.0000000e+00 0.0000000e+00 
2.8773150e-04 0.0000000e+00 3.2607047e-06 
5.9372053e-04 0.0000000e+00 6.5214094e-06 
9.2203147e-04 0.0000000e+00 8.5395268e-06 
1.2199929e-03 0.0000000e+00 8.9490604e-06 
1.4208885e-03 0.0000000e+00 9.3585941e-06 
1.4849677e-03 0.0000000e+00 1.0662197e-05 
1.4218038e-03 0.0000000e+00 1.0186152e-05 
1.2674226e-03 0.0000000e+00 7.5668067e-06 
1.0128167e-03 0.0000000e+00 4.9474620e-06 
6.5674237e-04 0.0000000e+00 5.5713176e-06 
1.3710425e-03 0.0000000e+00 4.5026848e-04 
1.3938586e-03 0.0000000e+00 8.5728982e-04 
1.4104537e-03 0.0000000e+00 8.3286199e-04 
1.4182348e-03 0.0000000e+00 3.4007904e-04 
6.5553572e-04 0.0000000e+00 -1.0774155e-03 
6.5184711e-04 0.0000000e+00 -2.1973883e-03 
6.4792880e-04 0.0000000e+00 -2.2187564e-03 
6.5034168e-04 0.0000000e+00 -1.0621253e-03 
ROTATION 3 30  float
0.0000000e+00 7.7041070e-04 0.0000000e+00 
0.0000000e+00 6.8576331e-04 0.0000000e+00 
0.0000000e+00 4.6399937e-04 0.0000000e+00 
0.0000000e+00 2.1152220e-04 0.0000000e+00 
0.0000000e+00 1.9911018e-05 0.0000000e+00 
0.0000000e+00 -1.8952577e-04 0.0000000e+00 
0.0000000e+00 -3.4777611e-04 0.0000000e+00 
0.0000000e+00 -3.6170447e-04 0.0000000e+00 
0.0000000e+00 -2.1931856e-04 0.0000000e+00 
0.0000000e+00 3.6702197e-05 0.0000000e+00 
0.0000000e+00 3.1603355e-04 0.0000000e+00 
0.0000000e+00 3.5586071e-04 0.0000000e+00 
0.0000000e+00 3.6727168e-04 0.0000000e+00 
0.0000000e+00 4.0150457e-04 0.0000000e+00 
0.0000000e+00 4.0533490e-04 0.0000000e+00 
0.0000000e+00 3.2567716e-04 0.0000000e+00 
0.0000000e+00 1.6267040e-04 0.0000000e+00 
0.0000000e+00 -4.7941890e-06 0.0000000e+00 
0.0000000e+00 -1.4006135e-04 0.0000000e+00 
0.0000000e+00 -2.5075432e-04 0.0000000e+00 
0.0000000e+00 -3.9062288e-04 0.0000000e+00 
0.0000000e+00 -4.7680491e-04 0.0000000e+00 
0.0000000e+00 -2.4249824e-04 0.0000000e+00 
0.0000000e+00 -1.2502787e-04 0.0000000e+00 
0.0000000e+00 1.6871945e-04 0.0000000e+00 
0.0000000e+00 2.2596632e-04 0.0000000e+00 
0.0000000e+00 6.5911113e-04 0.0000000e+00 
0.0000000e+00 3.5259631e-04 0.0000000e+00 
0.0000000e+00 -3.5748514e-04 0.0000000e+00 
0.0000000e+00 -6.2555040e-04 0.0000000e+00 
REACTION 3 30  float
-8.3324736e+03 -0.0000000e+00 -7.4006230e+03 
-6.7302608e-11 -0.0000000e+00 -1.8189894e-12 
1.4188117e-10 -0.0000000e+00 -0.0000000e+00 
-3.2196112e-10 -0.0000000e+00 4.5474735e-13 
3.6197889e-10 -0.0000000e+00 4.5474735e-13 
-3.3469405e-10 -0.0000000e+00 1.5461410e-11 
6.2937033e-10 -0.0000000e+00 -6.3664629e-12 
1.8553692e-10 -0.0000000e+00 5.4569682e-12 
-1.1004886e-10 -0.0000000e+00 -7.2759576e-12 
1.0004442e-11 -0.0000000e+00 3.6379788e-12 
-3.4560799e-11 -0.0000000e+00 1.8189894e-12 
1.1232667e+03 -0.0000000e+00 -8.5593506e+03 
1.3096724e-10 -0.0000000e+00 -0.0000000e+00 
3.6379788e-12 -0.0000000e+00 2.3646862e-11 
-2.2009772e-10 -0.0000000e+00 -7.2759576e-12 
-3.6379788e-10 -0.0000000e+00 -3.2741809e-11 
-4.5702109e-10 -0.0000000e+00 -3.2741809e-10 
-1.1959855e-10 -0.0000000e+00 5.4569682e-12 
5.6388672e-11 -0.0000000e+00 -5.4569682e-12 
1.3096724e-10 -0.0000000e+00 1.0186341e-10 
1.2005330e-10 -0.0000000e+00 -0.0000000e+00 
-0.0000000e+00 -0.0000000e+00 -7.6397555e-11 
-5.4569682e-11 -0.0000000e+00 -1.0004442e-11 
-2.6921043e-10 -0.0000000e+00 2.3533175e-11 
-1.0186341e-10 -0.0000000e+00 -1.9099389e-10 
3.8926373e-10 -0.0000000e+00 1.8189894e-12 
1.1641532e-10 -0.0000000e+00 -1.4551915e-11 
-2.2009772e-10 -0.0000000e+00 2.7284841e-12 
-2.0008883e-11 -0.0000000e+00 2.8376235e-10 
1.0277290e-10 -0.0000000e+00 -1.0913936e-11 
REACTION_MOMENT 3 30  float
-0.0000000e+00 1.0913936e-10 -0.0000000e+00 
-0.0000000e+00 8.0035534e-11 -0.0000000e+00 
-0.0000000e+00 1.4188117e-10 -0.0000000e+00 
-0.0000000e+00 -4.9112714e-11 -0.0000000e+00 
-0.0000000e+00 6.5483619e-11 -0.0000000e+00 
-0.0000000e+00 5.0022209e-11 -0.0000000e+00 
-0.0000000e+00 3.6379788e-12 -0.0000000e+00 
-0.0000000e+00 1.2005330e-10 -0.0000000e+00 
-0.0000000e+00 2.3283064e-10 -0.0000000e+00 
-0.0000000e+00 -1.2732926e-11 -0.0000000e+00 
-0.0000000e+00 -2.9103830e-11 -0.0000000e+00 
-0.0000000e+00 -1.0913936e-11 -0.0000000e+00 
-0.0000000e+00 -3.6379788e-12 -0.0000000e+00 
-0.0000000e+00 5.8207661e-11 -0.0000000e+00 
-0.0000000e+00 -2.1827873e-11 -0.0000000e+00 
-0.0000000e+00 -3.8198777e-11 -0.0000000e+00 
-0.0000000e+00 1.8189894e-12 -0.0000000e+00 
-0.0000000e+00 1.6370905e-11 -0.0000000e+00 
-0.0000000e+00 -1.2732926e-10 -0.0000000e+00 
-0.0000000e+00 -7.2759576e-12 -0.0000000e+00 
-0.0000000e+00 -5.0931703e-11 -0.0000000e+00 
-0.0000000e+00 -3.6379788e-11 -0.0000000e+00 
-0.0000000e+00 -5.7752914e-11 -0.0000000e+00 
-0.0000000e+00 -6.3664629e-12 -0.0000000e+00 
-0.0000000e+00 1.1823431e-11 -0.0000000e+00 
-0.0000000e+00 3.6379788e-12 -0.0000000e+00 
-0.0000000e+00 7.2759576e-12 -0.0000000e+00 
-0.0000000e+00 2.5465852e-11 -0.0000000e+00 
-0.0000000e+00 -1.4551915e-11 -0.0000000e+00 
-0.0000000e+00 5.4569682e-12 -0.0000000e+00 
VOLUME_ACCELERATION 3 30  float
0.0000000e+00 0.0000000e+00 0.0000000e+00 
0.0000000e+00 0.0000000e+00 0.0000000e+00 
0.0000000e+00 0.0000000e+00 0.0000000e+00 
0.0000000e+00 0.0000000e+00 0.0000000e+00 
0.0000000e+00 0.0000000e+00 0.0000000e+00 
0.0000000e+00 0.0000000e+00 0.0000000e+00 
0.0000000e+00 0.0000000e+00 0.0000000e+00 
0.0000000e+00 0.0000000e+00 0.0000000e+00 
0.0000000e+00 0.0000000e+00 0.0000000e+00 
0.0000000e+00 0.0000000e+00 0.0000000e+00 
0.0000000e+00 0.0000000e+00 0.0000000e+00 
0.0000000e+00 0.0000000e+00 0.0000000e+00 
0.0000000e+00 0.0000000e+00 0.0000000e+00 
0.0000000e+00 0.0000000e+00 0.0000000e+00 
0.0000000e+00 0.0000000e+00 0.0000000e+00 
0.0000000e+00 0.0000000e+00 0.0000000e+00 
0.0000000e+00 0.0000000e+00 0.0000000e+00 
0.0000000e+00 0.0000000e+00 0.0000000e+00 
0.0000000e+00 0.0000000e+00 0.0000000e+00 
0.0000000e+00 0.0000000e+00 0.0000000e+00 
0.0000000e+00 0.0000000e+00 0.0000000e+00 
0.0000000e+00 0.0000000e+00 0.0000000e+00 
0.0000000e+00 0.0000000e+00 0.0000000e+00 
0.0000000e+00 0.0000000e+00 0.0000000e+00 
0.0000000e+00 0.0000000e+00 0.0000000e+00 
0.0000000e+00 0.0000000e+00 0.0000000e+00 
0.0000000e+00 0.0000000e+00 0.0000000e+00 
0.0000000e+00 0.0000000e+00 0.0000000e+00 
0.0000000e+00 0.0000000e+00 0.0000000e+00 
0.0000000e+00 0.0000000e+00 0.0000000e+00 
POINT_LOAD 3 30  float
0.0000000e+00 0.0000000e+00 0.0000000e+00 
3.1675312e+03 0.0000000e+00 6.1470884e+03 
7.3065566e+03 0.0000000e+00 3.7657212e+03 
1.7082659e+03 0.0000000e+00 -2.9136490e+02 
-9.4544678e+03 0.0000000e+00 -7.2900983e+02 
-4.6560571e+03 0.0000000e+00 -8.9016064e+03 
1.1833870e+03 0.0000000e+00 -2.5537811e+02 
-2.8947752e+00 0.0000000e+00 9.2429033e+03 
-4.1983633e+03 0.0000000e+00 -6.0324312e+03 
-4.6929302e+03 0.0000000e+00 5.0087852e+03 
5.0722275e+03 0.0000000e+00 3.7431316e+03 
0.0000000e+00 0.0000000e+00 0.0000000e+00 
0.0000000e+00 0.0000000e+00 0.0000000e+00 
-5.2392876e+03 0.0000000e+00 3.2617935e+03 
1.3687062e+01 0.0000000e+00 4.2225303e+03 
0.0000000e+00 0.0000000e+00 0.0000000e+00 
6.2031567e+03 0.0000000e+00 3.8961255e+02 
4.5405781e+03 0.0000000e+00 4.6715776e+03 
-5.2909917e+03 0.0000000e+00 5.6261616e+03 
0.0000000e+00 0.0000000e+00 0.0000000e+00 
8.1567334e+03 0.0000000e+00 -8.5134033e+03 
0.0000000e+00 0.0000000e+00 0.0000000e+00 
-7.1845718e+03 0.0000000e+00 -1.0478274e+03 
6.5320039e+03 0.0000000e+00 9.5594006e+02 
9.2546504e+03 0.0000000e+00 5.5453037e+03 
5.3838218e+03 0.0000000e+00 -7.3716372e+03 
0.0000000e+00 0.0000000e+00 0.0000000e+00 
2.4115718e+02 0.0000000e+00 -3.8749058e+03 
-6.6477651e+03 0.0000000e+00 -9.4430244e+03 
-4.1872212e+03 0.0000000e+00 9.8400117e+03 
POINT_MOMENT 3 30  float
0.0000000e+00 0.0000000e+00 0.0000000e+00 
0.0000000e+00 0.0000000e+00 0.0000000e+00 
0.0000000e+00 0.0000000e+00 0.0000000e+00 
0.0000000e+00 0.0000000e+00 0.0000000e+00 
0.0000000e+00 0.0000000e+00 0.0000000e+00 
0.0000000e+00 0.0000000e+00 0.0000000e+00 
0.0000000e+00 0.0000000e+00 0.0000000e+00 
0.0000000e+00 0.0000000e+00 0.0000000e+00 
0.0000000e+00 0.0000000e+00 0.0000000e+00 
0.0000000e+00 0.0000000e+00 0.0000000e+00 
0.0000000e+00 0.0000000e+00 0.0000000e+00 
0.0000000e+00 0.0000000e+00 0.0000000e+00 
0.0000000e+00 0.0000000e+00 0.0000000e+00 
0.0000000e+00 0.0000000e+00 0.0000000e+00 
0.0000000e+00 0.0000000e+00 0.0000000e+00 
0.0000000e+00 0.0000000e+00 0.0000000e+00 
0.0000000e+00 0.0000000e+00 0.0000000e+00 
0.0000000e+00 0.0000000e+00 0.0000000e+00 
0.0000000e+00 0.0000000e+00 0.0000000e+00 
0.0000000e+00 0.0000000e+00 0.0000000e+00 
0.0000000e+00 0.0000000e+00 0.0000000e+00 
0.0000000e+00 0.0000000e+00 0.0000000e+00 
0.0000000e+00 0.0000000e+00 0.0000000e+00 
0.0000000e+00 0.0000000e+00 0.0000000e+00 
0.0000000e+00 0.0000000e+00 0.0000000e+00 
0.0000000e+00 0.0000000e+00 0.0000000e+00 
0.0000000e+00 0.0000000e+00 0.0000000e+00 
0.0000000e+00 0.0000000e+00 0.0000000e+00 
0.0000000e+00 0.0000000e+00 0.0000000e+00 
0.0000000e+00 0.0000000e+00 0.0000000e+00 
CELL_DATA 30
FIELD FieldData 9
YOUNG_MODULUS 1 30  float
2.1000000e+11
2.1000000e+11
2.1000000e+11
2.1000000e+11
2.1000000e+11
2.1000000e+11
2.1000000e+11
2.1000000e+11
2.1000000e+11
2.1000000e+11
2.1000000e+11
2.1000000e+11
2.1000000e+11
2.1000000e+11
2.1000000e+11
2.1000000e+11
2.1000000e+11
2.1000000e+11
2.1000000e+11
2.1000000e+11
2.1000000e+11
2.1000000e+11
2.1000000e+11
2.1000000e+11
2.1000000e+11
2.1000000e+11
2.1000000e+11
2.1000000e+11
2.1000000e+11
2.1000000e+11
DENSITY 1 30  float
7.8500000e+03
7.8500000e+03
7.8500000e+03
7.8500000e+03
7.8500000e+03
7.8500000e+03
7.8500000e+03
7.8500000e+03
7.8500000e+03
7.8500000e+03
7.8500000e+03
7.8500000e+03
7.8500000e+03
7.8500000e+03
7.8500000e+03
7.8500000e+03
7.8500000e+03
7.8500000e+03
7.8500000e+03
7.8500000e+03
7.8500000e+03
7.8500000e+03
7.8500000e+03
7.8500000e+03
7.8500000e+03
7.8500000e+03
7.8500000e+03
7.8500000e+03
7.8500000e+03
7.8500000e+03
CROSS_AREA 1 30  float
9.9999998e-03
9.9999998e-03
9.9999998e-03
9.9999998e-03
9.9999998e-03
9.9999998e-03
9.9999998e-03
9.9999998e-03
9.9999998e-03
9.9999998e-03
9.9999998e-03
9.9999998e-03
9.9999998e-03
9.9999998e-03
9.9999998e-03
9.9999998e-03
9.9999998e-03
9.9999998e-03
9.9999998e-03
9.9999998e-03
9.9999998e-03
9.9999998e-03
9.9999998e-03
9.9999998e-03
9.9999998e-03
9.9999998e-03
9.9999998e-03
9.9999998e-03
9.9999998e-03
9.9999998e-03
I22 1 30  float
1.5000001e-04
1.5000001e-04
1.5000001e-04
1.5000001e-04
1.5000001e-04
1.5000001e-04
1.5000001e-04
1.5000001e-04
1.5000001e-04
1.5000001e-04
1.5000001e-04
1.5000001e-04
1.5000001e-04
1.5000001e-04
1.5000001e-04
1.5000001e-04
1.5000001e-04
1.5000001e-04
1.5000001e-04
1.5000001e-04
1.5000001e-04
1.5000001e-04
1.5000001e-04
1.5000001e-04
1.5000001e-04
1.5000001e-04
1.5000001e-04
1.5000001e-04
1.5000001e-04
1.5000001e-04
I33 1 30  float
1.5000001e-04
1.5000001e-04
1.5000001e-04
1.5000001e-04
1.5000001e-04
1.5000001e-04
1.5000001e-04
1.5000001e-04
1.5000001e-04
1.5000001e-04
1.5000001e-04
1.5000001e-04
1.5000001e-04
1.5000001e-04
1.5000001e-04
1.5000001e-04
1.5000001e-04
1.5000001e-04
1.5000001e-04
1.5000001e-04
1.5000001e-04
1.5000001e-04
1.5000001e-04
1.5000001e-04
1.5000001e-04
1.5000001e-04
1.5000001e-04
1.5000001e-04
1.5000001e-04
1.5000001e-04
TORSIONAL_INERTIA 1 30  float
3.0000001e-04
3.0000001e-04
3.0000001e-04
3.0000001e-04
3.0000001e-04
3.0000001e-04
3.0000001e-04
3.0000001e-04
3.0000001e-04
3.0000001e-04
3.0000001e-04
3.0000001e-04
3.0000001e-04
3.0000001e-04
3.0000001e-04
3.0000001e-04
3.0000001e-04
3.0000001e-04
3.0000001e-04
3.0000001e-04
3.0000001e-04
3.0000001e-04
3.0000001e-04
3.0000001e-04
3.0000001e-04
3.0000001e-04
3.0000001e-04
3.0000001e-04
3.0000001e-04
3.0000001e-04
POISSON_RATIO 1 30  float
3.0000001e-01
3.0000001e-01
3.0000001e-01
3.0000001e-01
3.0000001e-01
3.0000001e-01
3.0000001e-01
3.0000001e-01
3.0000001e-01
3.0000001e-01
3.0000001e-01
3.0000001e-01
3.0000001e-01
3.0000001e-01
3.0000001e-01
3.0000001e-01
3.0000001e-01
3.0000001e-01
3.0000001e-01
3.0000001e-01
3.0000001e-01
3.0000001e-01
3.0000001e-01
3.0000001e-01
3.0000001e-01
3.0000001e-01
3.0000001e-01
3.0000001e-01
3.0000001e-01
3.0000001e-01
MOMENT 3 30  float
0.0000000e+00 -3.3329897e+03 0.0000000e+00 
0.0000000e+00 -8.7319561e+03 0.0000000e+00 
0.0000000e+00 -9.9412881e+03 0.0000000e+00 
0.0000000e+00 -7.5446904e+03 0.0000000e+00 
0.0000000e+00 -8.2465732e+03 0.0000000e+00 
0.0000000e+00 -6.2311074e+03 0.0000000e+00 
0.0000000e+00 -5.4842932e+02 0.0000000e+00 
0.0000000e+00 5.6064453e+03 0.0000000e+00 
0.0000000e+00 1.0080817e+04 0.0000000e+00 
0.0000000e+00 1.0998672e+04 0.0000000e+00 
0.0000000e+00 4.4930670e+02 0.0000000e+00 
0.0000000e+00 1.3479200e+03 0.0000000e+00 
0.0000000e+00 1.5081845e+02 0.0000000e+00 
0.0000000e+00 -3.1365234e+03 0.0000000e+00 
0.0000000e+00 -6.4183906e+03 0.0000000e+00 
0.0000000e+00 -6.5939185e+03 0.0000000e+00 
0.0000000e+00 -5.3261445e+03 0.0000000e+00 
0.0000000e+00 -4.3585356e+03 0.0000000e+00 
0.0000000e+00 -5.5073237e+03 0.0000000e+00 
0.0000000e+00 -3.3934185e+03 0.0000000e+00 
0.0000000e+00 -8.3431628e+02 0.0000000e+00 
0.0000000e+00 1.8501582e+03 0.0000000e+00 
0.0000000e+00 4.6265200e+03 0.0000000e+00 
0.0000000e+00 9.0163812e+02 0.0000000e+00 
0.0000000e+00 -9.9691040e+02 0.0000000e+00 
0.0000000e+00 5.4034722e+03 0.0000000e+00 
0.0000000e+00 -4.8276084e+03 0.0000000e+00 
0.0000000e+00 -1.1183783e+04 0.0000000e+00 
0.0000000e+00 -4.2220273e+03 0.0000000e+00 
0.0000000e+00 2.3427410e+03 0.0000000e+00 
FORCE 3 30  float
7.4006230e+03 0.0000000e+00 -8.3324736e+03 
1.2535344e+03 0.0000000e+00 -5.1649429e+03 
-2.5121870e+03 0.0000000e+00 2.1416140e+03 
-2.2208220e+03 0.0000000e+00 3.8498799e+03 
-1.4918121e+03 0.0000000e+00 -5.6045879e+03 
6.5914712e+03 0.0000000e+00 6.5116538e+03 
6.8468491e+03 0.0000000e+00 7.6950410e+03 
-2.3960544e+03 0.0000000e+00 7.6921460e+03 
3.6363767e+03 0.0000000e+00 3.4937830e+03 
-1.3724087e+03 0.0000000e+00 -1.1991472e+03 
8.5593506e+03 0.0000000e+00 1.1232667e+03 
8.5593506e+03 0.0000000e+00 1.1232667e+03 
5.2975566e+03 0.0000000e+00 -4.1160210e+03 
1.0750266e+03 0.0000000e+00 -4.1023340e+03 
1.0750266e+03 0.0000000e+00 -4.1023340e+03 
3.4219585e+03 0.0000000e+00 -6.8557147e+02 
-1.2496195e+03 0.0000000e+00 3.8550066e+03 
-6.8757808e+03 0.0000000e+00 -1.4359851e+03 
-6.8757808e+03 0.0000000e+00 -1.4359851e+03 
1.6376219e+03 0.0000000e+00 6.7207485e+03 
1.6772299e+04 0.0000000e+00 8.1832355e+02 
2.3956871e+04 0.0000000e+00 1.8661510e+03 
1.7424867e+04 0.0000000e+00 9.1021088e+02 
8.1702163e+03 0.0000000e+00 -4.6350928e+03 
2.7863943e+03 0.0000000e+00 2.7365444e+03 
-3.8730801e+03 0.0000000e+00 -5.1155405e+03 
-3.8730801e+03 0.0000000e+00 -5.1155405e+03 
-4.1142373e+03 0.0000000e+00 -1.2406344e+03 
2.5335276e+03 0.0000000e+00 8.2023906e+03 
6.7207485e+03 0.0000000e+00 -1.6376219e+03 
