# vtk DataFile Version 4.0
vtk output
ASCII
DATASET UNSTRUCTURED_GRID
POINTS 212 float
0.0000000e+00 0.0000000e+00 0.0000000e+00 
0.0000000e+00 0.0000000e+00 2.5000000e-01 
0.0000000e+00 0.0000000e+00 5.0000000e-01 
0.0000000e+00 0.0000000e+00 7.5000000e-01 
0.0000000e+00 0.0000000e+00 1.0000000e+00 
0.0000000e+00 0.0000000e+00 1.2500000e+00 
0.0000000e+00 0.0000000e+00 1.5000000e+00 
0.0000000e+00 0.0000000e+00 1.7500000e+00 
0.0000000e+00 0.0000000e+00 2.0000000e+00 
0.0000000e+00 0.0000000e+00 2.2500000e+00 
0.0000000e+00 0.0000000e+00 2.5000000e+00 
0.0000000e+00 0.0000000e+00 2.7500000e+00 
0.0000000e+00 0.0000000e+00 3.0000000e+00 
0.0000000e+00 0.0000000e+00 3.2500000e+00 
0.0000000e+00 0.0000000e+00 3.5000000e+00 
0.0000000e+00 0.0000000e+00 3.7500000e+00 
0.0000000e+00 0.0000000e+00 4.0000000e+00 
0.0000000e+00 0.0000000e+00 4.2500000e+00 
0.0000000e+00 0.0000000e+00 4.5000000e+00 
0.0000000e+00 0.0000000e+00 4.7500000e+00 
0.0000000e+00 0.0000000e+00 5.0000000e+00 
0.0000000e+00 0.0000000e+00 5.2500000e+00 
0.0000000e+00 0.0000000e+00 5.5000000e+00 
0.0000000e+00 0.0000000e+00 5.7500000e+00 
0.0000000e+00 0.0000000e+00 6.0000000e+00 
0.0000000e+00 0.0000000e+00 6.2500000e+00 
0.0000000e+00 0.0000000e+00 6.5000000e+00 
0.0000000e+00 0.0000000e+00 6.7500000e+00 
0.0000000e+00 0.0000000e+00 7.0000000e+00 
0.0000000e+00 0.0000000e+00 7.2500000e+00 
0.0000000e+00 0.0000000e+00 7.5000000e+00 
0.0000000e+00 0.0000000e+00 7.7500000e+00 
0.0000000e+00 0.0000000e+00 8.0000000e+00 
0.0000000e+00 0.0000000e+00 8.2500000e+00 
0.0000000e+00 0.0000000e+00 8.5000000e+00 
0.0000000e+00 0.0000000e+00 8.7500000e+00 
0.0000000e+00 0.0000000e+00 9.0000000e+00 
0.0000000e+00 0.0000000e+00 9.2500000e+00 
0.0000000e+00 0.0000000e+00 9.5000000e+00 
0.0000000e+00 0.0000000e+00 9.7500000e+00 
0.0000000e+00 0.0000000e+00 1.0000000e+01 
0.0000000e+00 0.0000000e+00 1.0250000e+01 
0.0000000e+00 0.0000000e+00 1.0500000e+01 
0.0000000e+00 0.0000000e+00 1.0750000e+01 
0.0000000e+00 0.0000000e+00 1.1000000e+01 
0.0000000e+00 0.0000000e+00 1.1250000e+01 
0.0000000e+00 0.0000000e+00 1.1500000e+01 
0.0000000e+00 0.0000000e+00 1.1750000e+01 
0.0000000e+00 0.0000000e+00 1.2000000e+01 
0.0000000e+00 0.0000000e+00 1.2250000e+01 
0.0000000e+00 0.0000000e+00 1.2500000e+01 
0.0000000e+00 0.0000000e+00 1.2750000e+01 
0.0000000e+00 0.0000000e+00 1.3000000e+01 
0.0000000e+00 0.0000000e+00 1.3250000e+01 
0.0000000e+00 0.0000000e+00 1.3500000e+01 
0.0000000e+00 0.0000000e+00 1.3750000e+01 
0.0000000e+00 0.0000000e+00 1.4000000e+01 
0.0000000e+00 0.0000000e+00 1.4250000e+01 
0.0000000e+00 0.0000000e+00 1.4500000e+01 
0.0000000e+00 0.0000000e+00 1.4750000e+01 
0.0000000e+00 0.0000000e+00 1.5000000e+01 
0.0000000e+00 0.0000000e+00 1.5250000e+01 
0.0000000e+00 0.0000000e+00 1.5500000e+01 
0.0000000e+00 0.0000000e+00 1.5750000e+01 
0.0000000e+00 0.0000000e+00 1.6000000e+01 
0.0000000e+00 0.0000000e+00 1.6250000e+01 
0.0000000e+00 0.0000000e+00 1.6500000e+01 
0.0000000e+00 0.0000000e+00 1.6750000e+01 
0.0000000e+00 0.0000000e+00 1.7000000e+01 
0.0000000e+00 0.0000000e+00 1.7250000e+01 
0.0000000e+00 0.0000000e+00 1.7500000e+01 
0.0000000e+00 0.0000000e+00 1.7750000e+01 
0.0000000e+00 0.0000000e+00 1.8000000e+01 
5.0000000e-01 0.0000000e+00 3.0000000e+00 
5.0000000e-01 0.0000000e+00 6.0000000e+00 
5.0000000e-01 0.0000000e+00 9.0000000e+00 
5.0000000e-01 0.0000000e+00 1.2000000e+01 
5.0000000e-01 0.0000000e+00 1.5000000e+01 
5.0000000e-01 0.0000000e+00 1.8000000e+01 
1.0000000e+00 0.0000000e+00 3.0000000e+00 
1.0000000e+00 0.0000000e+00 6.0000000e+00 
1.0000000e+00 0.0000000e+00 9.0000000e+00 
1.0000000e+00 0.0000000e+00 1.2000000e+01 
1.0000000e+00 0.0000000e+00 1.5000000e+01 
1.0000000e+00 0.0000000e+00 1.8000000e+01 
1.5000000e+00 0.0000000e+00 3.0000000e+00 
1.5000000e+00 0.0000000e+00 6.0000000e+00 
1.5000000e+00 0.0000000e+00 9.0000000e+00 
1.5000000e+00 0.0000000e+00 1.2000000e+01 
1.5000000e+00 0.0000000e+00 1.5000000e+01 
1.5000000e+00 0.0000000e+00 1.8000000e+01 
2.0000000e+00 0.0000000e+00 3.0000000e+00 
2.0000000e+00 0.0000000e+00 6.0000000e+00 
2.0000000e+00 0.0000000e+00 9.0000000e+00 
2.0000000e+00 0.0000000e+00 1.2000000e+01 
2.0000000e+00 0.0000000e+00 1.5000000e+01 
2.0000000e+00 0.0000000e+00 1.8000000e+01 
2.5000000e+00 0.0000000e+00 3.0000000e+00 
2.5000000e+00 0.0000000e+00 6.0000000e+00 
2.5000000e+00 0.0000000e+00 9.0000000e+00 
2.5000000e+00 0.0000000e+00 1.2000000e+01 
2.5000000e+00 0.0000000e+00 1.5000000e+01 
2.5000000e+00 0.0000000e+00 1.8000000e+01 
3.0000000e+00 0.0000000e+00 3.0000000e+00 
3.0000000e+00 0.0000000e+00 6.0000000e+00 
3.0000000e+00 0.0000000e+00 9.0000000e+00 
3.0000000e+00 0.0000000e+00 1.2000000e+01 
3.0000000e+00 0.0000000e+00 1.5000000e+01 
3.0000000e+00 0.0000000e+00 1.8000000e+01 
3.5000000e+00 0.0000000e+00 3.0000000e+00 
3.5000000e+00 0.0000000e+00 6.0000000e+00 
3.5000000e+00 0.0000000e+00 9.0000000e+00 
3.5000000e+00 0.0000000e+00 1.2000000e+01 
3.5000000e+00 0.0000000e+00 1.5000000e+01 
3.5000000e+00 0.0000000e+00 1.8000000e+01 
4.0000000e+00 0.0000000e+00 3.0000000e+00 
4.0000000e+00 0.0000000e+00 6.0000000e+00 
4.0000000e+00 0.0000000e+00 9.0000000e+00 
4.0000000e+00 0.0000000e+00 1.2000000e+01 
4.0000000e+00 0.0000000e+00 1.5000000e+01 
4.0000000e+00 0.0000000e+00 1.8000000e+01 
4.5000000e+00 0.0000000e+00 3.0000000e+00 
4.5000000e+00 0.0000000e+00 6.0000000e+00 
4.5000000e+00 0.0000000e+00 9.0000000e+00 
4.5000000e+00 0.0000000e+00 1.2000000e+01 
4.5000000e+00 0.0000000e+00 1.5000000e+01 
4.5000000e+00 0.0000000e+00 1.8000000e+01 
5.0000000e+00 0.0000000e+00 3.0000000e+00 
5.0000000e+00 0.0000000e+00 6.0000000e+00 
5.0000000e+00 0.0000000e+00 9.0000000e+00 
5.0000000e+00 0.0000000e+00 1.2000000e+01 
5.0000000e+00 0.0000000e+00 1.5000000e+01 
5.0000000e+00 0.0000000e+00 1.8000000e+01 
5.5000000e+00 0.0000000e+00 3.0000000e+00 
5.5000000e+00 0.0000000e+00 6.0000000e+00 
5.5000000e+00 0.0000000e+00 9.0000000e+00 
5.5000000e+00 0.0000000e+00 1.2000000e+01 
5.5000000e+00 0.0000000e+00 1.5000000e+01 
5.5000000e+00 0.0000000e+00 1.8000000e+01 
6.0000000e+00 0.0000000e+00 0.0000000e+00 
6.0000000e+00 0.0000000e+00 2.5000000e-01 
6.0000000e+00 0.0000000e+00 5.0000000e-01 
6.0000000e+00 0.0000000e+00 7.5000000e-01 
6.0000000e+00 0.0000000e+00 1.0000000e+00 
6.0000000e+00 0.0000000e+00 1.2500000e+00 
6.0000000e+00 0.0000000e+00 1.5000000e+00 
6.0000000e+00 0.0000000e+00 1.7500000e+00 
6.0000000e+00 0.0000000e+00 2.0000000e+00 
6.0000000e+00 0.0000000e+00 2.2500000e+00 
6.0000000e+00 0.0000000e+00 2.5000000e+00 
6.0000000e+00 0.0000000e+00 2.7500000e+00 
6.0000000e+00 0.0000000e+00 3.0000000e+00 
6.0000000e+00 0.0000000e+00 3.2500000e+00 
6.0000000e+00 0.0000000e+00 3.5000000e+00 
6.0000000e+00 0.0000000e+00 3.7500000e+00 
6.0000000e+00 0.0000000e+00 4.0000000e+00 
6.0000000e+00 0.0000000e+00 4.2500000e+00 
6.0000000e+00 0.0000000e+00 4.5000000e+00 
6.0000000e+00 0.0000000e+00 4.7500000e+00 
6.0000000e+00 0.0000000e+00 5.0000000e+00 
6.0000000e+00 0.0000000e+00 5.2500000e+00 
6.0000000e+00 0.0000000e+00 5.5000000e+00 
6.0000000e+00 0.0000000e+00 5.7500000e+00 
6.0000000e+00 0.0000000e+00 6.0000000e+00 
6.0000000e+00 0.0000000e+00 6.2500000e+00 
6.0000000e+00 0.0000000e+00 6.5000000e+00 
6.0000000e+00 0.0000000e+00 6.7500000e+00 
6.0000000e+00 0.0000000e+00 7.0000000e+00 
6.0000000e+00 0.0000000e+00 7.2500000e+00 
6.0000000e+00 0.0000000e+00 7.5000000e+00 
6.0000000e+00 0.0000000e+00 7.7500000e+00 
6.0000000e+00 0.0000000e+00 8.0000000e+00 
6.0000000e+00 0.0000000e+00 8.2500000e+00 
6.0000000e+00 0.0000000e+00 8.5000000e+00 
6.0000000e+00 0.0000000e+00 8.7500000e+00 
6.0000000e+00 0.0000000e+00 9.0000000e+00 
6.0000000e+00 0.0000000e+00 9.2500000e+00 
6.0000000e+00 0.0000000e+00 9.5000000e+00 
6.0000000e+00 0.0000000e+00 9.7500000e+00 
6.0000000e+00 0.0000000e+00 1.0000000e+01 
6.0000000e+00 0.0000000e+00 1.0250000e+01 
6.0000000e+00 0.0000000e+00 1.0500000e+01 
6.0000000e+00 0.0000000e+00 1.0750000e+01 
6.0000000e+00 0.0000000e+00 1.1000000e+01 
6.0000000e+00 0.0000000e+00 1.1250000e+01 
6.0000000e+00 0.0000000e+00 1.1500000e+01 
6.0000000e+00 0.0000000e+00 1.1750000e+01 
6.0000000e+00 0.0000000e+00 1.2000000e+01 
6.0000000e+00 0.0000000e+00 1.2250000e+01 
6.0000000e+00 0.0000000e+00 1.2500000e+01 
6.0000000e+00 0.0000000e+00 1.2750000e+01 
6.0000000e+00 0.0000000e+00 1.3000000e+01 
6.0000000e+00 0.0000000e+00 1.3250000e+01 
6.0000000e+00 0.0000000e+00 1.3500000e+01 
6.0000000e+00 0.0000000e+00 1.3750000e+01 
6.0000000e+00 0.0000000e+00 1.4000000e+01 
6.0000000e+00 0.0000000e+00 1.4250000e+01 
6.0000000e+00 0.0000000e+00 1.4500000e+01 
6.0000000e+00 0.0000000e+00 1.4750000e+01 
6.0000000e+00 0.0000000e+00 1.5000000e+01 
6.0000000e+00 0.0000000e+00 1.5250000e+01 
6.0000000e+00 0.0000000e+00 1.5500000e+01 
6.0000000e+00 0.0000000e+00 1.5750000e+01 
6.0000000e+00 0.0000000e+00 1.6000000e+01 
6.0000000e+00 0.0000000e+00 1.6250000e+01 
6.0000000e+00 0.0000000e+00 1.6500000e+01 
6.0000000e+00 0.0000000e+00 1.6750000e+01 
6.0000000e+00 0.0000000e+00 1.7000000e+01 
6.0000000e+00 0.0000000e+00 1.7250000e+01 
6.0000000e+00 0.0000000e+00 1.7500000e+01 
6.0000000e+00 0.0000000e+00 1.7750000e+01 
6.0000000e+00 0.0000000e+00 1.8000000e+01 

CELLS 216 648
2 0 1
2 1 2
2 2 3
2 3 4
2 4 5
2 5 6
2 6 7
2 7 8
2 8 9
2 9 10
2 10 11
2 11 12
2 12 13
2 13 14
2 14 15
2 15 16
2 16 17
2 17 18
2 18 19
2 19 20
2 20 21
2 21 22
2 22 23
2 23 24
2 24 25
2 25 26
2 26 27
2 27 28
2 28 29
2 29 30
2 30 31
2 31 32
2 32 33
2 33 34
2 34 35
2 35 36
2 36 37
2 37 38
2 38 39
2 39 40
2 40 41
2 41 42
2 42 43
2 43 44
2 44 45
2 45 46
2 46 47
2 47 48
2 48 49
2 49 50
2 50 51
2 51 52
2 52 53
2 53 54
2 54 55
2 55 56
2 56 57
2 57 58
2 58 59
2 59 60
2 60 61
2 61 62
2 62 63
2 63 64
2 64 65
2 65 66
2 66 67
2 67 68
2 68 69
2 69 70
2 70 71
2 71 72
2 139 140
2 140 141
2 141 142
2 142 143
2 143 144
2 144 145
2 145 146
2 146 147
2 147 148
2 148 149
2 149 150
2 150 151
2 151 152
2 152 153
2 153 154
2 154 155
2 155 156
2 156 157
2 157 158
2 158 159
2 159 160
2 160 161
2 161 162
2 162 163
2 163 164
2 164 165
2 165 166
2 166 167
2 167 168
2 168 169
2 169 170
2 170 171
2 171 172
2 172 173
2 173 174
2 174 175
2 175 176
2 176 177
2 177 178
2 178 179
2 179 180
2 180 181
2 181 182
2 182 183
2 183 184
2 184 185
2 185 186
2 186 187
2 187 188
2 188 189
2 189 190
2 190 191
2 191 192
2 192 193
2 193 194
2 194 195
2 195 196
2 196 197
2 197 198
2 198 199
2 199 200
2 200 201
2 201 202
2 202 203
2 203 204
2 204 205
2 205 206
2 206 207
2 207 208
2 208 209
2 209 210
2 210 211
2 12 73
2 73 79
2 79 85
2 85 91
2 91 97
2 97 103
2 103 109
2 109 115
2 115 121
2 121 127
2 127 133
2 133 151
2 24 74
2 74 80
2 80 86
2 86 92
2 92 98
2 98 104
2 104 110
2 110 116
2 116 122
2 122 128
2 128 134
2 134 163
2 36 75
2 75 81
2 81 87
2 87 93
2 93 99
2 99 105
2 105 111
2 111 117
2 117 123
2 123 129
2 129 135
2 135 175
2 48 76
2 76 82
2 82 88
2 88 94
2 94 100
2 100 106
2 106 112
2 112 118
2 118 124
2 124 130
2 130 136
2 136 187
2 60 77
2 77 83
2 83 89
2 89 95
2 95 101
2 101 107
2 107 113
2 113 119
2 119 125
2 125 131
2 131 137
2 137 199
2 72 78
2 78 84
2 84 90
2 90 96
2 96 102
2 102 108
2 108 114
2 114 120
2 120 126
2 126 132
2 132 138
2 138 211

CELL_TYPES 216
3
3
3
3
3
3
3
3
3
3
3
3
3
3
3
3
3
3
3
3
3
3
3
3
3
3
3
3
3
3
3
3
3
3
3
3
3
3
3
3
3
3
3
3
3
3
3
3
3
3
3
3
3
3
3
3
3
3
3
3
3
3
3
3
3
3
3
3
3
3
3
3
3
3
3
3
3
3
3
3
3
3
3
3
3
3
3
3
3
3
3
3
3
3
3
3
3
3
3
3
3
3
3
3
3
3
3
3
3
3
3
3
3
3
3
3
3
3
3
3
3
3
3
3
3
3
3
3
3
3
3
3
3
3
3
3
3
3
3
3
3
3
3
3
3
3
3
3
3
3
3
3
3
3
3
3
3
3
3
3
3
3
3
3
3
3
3
3
3
3
3
3
3
3
3
3
3
3
3
3
3
3
3
3
3
3
3
3
3
3
3
3
3
3
3
3
3
3
3
3
3
3
3
3
3
3
3
3
3
3
3
3
3
3
3
3
POINT_DATA 212
FIELD FieldData 3
ADJOINT_DISPLACEMENT 3 212  float
0.0000000e+00 0.0000000e+00 0.0000000e+00 
1.9499141e-04 0.0000000e+00 -1.2535309e-16 
3.9439532e-04 0.0000000e+00 -2.5070619e-16 
6.0262420e-04 0.0000000e+00 -3.7605928e-16 
8.2409062e-04 0.0000000e+00 -5.0141238e-16 
1.0632069e-03 0.0000000e+00 -6.2676547e-16 
1.3243858e-03 0.0000000e+00 -7.5211856e-16 
1.6120395e-03 0.0000000e+00 -8.7747166e-16 
1.9305808e-03 0.0000000e+00 -1.0028248e-15 
2.2844221e-03 0.0000000e+00 -1.1281778e-15 
2.6779755e-03 0.0000000e+00 -1.2535309e-15 
3.1156540e-03 0.0000000e+00 -1.3788840e-15 
3.6018700e-03 0.0000000e+00 -1.5042371e-15 
4.1821902e-03 0.0000000e+00 -6.4667667e-08 
4.8815254e-03 0.0000000e+00 -1.2933533e-07 
5.6733070e-03 0.0000000e+00 -1.9400299e-07 
6.5309647e-03 0.0000000e+00 -2.5867067e-07 
7.4279285e-03 0.0000000e+00 -3.2333833e-07 
8.3376290e-03 0.0000000e+00 -3.8800599e-07 
9.2334971e-03 0.0000000e+00 -4.5267365e-07 
1.0088962e-02 0.0000000e+00 -5.1734133e-07 
1.0877454e-02 0.0000000e+00 -5.8200897e-07 
1.1572404e-02 0.0000000e+00 -6.4667665e-07 
1.2147242e-02 0.0000000e+00 -7.1134428e-07 
1.2575398e-02 0.0000000e+00 -7.7601197e-07 
1.2968385e-02 0.0000000e+00 -1.0993642e-06 
1.3532570e-02 0.0000000e+00 -1.4227165e-06 
1.4383667e-02 0.0000000e+00 -1.7460687e-06 
1.5637390e-02 0.0000000e+00 -2.0694210e-06 
1.7409455e-02 0.0000000e+00 -2.3927732e-06 
1.9815573e-02 0.0000000e+00 -2.7161254e-06 
2.2971461e-02 0.0000000e+00 -3.0394779e-06 
2.6992830e-02 0.0000000e+00 -3.3628301e-06 
3.1995397e-02 0.0000000e+00 -3.6861823e-06 
3.8094871e-02 0.0000000e+00 -4.0095347e-06 
4.5406971e-02 0.0000000e+00 -4.3328869e-06 
5.4047406e-02 0.0000000e+00 -4.6562391e-06 
6.4894140e-02 0.0000000e+00 -6.2084027e-06 
7.8417666e-02 0.0000000e+00 -7.7605655e-06 
9.4122529e-02 0.0000000e+00 -9.3127292e-06 
1.1151328e-01 0.0000000e+00 -1.0864893e-05 
1.3009445e-01 0.0000000e+00 -1.2417056e-05 
1.4937058e-01 0.0000000e+00 -1.3969219e-05 
1.6884620e-01 0.0000000e+00 -1.5521382e-05 
1.8802589e-01 0.0000000e+00 -1.7073546e-05 
2.0641415e-01 0.0000000e+00 -1.8625709e-05 
2.2351554e-01 0.0000000e+00 -2.0177873e-05 
2.3883460e-01 0.0000000e+00 -2.1730037e-05 
2.5187588e-01 0.0000000e+00 -2.3282200e-05 
2.6490811e-01 0.0000000e+00 -2.1733440e-05 
2.8020409e-01 0.0000000e+00 -2.0184680e-05 
2.9727438e-01 0.0000000e+00 -1.8635919e-05 
3.1562954e-01 0.0000000e+00 -1.7087159e-05 
3.3478013e-01 0.0000000e+00 -1.5538399e-05 
3.5423672e-01 0.0000000e+00 -1.3989638e-05 
3.7350985e-01 0.0000000e+00 -1.2440879e-05 
3.9211008e-01 0.0000000e+00 -1.0892119e-05 
4.0954795e-01 0.0000000e+00 -9.3433582e-06 
4.2533407e-01 0.0000000e+00 -7.7945979e-06 
4.3897897e-01 0.0000000e+00 -6.2458380e-06 
4.4999322e-01 0.0000000e+00 -4.6970777e-06 
4.5886075e-01 0.0000000e+00 -4.3873392e-06 
4.6645492e-01 0.0000000e+00 -4.0776004e-06 
4.7287020e-01 0.0000000e+00 -3.7678617e-06 
4.7820118e-01 0.0000000e+00 -3.4581230e-06 
4.8254243e-01 0.0000000e+00 -3.1483844e-06 
4.8598844e-01 0.0000000e+00 -2.8386457e-06 
4.8863381e-01 0.0000000e+00 -2.5289069e-06 
4.9057308e-01 0.0000000e+00 -2.2191682e-06 
4.9190080e-01 0.0000000e+00 -1.9094296e-06 
4.9271151e-01 0.0000000e+00 -1.5996909e-06 
4.9309978e-01 0.0000000e+00 -1.2899523e-06 
4.9316013e-01 0.0000000e+00 -9.8021360e-07 
3.6012286e-03 0.0000000e+00 -8.4696885e-04 
1.2578344e-02 0.0000000e+00 -2.6853784e-04 
5.4034755e-02 0.0000000e+00 -1.5392863e-02 
2.5187600e-01 0.0000000e+00 -1.2045454e-02 
4.5000532e-01 0.0000000e+00 -1.5731517e-02 
4.9315819e-01 0.0000000e+00 5.6999276e-04 
3.6005871e-03 0.0000000e+00 -1.3733683e-03 
1.2581290e-02 0.0000000e+00 1.7874397e-04 
5.4022100e-02 0.0000000e+00 -2.4817824e-02 
2.5187612e-01 0.0000000e+00 4.3440383e-04 
4.5001739e-01 0.0000000e+00 -2.5407221e-02 
4.9315622e-01 0.0000000e+00 1.8350267e-03 
3.5999457e-03 0.0000000e+00 -1.6291708e-03 
1.2584236e-02 0.0000000e+00 1.1411685e-03 
5.4009445e-02 0.0000000e+00 -2.9229114e-02 
2.5187624e-01 0.0000000e+00 3.9812557e-02 
4.5002949e-01 0.0000000e+00 -2.9989278e-02 
4.9315426e-01 0.0000000e+00 3.5547679e-03 
3.5993040e-03 0.0000000e+00 -1.6643490e-03 
1.2587182e-02 0.0000000e+00 2.4188349e-03 
5.3996790e-02 0.0000000e+00 -2.9576307e-02 
2.5187635e-01 0.0000000e+00 1.0848527e-01 
4.5004159e-01 0.0000000e+00 -3.0435150e-02 
4.9315229e-01 0.0000000e+00 5.4898635e-03 
3.5986626e-03 0.0000000e+00 -1.5288754e-03 
1.2590128e-02 0.0000000e+00 3.8118428e-03 
5.3984135e-02 0.0000000e+00 -2.6808977e-02 
2.5187647e-01 0.0000000e+00 2.0884882e-01 
4.5005369e-01 0.0000000e+00 -2.7702304e-02 
4.9315035e-01 0.0000000e+00 7.4009602e-03 
3.5980211e-03 0.0000000e+00 -1.2727225e-03 
1.2593074e-02 0.0000000e+00 5.1202904e-03 
5.3971481e-02 0.0000000e+00 -2.1876700e-02 
2.5187662e-01 0.0000000e+00 3.4329948e-01 
4.5006576e-01 0.0000000e+00 -2.2748204e-02 
4.9314839e-01 0.0000000e+00 9.0487041e-03 
3.5973797e-03 0.0000000e+00 -9.4586273e-04 
1.2596020e-02 0.0000000e+00 6.1442778e-03 
5.3958826e-02 0.0000000e+00 -1.5729053e-02 
2.5187674e-01 0.0000000e+00 5.1423347e-01 
4.5007786e-01 0.0000000e+00 -1.6530314e-02 
4.9314642e-01 0.0000000e+00 1.0193743e-02 
3.5967382e-03 0.0000000e+00 -5.9826870e-04 
1.2598966e-02 0.0000000e+00 6.6839037e-03 
5.3946171e-02 0.0000000e+00 -9.3156062e-03 
2.5187686e-01 0.0000000e+00 7.2404712e-01 
4.5008996e-01 0.0000000e+00 -1.0006100e-02 
4.9314448e-01 0.0000000e+00 1.0596721e-02 
3.5960968e-03 0.0000000e+00 -2.7991290e-04 
1.2601912e-02 0.0000000e+00 6.5392675e-03 
5.3933520e-02 0.0000000e+00 -3.5859377e-03 
2.5187698e-01 0.0000000e+00 4.7513664e-01 
4.5010203e-01 0.0000000e+00 -4.1330270e-03 
4.9314252e-01 0.0000000e+00 1.0018288e-02 
3.5954551e-03 0.0000000e+00 -4.0767838e-05 
1.2604858e-02 0.0000000e+00 5.5104676e-03 
5.3920865e-02 0.0000000e+00 5.1037892e-04 
2.5187710e-01 0.0000000e+00 2.6989836e-01 
4.5011413e-01 0.0000000e+00 1.3144013e-04 
4.9314055e-01 0.0000000e+00 8.2190894e-03 
3.5948136e-03 0.0000000e+00 6.9193971e-05 
1.2607804e-02 0.0000000e+00 3.3976042e-03 
5.3908210e-02 0.0000000e+00 2.0237684e-03 
2.5187725e-01 0.0000000e+00 1.1072847e-01 
4.5012623e-01 0.0000000e+00 1.8298365e-03 
4.9313861e-01 0.0000000e+00 4.9597709e-03 
0.0000000e+00 0.0000000e+00 0.0000000e+00 
4.0467878e-04 0.0000000e+00 1.4209912e-16 
8.0494507e-04 0.0000000e+00 2.8419914e-16 
1.1963863e-03 0.0000000e+00 4.2629832e-16 
1.5745901e-03 0.0000000e+00 5.6839691e-16 
1.9351440e-03 0.0000000e+00 7.1049542e-16 
2.2736355e-03 0.0000000e+00 8.5259388e-16 
2.5856518e-03 0.0000000e+00 9.9469186e-16 
2.8667809e-03 0.0000000e+00 1.1367901e-15 
3.1126097e-03 0.0000000e+00 1.2788884e-15 
3.3187263e-03 0.0000000e+00 1.4209869e-15 
3.4807180e-03 0.0000000e+00 1.5630855e-15 
3.5941722e-03 0.0000000e+00 1.7051838e-15 
3.6884812e-03 0.0000000e+00 6.4667667e-08 
3.8136921e-03 0.0000000e+00 1.2933533e-07 
3.9963750e-03 0.0000000e+00 1.9400299e-07 
4.2630988e-03 0.0000000e+00 2.5867067e-07 
4.6404339e-03 0.0000000e+00 3.2333833e-07 
5.1549501e-03 0.0000000e+00 3.8800599e-07 
5.8332165e-03 0.0000000e+00 4.5267365e-07 
6.7018033e-03 0.0000000e+00 5.1734133e-07 
7.7872807e-03 0.0000000e+00 5.8200897e-07 
9.1162175e-03 0.0000000e+00 6.4667665e-07 
1.0715184e-02 0.0000000e+00 7.1134428e-07 
1.2610750e-02 0.0000000e+00 7.7601197e-07 
1.4991255e-02 0.0000000e+00 1.0993642e-06 
1.7950179e-02 0.0000000e+00 1.4227165e-06 
2.1371813e-02 0.0000000e+00 1.7460687e-06 
2.5140440e-02 0.0000000e+00 2.0694210e-06 
2.9140348e-02 0.0000000e+00 2.3927732e-06 
3.3255819e-02 0.0000000e+00 2.7161254e-06 
3.7371144e-02 0.0000000e+00 3.0394779e-06 
4.1370608e-02 0.0000000e+00 3.3628301e-06 
4.5138493e-02 0.0000000e+00 3.6861823e-06 
4.8559088e-02 0.0000000e+00 4.0095347e-06 
5.1516682e-02 0.0000000e+00 4.3328869e-06 
5.3895555e-02 0.0000000e+00 4.6562391e-06 
5.6242120e-02 0.0000000e+00 6.2084027e-06 
5.9510231e-02 0.0000000e+00 7.7605655e-06 
6.4195342e-02 0.0000000e+00 9.3127292e-06 
7.0792928e-02 0.0000000e+00 1.0864893e-05 
7.9798430e-02 0.0000000e+00 1.2417056e-05 
9.1707312e-02 0.0000000e+00 1.3969219e-05 
1.0701504e-01 0.0000000e+00 1.5521382e-05 
1.2621707e-01 0.0000000e+00 1.7073546e-05 
1.4980885e-01 0.0000000e+00 1.8625709e-05 
1.7828587e-01 0.0000000e+00 2.0177873e-05 
2.1214354e-01 0.0000000e+00 2.1730037e-05 
2.5187737e-01 0.0000000e+00 2.3282200e-05 
2.9162416e-01 0.0000000e+00 2.1733440e-05 
3.2551673e-01 0.0000000e+00 2.0184680e-05 
3.5404456e-01 0.0000000e+00 1.8635919e-05 
3.7769705e-01 0.0000000e+00 1.7087159e-05 
3.9696369e-01 0.0000000e+00 1.5538399e-05 
4.1233385e-01 0.0000000e+00 1.3989638e-05 
4.2429703e-01 0.0000000e+00 1.2440879e-05 
4.3334264e-01 0.0000000e+00 1.0892119e-05 
4.3996015e-01 0.0000000e+00 9.3433582e-06 
4.4463897e-01 0.0000000e+00 7.7945979e-06 
4.4786853e-01 0.0000000e+00 6.2458380e-06 
4.5013833e-01 0.0000000e+00 4.6970777e-06 
4.5240054e-01 0.0000000e+00 4.3873392e-06 
4.5521811e-01 0.0000000e+00 4.0776004e-06 
4.5849645e-01 0.0000000e+00 3.7678617e-06 
4.6214107e-01 0.0000000e+00 3.4581230e-06 
4.6605736e-01 0.0000000e+00 3.1483844e-06 
4.7015080e-01 0.0000000e+00 2.8386457e-06 
4.7432682e-01 0.0000000e+00 2.5289069e-06 
4.7849089e-01 0.0000000e+00 2.2191682e-06 
4.8254848e-01 0.0000000e+00 1.9094296e-06 
4.8640499e-01 0.0000000e+00 1.5996909e-06 
4.8996589e-01 0.0000000e+00 1.2899523e-06 
4.9313664e-01 0.0000000e+00 9.8021360e-07 
ADJOINT_ROTATION 3 212  float
0.0000000e+00 7.7702402e-04 0.0000000e+00 
0.0000000e+00 7.8584900e-04 0.0000000e+00 
0.0000000e+00 8.1232394e-04 0.0000000e+00 
0.0000000e+00 8.5644890e-04 0.0000000e+00 
0.0000000e+00 9.1822381e-04 0.0000000e+00 
0.0000000e+00 9.9764869e-04 0.0000000e+00 
0.0000000e+00 1.0947235e-03 0.0000000e+00 
0.0000000e+00 1.2094483e-03 0.0000000e+00 
0.0000000e+00 1.3418231e-03 0.0000000e+00 
0.0000000e+00 1.4918479e-03 0.0000000e+00 
0.0000000e+00 1.6595226e-03 0.0000000e+00 
0.0000000e+00 1.8448473e-03 0.0000000e+00 
0.0000000e+00 2.0478221e-03 0.0000000e+00 
0.0000000e+00 2.5770240e-03 0.0000000e+00 
0.0000000e+00 2.9999472e-03 0.0000000e+00 
0.0000000e+00 3.3165913e-03 0.0000000e+00 
0.0000000e+00 3.5269565e-03 0.0000000e+00 
0.0000000e+00 3.6310428e-03 0.0000000e+00 
0.0000000e+00 3.6288498e-03 0.0000000e+00 
0.0000000e+00 3.5203781e-03 0.0000000e+00 
0.0000000e+00 3.3056273e-03 0.0000000e+00 
0.0000000e+00 2.9845976e-03 0.0000000e+00 
0.0000000e+00 2.5572889e-03 0.0000000e+00 
0.0000000e+00 2.0237011e-03 0.0000000e+00 
0.0000000e+00 1.3838345e-03 0.0000000e+00 
0.0000000e+00 1.8372007e-03 0.0000000e+00 
0.0000000e+00 2.7534226e-03 0.0000000e+00 
0.0000000e+00 4.1325004e-03 0.0000000e+00 
0.0000000e+00 5.9744339e-03 0.0000000e+00 
0.0000000e+00 8.2792230e-03 0.0000000e+00 
0.0000000e+00 1.1046869e-02 0.0000000e+00 
0.0000000e+00 1.4277370e-02 0.0000000e+00 
0.0000000e+00 1.7970726e-02 0.0000000e+00 
0.0000000e+00 2.2126939e-02 0.0000000e+00 
0.0000000e+00 2.6746007e-02 0.0000000e+00 
0.0000000e+00 3.1827930e-02 0.0000000e+00 
0.0000000e+00 3.7372712e-02 0.0000000e+00 
0.0000000e+00 4.9070820e-02 0.0000000e+00 
0.0000000e+00 5.8787096e-02 0.0000000e+00 
0.0000000e+00 6.6521533e-02 0.0000000e+00 
0.0000000e+00 7.2274141e-02 0.0000000e+00 
0.0000000e+00 7.6044902e-02 0.0000000e+00 
0.0000000e+00 7.7833839e-02 0.0000000e+00 
0.0000000e+00 7.7640928e-02 0.0000000e+00 
0.0000000e+00 7.5466186e-02 0.0000000e+00 
0.0000000e+00 7.1309611e-02 0.0000000e+00 
0.0000000e+00 6.5171197e-02 0.0000000e+00 
0.0000000e+00 5.7050951e-02 0.0000000e+00 
0.0000000e+00 4.6948865e-02 0.0000000e+00 
0.0000000e+00 5.6982744e-02 0.0000000e+00 
0.0000000e+00 6.5058857e-02 0.0000000e+00 
0.0000000e+00 7.1177214e-02 0.0000000e+00 
0.0000000e+00 7.5337805e-02 0.0000000e+00 
0.0000000e+00 7.7540629e-02 0.0000000e+00 
0.0000000e+00 7.7785693e-02 0.0000000e+00 
0.0000000e+00 7.6072998e-02 0.0000000e+00 
0.0000000e+00 7.2402537e-02 0.0000000e+00 
0.0000000e+00 6.6774309e-02 0.0000000e+00 
0.0000000e+00 5.9188325e-02 0.0000000e+00 
0.0000000e+00 4.9644575e-02 0.0000000e+00 
0.0000000e+00 3.8143061e-02 0.0000000e+00 
0.0000000e+00 3.2860346e-02 0.0000000e+00 
0.0000000e+00 2.7955832e-02 0.0000000e+00 
0.0000000e+00 2.3429517e-02 0.0000000e+00 
0.0000000e+00 1.9281400e-02 0.0000000e+00 
0.0000000e+00 1.5511486e-02 0.0000000e+00 
0.0000000e+00 1.2119771e-02 0.0000000e+00 
0.0000000e+00 9.1062561e-03 0.0000000e+00 
0.0000000e+00 6.4709415e-03 0.0000000e+00 
0.0000000e+00 4.2138272e-03 0.0000000e+00 
0.0000000e+00 2.3349125e-03 0.0000000e+00 
0.0000000e+00 8.3419814e-04 0.0000000e+00 
0.0000000e+00 -2.8831617e-04 0.0000000e+00 
0.0000000e+00 1.3567108e-03 0.0000000e+00 
0.0000000e+00 -2.4615359e-04 0.0000000e+00 
0.0000000e+00 2.4496643e-02 0.0000000e+00 
0.0000000e+00 3.4106945e-04 0.0000000e+00 
0.0000000e+00 2.5083371e-02 0.0000000e+00 
0.0000000e+00 -1.9157913e-03 0.0000000e+00 
0.0000000e+00 7.6554448e-04 0.0000000e+00 
0.0000000e+00 -1.4763400e-03 0.0000000e+00 
0.0000000e+00 1.3519725e-02 0.0000000e+00 
0.0000000e+00 -5.1059257e-02 0.0000000e+00 
0.0000000e+00 1.3938607e-02 0.0000000e+00 
0.0000000e+00 -3.0645598e-03 0.0000000e+00 
0.0000000e+00 2.7432328e-04 0.0000000e+00 
0.0000000e+00 -2.3067247e-03 0.0000000e+00 
0.0000000e+00 4.4419570e-03 0.0000000e+00 
0.0000000e+00 -1.0725212e-01 0.0000000e+00 
0.0000000e+00 4.7087739e-03 0.0000000e+00 
0.0000000e+00 -3.7346215e-03 0.0000000e+00 
0.0000000e+00 -1.1695291e-04 0.0000000e+00 
0.0000000e+00 -2.7373077e-03 0.0000000e+00 
0.0000000e+00 -2.7366614e-03 0.0000000e+00 
0.0000000e+00 -1.6823751e-01 0.0000000e+00 
0.0000000e+00 -2.6061290e-03 0.0000000e+00 
0.0000000e+00 -3.9259763e-03 0.0000000e+00 
0.0000000e+00 -4.0828408e-04 0.0000000e+00 
0.0000000e+00 -2.7680891e-03 0.0000000e+00 
0.0000000e+00 -8.0161300e-03 0.0000000e+00 
0.0000000e+00 -2.3401543e-01 0.0000000e+00 
0.0000000e+00 -8.0061024e-03 0.0000000e+00 
0.0000000e+00 -3.6386249e-03 0.0000000e+00 
0.0000000e+00 -5.9967017e-04 0.0000000e+00 
0.0000000e+00 -2.3990688e-03 0.0000000e+00 
0.0000000e+00 -1.1396450e-02 0.0000000e+00 
0.0000000e+00 -3.0458590e-01 0.0000000e+00 
0.0000000e+00 -1.1491145e-02 0.0000000e+00 
0.0000000e+00 -2.8725667e-03 0.0000000e+00 
0.0000000e+00 -6.9111126e-04 0.0000000e+00 
0.0000000e+00 -1.6302468e-03 0.0000000e+00 
0.0000000e+00 -1.2877620e-02 0.0000000e+00 
0.0000000e+00 -3.7994888e-01 0.0000000e+00 
0.0000000e+00 -1.3061258e-02 0.0000000e+00 
0.0000000e+00 -1.6278018e-03 0.0000000e+00 
0.0000000e+00 -6.8260735e-04 0.0000000e+00 
0.0000000e+00 -4.6162304e-04 0.0000000e+00 
0.0000000e+00 -1.2459639e-02 0.0000000e+00 
0.0000000e+00 -4.6010441e-01 0.0000000e+00 
0.0000000e+00 -1.2716441e-02 0.0000000e+00 
0.0000000e+00 9.5669733e-05 0.0000000e+00 
0.0000000e+00 -5.7415839e-04 0.0000000e+00 
0.0000000e+00 1.1068024e-03 0.0000000e+00 
0.0000000e+00 -1.0142510e-02 0.0000000e+00 
0.0000000e+00 4.5494753e-01 0.0000000e+00 
0.0000000e+00 -1.0456695e-02 0.0000000e+00 
0.0000000e+00 2.2978480e-03 0.0000000e+00 
0.0000000e+00 -3.6576437e-04 0.0000000e+00 
0.0000000e+00 3.0750295e-03 0.0000000e+00 
0.0000000e+00 -5.9262309e-03 0.0000000e+00 
0.0000000e+00 3.6520693e-01 0.0000000e+00 
0.0000000e+00 -6.2820185e-03 0.0000000e+00 
0.0000000e+00 4.9787331e-03 0.0000000e+00 
0.0000000e+00 -5.7425343e-05 0.0000000e+00 
0.0000000e+00 5.4430580e-03 0.0000000e+00 
0.0000000e+00 1.8919773e-04 0.0000000e+00 
0.0000000e+00 2.7067381e-01 0.0000000e+00 
0.0000000e+00 -1.9241193e-04 0.0000000e+00 
0.0000000e+00 8.1383241e-03 0.0000000e+00 
0.0000000e+00 1.6216567e-03 0.0000000e+00 
0.0000000e+00 1.6128317e-03 0.0000000e+00 
0.0000000e+00 1.5863568e-03 0.0000000e+00 
0.0000000e+00 1.5422319e-03 0.0000000e+00 
0.0000000e+00 1.4804569e-03 0.0000000e+00 
0.0000000e+00 1.4010321e-03 0.0000000e+00 
0.0000000e+00 1.3039572e-03 0.0000000e+00 
0.0000000e+00 1.1892325e-03 0.0000000e+00 
0.0000000e+00 1.0568576e-03 0.0000000e+00 
0.0000000e+00 9.0683287e-04 0.0000000e+00 
0.0000000e+00 7.3915813e-04 0.0000000e+00 
0.0000000e+00 5.5383338e-04 0.0000000e+00 
0.0000000e+00 3.5085873e-04 0.0000000e+00 
0.0000000e+00 4.2132684e-04 0.0000000e+00 
0.0000000e+00 5.9807394e-04 0.0000000e+00 
0.0000000e+00 8.8109996e-04 0.0000000e+00 
0.0000000e+00 1.2704050e-03 0.0000000e+00 
0.0000000e+00 1.7659890e-03 0.0000000e+00 
0.0000000e+00 2.3678520e-03 0.0000000e+00 
0.0000000e+00 3.0759941e-03 0.0000000e+00 
0.0000000e+00 3.8904150e-03 0.0000000e+00 
0.0000000e+00 4.8111151e-03 0.0000000e+00 
0.0000000e+00 5.8380938e-03 0.0000000e+00 
0.0000000e+00 6.9713518e-03 0.0000000e+00 
0.0000000e+00 8.2108881e-03 0.0000000e+00 
0.0000000e+00 1.0756003e-02 0.0000000e+00 
0.0000000e+00 1.2838261e-02 0.0000000e+00 
0.0000000e+00 1.4457664e-02 0.0000000e+00 
0.0000000e+00 1.5614211e-02 0.0000000e+00 
0.0000000e+00 1.6307902e-02 0.0000000e+00 
0.0000000e+00 1.6538735e-02 0.0000000e+00 
0.0000000e+00 1.6306715e-02 0.0000000e+00 
0.0000000e+00 1.5611839e-02 0.0000000e+00 
0.0000000e+00 1.4454107e-02 0.0000000e+00 
0.0000000e+00 1.2833519e-02 0.0000000e+00 
0.0000000e+00 1.0750076e-02 0.0000000e+00 
0.0000000e+00 8.2037756e-03 0.0000000e+00 
0.0000000e+00 1.0899044e-02 0.0000000e+00 
0.0000000e+00 1.5576147e-02 0.0000000e+00 
0.0000000e+00 2.2235086e-02 0.0000000e+00 
0.0000000e+00 3.0875860e-02 0.0000000e+00 
0.0000000e+00 4.1498471e-02 0.0000000e+00 
0.0000000e+00 5.4102920e-02 0.0000000e+00 
0.0000000e+00 6.8689205e-02 0.0000000e+00 
0.0000000e+00 8.5257322e-02 0.0000000e+00 
0.0000000e+00 1.0380728e-01 0.0000000e+00 
0.0000000e+00 1.2433907e-01 0.0000000e+00 
0.0000000e+00 1.4685270e-01 0.0000000e+00 
0.0000000e+00 1.7134815e-01 0.0000000e+00 
0.0000000e+00 1.4695247e-01 0.0000000e+00 
0.0000000e+00 1.2451452e-01 0.0000000e+00 
0.0000000e+00 1.0403435e-01 0.0000000e+00 
0.0000000e+00 8.5511938e-02 0.0000000e+00 
0.0000000e+00 6.8947293e-02 0.0000000e+00 
0.0000000e+00 5.4340407e-02 0.0000000e+00 
0.0000000e+00 4.1691288e-02 0.0000000e+00 
0.0000000e+00 3.0999929e-02 0.0000000e+00 
0.0000000e+00 2.2266334e-02 0.0000000e+00 
0.0000000e+00 1.5490501e-02 0.0000000e+00 
0.0000000e+00 1.0672431e-02 0.0000000e+00 
0.0000000e+00 7.8121247e-03 0.0000000e+00 
0.0000000e+00 1.0222600e-02 0.0000000e+00 
0.0000000e+00 1.2254875e-02 0.0000000e+00 
0.0000000e+00 1.3908951e-02 0.0000000e+00 
0.0000000e+00 1.5184825e-02 0.0000000e+00 
0.0000000e+00 1.6082501e-02 0.0000000e+00 
0.0000000e+00 1.6601976e-02 0.0000000e+00 
0.0000000e+00 1.6743250e-02 0.0000000e+00 
0.0000000e+00 1.6506325e-02 0.0000000e+00 
0.0000000e+00 1.5891200e-02 0.0000000e+00 
0.0000000e+00 1.4897875e-02 0.0000000e+00 