# vtk DataFile Version 4.0
vtk output
ASCII
DATASET UNSTRUCTURED_GRID
POINTS 212 float
0.0000000e+00 0.0000000e+00 0.0000000e+00 
0.0000000e+00 0.0000000e+00 2.5000000e-01 
0.0000000e+00 0.0000000e+00 5.0000000e-01 
0.0000000e+00 0.0000000e+00 7.5000000e-01 
0.0000000e+00 0.0000000e+00 1.0000000e+00 
0.0000000e+00 0.0000000e+00 1.2500000e+00 
0.0000000e+00 0.0000000e+00 1.5000000e+00 
0.0000000e+00 0.0000000e+00 1.7500000e+00 
0.0000000e+00 0.0000000e+00 2.0000000e+00 
0.0000000e+00 0.0000000e+00 2.2500000e+00 
0.0000000e+00 0.0000000e+00 2.5000000e+00 
0.0000000e+00 0.0000000e+00 2.7500000e+00 
0.0000000e+00 0.0000000e+00 3.0000000e+00 
0.0000000e+00 0.0000000e+00 3.2500000e+00 
0.0000000e+00 0.0000000e+00 3.5000000e+00 
0.0000000e+00 0.0000000e+00 3.7500000e+00 
0.0000000e+00 0.0000000e+00 4.0000000e+00 
0.0000000e+00 0.0000000e+00 4.2500000e+00 
0.0000000e+00 0.0000000e+00 4.5000000e+00 
0.0000000e+00 0.0000000e+00 4.7500000e+00 
0.0000000e+00 0.0000000e+00 5.0000000e+00 
0.0000000e+00 0.0000000e+00 5.2500000e+00 
0.0000000e+00 0.0000000e+00 5.5000000e+00 
0.0000000e+00 0.0000000e+00 5.7500000e+00 
0.0000000e+00 0.0000000e+00 6.0000000e+00 
0.0000000e+00 0.0000000e+00 6.2500000e+00 
0.0000000e+00 0.0000000e+00 6.5000000e+00 
0.0000000e+00 0.0000000e+00 6.7500000e+00 
0.0000000e+00 0.0000000e+00 7.0000000e+00 
0.0000000e+00 0.0000000e+00 7.2500000e+00 
0.0000000e+00 0.0000000e+00 7.5000000e+00 
0.0000000e+00 0.0000000e+00 7.7500000e+00 
0.0000000e+00 0.0000000e+00 8.0000000e+00 
0.0000000e+00 0.0000000e+00 8.2500000e+00 
0.0000000e+00 0.0000000e+00 8.5000000e+00 
0.0000000e+00 0.0000000e+00 8.7500000e+00 
0.0000000e+00 0.0000000e+00 9.0000000e+00 
0.0000000e+00 0.0000000e+00 9.2500000e+00 
0.0000000e+00 0.0000000e+00 9.5000000e+00 
0.0000000e+00 0.0000000e+00 9.7500000e+00 
0.0000000e+00 0.0000000e+00 1.0000000e+01 
0.0000000e+00 0.0000000e+00 1.0250000e+01 
0.0000000e+00 0.0000000e+00 1.0500000e+01 
0.0000000e+00 0.0000000e+00 1.0750000e+01 
0.0000000e+00 0.0000000e+00 1.1000000e+01 
0.0000000e+00 0.0000000e+00 1.1250000e+01 
0.0000000e+00 0.0000000e+00 1.1500000e+01 
0.0000000e+00 0.0000000e+00 1.1750000e+01 
0.0000000e+00 0.0000000e+00 1.2000000e+01 
0.0000000e+00 0.0000000e+00 1.2250000e+01 
0.0000000e+00 0.0000000e+00 1.2500000e+01 
0.0000000e+00 0.0000000e+00 1.2750000e+01 
0.0000000e+00 0.0000000e+00 1.3000000e+01 
0.0000000e+00 0.0000000e+00 1.3250000e+01 
0.0000000e+00 0.0000000e+00 1.3500000e+01 
0.0000000e+00 0.0000000e+00 1.3750000e+01 
0.0000000e+00 0.0000000e+00 1.4000000e+01 
0.0000000e+00 0.0000000e+00 1.4250000e+01 
0.0000000e+00 0.0000000e+00 1.4500000e+01 
0.0000000e+00 0.0000000e+00 1.4750000e+01 
0.0000000e+00 0.0000000e+00 1.5000000e+01 
0.0000000e+00 0.0000000e+00 1.5250000e+01 
0.0000000e+00 0.0000000e+00 1.5500000e+01 
0.0000000e+00 0.0000000e+00 1.5750000e+01 
0.0000000e+00 0.0000000e+00 1.6000000e+01 
0.0000000e+00 0.0000000e+00 1.6250000e+01 
0.0000000e+00 0.0000000e+00 1.6500000e+01 
0.0000000e+00 0.0000000e+00 1.6750000e+01 
0.0000000e+00 0.0000000e+00 1.7000000e+01 
0.0000000e+00 0.0000000e+00 1.7250000e+01 
0.0000000e+00 0.0000000e+00 1.7500000e+01 
0.0000000e+00 0.0000000e+00 1.7750000e+01 
0.0000000e+00 0.0000000e+00 1.8000000e+01 
5.0000000e-01 0.0000000e+00 3.0000000e+00 
5.0000000e-01 0.0000000e+00 6.0000000e+00 
5.0000000e-01 0.0000000e+00 9.0000000e+00 
5.0000000e-01 0.0000000e+00 1.2000000e+01 
5.0000000e-01 0.0000000e+00 1.5000000e+01 
5.0000000e-01 0.0000000e+00 1.8000000e+01 
1.0000000e+00 0.0000000e+00 3.0000000e+00 
1.0000000e+00 0.0000000e+00 6.0000000e+00 
1.0000000e+00 0.0000000e+00 9.0000000e+00 
1.0000000e+00 0.0000000e+00 1.2000000e+01 
1.0000000e+00 0.0000000e+00 1.5000000e+01 
1.0000000e+00 0.0000000e+00 1.8000000e+01 
1.5000000e+00 0.0000000e+00 3.0000000e+00 
1.5000000e+00 0.0000000e+00 6.0000000e+00 
1.5000000e+00 0.0000000e+00 9.0000000e+00 
1.5000000e+00 0.0000000e+00 1.2000000e+01 
1.5000000e+00 0.0000000e+00 1.5000000e+01 
1.5000000e+00 0.0000000e+00 1.8000000e+01 
2.0000000e+00 0.0000000e+00 3.0000000e+00 
2.0000000e+00 0.0000000e+00 6.0000000e+00 
2.0000000e+00 0.0000000e+00 9.0000000e+00 
2.0000000e+00 0.0000000e+00 1.2000000e+01 
2.0000000e+00 0.0000000e+00 1.5000000e+01 
2.0000000e+00 0.0000000e+00 1.8000000e+01 
2.5000000e+00 0.0000000e+00 3.0000000e+00 
2.5000000e+00 0.0000000e+00 6.0000000e+00 
2.5000000e+00 0.0000000e+00 9.0000000e+00 
2.5000000e+00 0.0000000e+00 1.2000000e+01 
2.5000000e+00 0.0000000e+00 1.5000000e+01 
2.5000000e+00 0.0000000e+00 1.8000000e+01 
3.0000000e+00 0.0000000e+00 3.0000000e+00 
3.0000000e+00 0.0000000e+00 6.0000000e+00 
3.0000000e+00 0.0000000e+00 9.0000000e+00 
3.0000000e+00 0.0000000e+00 1.2000000e+01 
3.0000000e+00 0.0000000e+00 1.5000000e+01 
3.0000000e+00 0.0000000e+00 1.8000000e+01 
3.5000000e+00 0.0000000e+00 3.0000000e+00 
3.5000000e+00 0.0000000e+00 6.0000000e+00 
3.5000000e+00 0.0000000e+00 9.0000000e+00 
3.5000000e+00 0.0000000e+00 1.2000000e+01 
3.5000000e+00 0.0000000e+00 1.5000000e+01 
3.5000000e+00 0.0000000e+00 1.8000000e+01 
4.0000000e+00 0.0000000e+00 3.0000000e+00 
4.0000000e+00 0.0000000e+00 6.0000000e+00 
4.0000000e+00 0.0000000e+00 9.0000000e+00 
4.0000000e+00 0.0000000e+00 1.2000000e+01 
4.0000000e+00 0.0000000e+00 1.5000000e+01 
4.0000000e+00 0.0000000e+00 1.8000000e+01 
4.5000000e+00 0.0000000e+00 3.0000000e+00 
4.5000000e+00 0.0000000e+00 6.0000000e+00 
4.5000000e+00 0.0000000e+00 9.0000000e+00 
4.5000000e+00 0.0000000e+00 1.2000000e+01 
4.5000000e+00 0.0000000e+00 1.5000000e+01 
4.5000000e+00 0.0000000e+00 1.8000000e+01 
5.0000000e+00 0.0000000e+00 3.0000000e+00 
5.0000000e+00 0.0000000e+00 6.0000000e+00 
5.0000000e+00 0.0000000e+00 9.0000000e+00 
5.0000000e+00 0.0000000e+00 1.2000000e+01 
5.0000000e+00 0.0000000e+00 1.5000000e+01 
5.0000000e+00 0.0000000e+00 1.8000000e+01 
5.5000000e+00 0.0000000e+00 3.0000000e+00 
5.5000000e+00 0.0000000e+00 6.0000000e+00 
5.5000000e+00 0.0000000e+00 9.0000000e+00 
5.5000000e+00 0.0000000e+00 1.2000000e+01 
5.5000000e+00 0.0000000e+00 1.5000000e+01 
5.5000000e+00 0.0000000e+00 1.8000000e+01 
6.0000000e+00 0.0000000e+00 0.0000000e+00 
6.0000000e+00 0.0000000e+00 2.5000000e-01 
6.0000000e+00 0.0000000e+00 5.0000000e-01 
6.0000000e+00 0.0000000e+00 7.5000000e-01 
6.0000000e+00 0.0000000e+00 1.0000000e+00 
6.0000000e+00 0.0000000e+00 1.2500000e+00 
6.0000000e+00 0.0000000e+00 1.5000000e+00 
6.0000000e+00 0.0000000e+00 1.7500000e+00 
6.0000000e+00 0.0000000e+00 2.0000000e+00 
6.0000000e+00 0.0000000e+00 2.2500000e+00 
6.0000000e+00 0.0000000e+00 2.5000000e+00 
6.0000000e+00 0.0000000e+00 2.7500000e+00 
6.0000000e+00 0.0000000e+00 3.0000000e+00 
6.0000000e+00 0.0000000e+00 3.2500000e+00 
6.0000000e+00 0.0000000e+00 3.5000000e+00 
6.0000000e+00 0.0000000e+00 3.7500000e+00 
6.0000000e+00 0.0000000e+00 4.0000000e+00 
6.0000000e+00 0.0000000e+00 4.2500000e+00 
6.0000000e+00 0.0000000e+00 4.5000000e+00 
6.0000000e+00 0.0000000e+00 4.7500000e+00 
6.0000000e+00 0.0000000e+00 5.0000000e+00 
6.0000000e+00 0.0000000e+00 5.2500000e+00 
6.0000000e+00 0.0000000e+00 5.5000000e+00 
6.0000000e+00 0.0000000e+00 5.7500000e+00 
6.0000000e+00 0.0000000e+00 6.0000000e+00 
6.0000000e+00 0.0000000e+00 6.2500000e+00 
6.0000000e+00 0.0000000e+00 6.5000000e+00 
6.0000000e+00 0.0000000e+00 6.7500000e+00 
6.0000000e+00 0.0000000e+00 7.0000000e+00 
6.0000000e+00 0.0000000e+00 7.2500000e+00 
6.0000000e+00 0.0000000e+00 7.5000000e+00 
6.0000000e+00 0.0000000e+00 7.7500000e+00 
6.0000000e+00 0.0000000e+00 8.0000000e+00 
6.0000000e+00 0.0000000e+00 8.2500000e+00 
6.0000000e+00 0.0000000e+00 8.5000000e+00 
6.0000000e+00 0.0000000e+00 8.7500000e+00 
6.0000000e+00 0.0000000e+00 9.0000000e+00 
6.0000000e+00 0.0000000e+00 9.2500000e+00 
6.0000000e+00 0.0000000e+00 9.5000000e+00 
6.0000000e+00 0.0000000e+00 9.7500000e+00 
6.0000000e+00 0.0000000e+00 1.0000000e+01 
6.0000000e+00 0.0000000e+00 1.0250000e+01 
6.0000000e+00 0.0000000e+00 1.0500000e+01 
6.0000000e+00 0.0000000e+00 1.0750000e+01 
6.0000000e+00 0.0000000e+00 1.1000000e+01 
6.0000000e+00 0.0000000e+00 1.1250000e+01 
6.0000000e+00 0.0000000e+00 1.1500000e+01 
6.0000000e+00 0.0000000e+00 1.1750000e+01 
6.0000000e+00 0.0000000e+00 1.2000000e+01 
6.0000000e+00 0.0000000e+00 1.2250000e+01 
6.0000000e+00 0.0000000e+00 1.2500000e+01 
6.0000000e+00 0.0000000e+00 1.2750000e+01 
6.0000000e+00 0.0000000e+00 1.3000000e+01 
6.0000000e+00 0.0000000e+00 1.3250000e+01 
6.0000000e+00 0.0000000e+00 1.3500000e+01 
6.0000000e+00 0.0000000e+00 1.3750000e+01 
6.0000000e+00 0.0000000e+00 1.4000000e+01 
6.0000000e+00 0.0000000e+00 1.4250000e+01 
6.0000000e+00 0.0000000e+00 1.4500000e+01 
6.0000000e+00 0.0000000e+00 1.4750000e+01 
6.0000000e+00 0.0000000e+00 1.5000000e+01 
6.0000000e+00 0.0000000e+00 1.5250000e+01 
6.0000000e+00 0.0000000e+00 1.5500000e+01 
6.0000000e+00 0.0000000e+00 1.5750000e+01 
6.0000000e+00 0.0000000e+00 1.6000000e+01 
6.0000000e+00 0.0000000e+00 1.6250000e+01 
6.0000000e+00 0.0000000e+00 1.6500000e+01 
6.0000000e+00 0.0000000e+00 1.6750000e+01 
6.0000000e+00 0.0000000e+00 1.7000000e+01 
6.0000000e+00 0.0000000e+00 1.7250000e+01 
6.0000000e+00 0.0000000e+00 1.7500000e+01 
6.0000000e+00 0.0000000e+00 1.7750000e+01 
6.0000000e+00 0.0000000e+00 1.8000000e+01 

CELLS 216 648
2 0 1
2 1 2
2 2 3
2 3 4
2 4 5
2 5 6
2 6 7
2 7 8
2 8 9
2 9 10
2 10 11
2 11 12
2 12 13
2 13 14
2 14 15
2 15 16
2 16 17
2 17 18
2 18 19
2 19 20
2 20 21
2 21 22
2 22 23
2 23 24
2 24 25
2 25 26
2 26 27
2 27 28
2 28 29
2 29 30
2 30 31
2 31 32
2 32 33
2 33 34
2 34 35
2 35 36
2 36 37
2 37 38
2 38 39
2 39 40
2 40 41
2 41 42
2 42 43
2 43 44
2 44 45
2 45 46
2 46 47
2 47 48
2 48 49
2 49 50
2 50 51
2 51 52
2 52 53
2 53 54
2 54 55
2 55 56
2 56 57
2 57 58
2 58 59
2 59 60
2 60 61
2 61 62
2 62 63
2 63 64
2 64 65
2 65 66
2 66 67
2 67 68
2 68 69
2 69 70
2 70 71
2 71 72
2 139 140
2 140 141
2 141 142
2 142 143
2 143 144
2 144 145
2 145 146
2 146 147
2 147 148
2 148 149
2 149 150
2 150 151
2 151 152
2 152 153
2 153 154
2 154 155
2 155 156
2 156 157
2 157 158
2 158 159
2 159 160
2 160 161
2 161 162
2 162 163
2 163 164
2 164 165
2 165 166
2 166 167
2 167 168
2 168 169
2 169 170
2 170 171
2 171 172
2 172 173
2 173 174
2 174 175
2 175 176
2 176 177
2 177 178
2 178 179
2 179 180
2 180 181
2 181 182
2 182 183
2 183 184
2 184 185
2 185 186
2 186 187
2 187 188
2 188 189
2 189 190
2 190 191
2 191 192
2 192 193
2 193 194
2 194 195
2 195 196
2 196 197
2 197 198
2 198 199
2 199 200
2 200 201
2 201 202
2 202 203
2 203 204
2 204 205
2 205 206
2 206 207
2 207 208
2 208 209
2 209 210
2 210 211
2 12 73
2 73 79
2 79 85
2 85 91
2 91 97
2 97 103
2 103 109
2 109 115
2 115 121
2 121 127
2 127 133
2 133 151
2 24 74
2 74 80
2 80 86
2 86 92
2 92 98
2 98 104
2 104 110
2 110 116
2 116 122
2 122 128
2 128 134
2 134 163
2 36 75
2 75 81
2 81 87
2 87 93
2 93 99
2 99 105
2 105 111
2 111 117
2 117 123
2 123 129
2 129 135
2 135 175
2 48 76
2 76 82
2 82 88
2 88 94
2 94 100
2 100 106
2 106 112
2 112 118
2 118 124
2 124 130
2 130 136
2 136 187
2 60 77
2 77 83
2 83 89
2 89 95
2 95 101
2 101 107
2 107 113
2 113 119
2 119 125
2 125 131
2 131 137
2 137 199
2 72 78
2 78 84
2 84 90
2 90 96
2 96 102
2 102 108
2 108 114
2 114 120
2 120 126
2 126 132
2 132 138
2 138 211

CELL_TYPES 216
3
3
3
3
3
3
3
3
3
3
3
3
3
3
3
3
3
3
3
3
3
3
3
3
3
3
3
3
3
3
3
3
3
3
3
3
3
3
3
3
3
3
3
3
3
3
3
3
3
3
3
3
3
3
3
3
3
3
3
3
3
3
3
3
3
3
3
3
3
3
3
3
3
3
3
3
3
3
3
3
3
3
3
3
3
3
3
3
3
3
3
3
3
3
3
3
3
3
3
3
3
3
3
3
3
3
3
3
3
3
3
3
3
3
3
3
3
3
3
3
3
3
3
3
3
3
3
3
3
3
3
3
3
3
3
3
3
3
3
3
3
3
3
3
3
3
3
3
3
3
3
3
3
3
3
3
3
3
3
3
3
3
3
3
3
3
3
3
3
3
3
3
3
3
3
3
3
3
3
3
3
3
3
3
3
3
3
3
3
3
3
3
3
3
3
3
3
3
3
3
3
3
3
3
3
3
3
3
3
3
3
3
3
3
3
3
POINT_DATA 212
FIELD FieldData 3
ADJOINT_DISPLACEMENT 3 212  float
0.0000000e+00 0.0000000e+00 0.0000000e+00 
8.2448214e-06 0.0000000e+00 -6.0565725e-16 
1.6816510e-05 0.0000000e+00 -1.2113145e-15 
2.6041935e-05 0.0000000e+00 -1.8169719e-15 
3.6247966e-05 0.0000000e+00 -2.4226290e-15 
4.7761467e-05 0.0000000e+00 -3.0282864e-15 
6.0909308e-05 0.0000000e+00 -3.6339437e-15 
7.6018354e-05 0.0000000e+00 -4.2396006e-15 
9.3415481e-05 0.0000000e+00 -4.8452580e-15 
1.1342755e-04 0.0000000e+00 -5.4509154e-15 
1.3638144e-04 0.0000000e+00 -6.0565727e-15 
1.6260399e-04 0.0000000e+00 -6.6622296e-15 
1.9242210e-04 0.0000000e+00 -7.2678874e-15 
2.2839964e-04 0.0000000e+00 -4.0819966e-08 
2.7151470e-04 0.0000000e+00 -8.1639925e-08 
3.1971547e-04 0.0000000e+00 -1.2245988e-07 
3.7095015e-04 0.0000000e+00 -1.6327985e-07 
4.2316696e-04 0.0000000e+00 -2.0409981e-07 
4.7431403e-04 0.0000000e+00 -2.4491976e-07 
5.2233966e-04 0.0000000e+00 -2.8573973e-07 
5.6519191e-04 0.0000000e+00 -3.2655970e-07 
6.0081907e-04 0.0000000e+00 -3.6737964e-07 
6.2716933e-04 0.0000000e+00 -4.0819961e-07 
6.4219080e-04 0.0000000e+00 -4.4901958e-07 
6.4383179e-04 0.0000000e+00 -4.8983952e-07 
6.3697289e-04 0.0000000e+00 -6.9404518e-07 
6.3417427e-04 0.0000000e+00 -8.9825085e-07 
6.4490340e-04 0.0000000e+00 -1.1024565e-06 
6.7862775e-04 0.0000000e+00 -1.3066622e-06 
7.4481481e-04 0.0000000e+00 -1.5108678e-06 
8.5293211e-04 0.0000000e+00 -1.7150735e-06 
1.0124471e-03 0.0000000e+00 -1.9192792e-06 
1.2328272e-03 0.0000000e+00 -2.1234848e-06 
1.5235400e-03 0.0000000e+00 -2.3276905e-06 
1.8940528e-03 0.0000000e+00 -2.5318961e-06 
2.3538333e-03 0.0000000e+00 -2.7361018e-06 
2.9123488e-03 0.0000000e+00 -2.9403075e-06 
3.6207205e-03 0.0000000e+00 -3.9210454e-06 
4.4950000e-03 0.0000000e+00 -4.9017835e-06 
5.4920507e-03 0.0000000e+00 -5.8825217e-06 
6.5687359e-03 0.0000000e+00 -6.8632594e-06 
7.6819183e-03 0.0000000e+00 -7.8439971e-06 
8.7884627e-03 0.0000000e+00 -8.8247352e-06 
9.8452307e-03 0.0000000e+00 -9.8054734e-06 
1.0809087e-02 0.0000000e+00 -1.0786212e-05 
1.1636894e-02 0.0000000e+00 -1.1766950e-05 
1.2285516e-02 0.0000000e+00 -1.2747688e-05 
1.2711815e-02 0.0000000e+00 -1.3728425e-05 
1.2872655e-02 0.0000000e+00 -1.4709163e-05 
1.2884999e-02 0.0000000e+00 -1.9411191e-05 
1.3025441e-02 0.0000000e+00 -2.4113218e-05 
1.3490291e-02 0.0000000e+00 -2.8815248e-05 
1.4475857e-02 0.0000000e+00 -3.3517274e-05 
1.6178450e-02 0.0000000e+00 -3.8219303e-05 
1.8794376e-02 0.0000000e+00 -4.2921332e-05 
2.2519946e-02 0.0000000e+00 -4.7623358e-05 
2.7551472e-02 0.0000000e+00 -5.2325388e-05 
3.4085259e-02 0.0000000e+00 -5.7027413e-05 
4.2317621e-02 0.0000000e+00 -6.1729443e-05 
5.2444860e-02 0.0000000e+00 -6.6431472e-05 
6.4663291e-02 0.0000000e+00 -7.1133494e-05 
8.0119990e-02 0.0000000e+00 -9.3675095e-05 
9.9249683e-02 0.0000000e+00 -1.1621669e-04 
1.2118019e-01 0.0000000e+00 -1.3875829e-04 
1.4503932e-01 0.0000000e+00 -1.6129989e-04 
1.6995488e-01 0.0000000e+00 -1.8384148e-04 
1.9505468e-01 0.0000000e+00 -2.0638308e-04 
2.1946652e-01 0.0000000e+00 -2.2892468e-04 
2.4231824e-01 0.0000000e+00 -2.5146626e-04 
2.6273763e-01 0.0000000e+00 -2.7400788e-04 
2.7985248e-01 0.0000000e+00 -2.9654946e-04 
2.9279065e-01 0.0000000e+00 -3.1909105e-04 
3.0067992e-01 0.0000000e+00 -3.4163267e-04 
1.9182987e-04 0.0000000e+00 -5.3353051e-05 
6.4669986e-04 0.0000000e+00 2.9276971e-05 
2.8992514e-03 0.0000000e+00 -1.0316513e-03 
1.2932272e-02 0.0000000e+00 3.9873947e-04 
6.4397261e-02 0.0000000e+00 -2.2405749e-02 
3.0089706e-01 0.0000000e+00 1.5938029e-03 
1.9123762e-04 0.0000000e+00 -8.8261630e-05 
6.4956793e-04 0.0000000e+00 8.8644832e-05 
2.8861540e-03 0.0000000e+00 -1.7068961e-03 
1.2991889e-02 0.0000000e+00 1.5345875e-03 
6.4131223e-02 0.0000000e+00 -3.6856011e-02 
3.0111423e-01 0.0000000e+00 2.8662158e-02 
1.9064537e-04 0.0000000e+00 -1.0734890e-04 
6.5243605e-04 0.0000000e+00 1.6711424e-04 
2.8730566e-03 0.0000000e+00 -2.0785765e-03 
1.3051507e-02 0.0000000e+00 3.1536971e-03 
6.3865185e-02 0.0000000e+00 -4.4568326e-02 
3.0133140e-01 0.0000000e+00 8.2312003e-02 
1.9005314e-04 0.0000000e+00 -1.1323806e-04 
6.5530412e-04 0.0000000e+00 2.5418567e-04 
2.8599591e-03 0.0000000e+00 -2.1965939e-03 
1.3111124e-02 0.0000000e+00 5.0169304e-03 
6.3599154e-02 0.0000000e+00 -4.6689101e-02 
3.0154854e-01 0.0000000e+00 1.6399190e-01 
1.8946089e-04 0.0000000e+00 -1.0855227e-04 
6.5817218e-04 0.0000000e+00 3.3935966e-04 
2.8468617e-03 0.0000000e+00 -2.1108501e-03 
1.3170741e-02 0.0000000e+00 6.8851495e-03 
6.3333116e-02 0.0000000e+00 -4.4364747e-02 
3.0176571e-01 0.0000000e+00 2.7515045e-01 
1.8886864e-04 0.0000000e+00 -9.5914715e-05 
6.6104025e-04 0.0000000e+00 4.1213664e-04 
2.8337645e-03 0.0000000e+00 -1.8712466e-03 
1.3230359e-02 0.0000000e+00 8.5192164e-03 
6.3067079e-02 0.0000000e+00 -3.8741671e-02 
3.0198285e-01 0.0000000e+00 4.1723618e-01 
1.8827640e-04 0.0000000e+00 -7.7948556e-05 
6.6390831e-04 0.0000000e+00 4.6201717e-04 
2.8206671e-03 0.0000000e+00 -1.5276850e-03 
1.3289976e-02 0.0000000e+00 9.6799936e-03 
6.2801048e-02 0.0000000e+00 -3.0966278e-02 
3.0220002e-01 0.0000000e+00 5.9169769e-01 
1.8768416e-04 0.0000000e+00 -5.7276982e-05 
6.6677638e-04 0.0000000e+00 4.7850169e-04 
2.8075697e-03 0.0000000e+00 -1.1300667e-03 
1.3349594e-02 0.0000000e+00 1.0128343e-02 
6.2535010e-02 0.0000000e+00 -2.2184979e-02 
3.0241719e-01 0.0000000e+00 7.9998350e-01 
1.8709191e-04 0.0000000e+00 -3.6523164e-05 
6.6964451e-04 0.0000000e+00 4.5109072e-04 
2.7944723e-03 0.0000000e+00 -7.2829344e-04 
1.3409211e-02 0.0000000e+00 9.6251275e-03 
6.2268976e-02 0.0000000e+00 -1.3544180e-02 
3.0263433e-01 0.0000000e+00 5.4354227e-01 
1.8649967e-04 0.0000000e+00 -1.8310278e-05 
6.7251257e-04 0.0000000e+00 3.6928477e-04 
2.7813748e-03 0.0000000e+00 -3.7226680e-04 
1.3468828e-02 0.0000000e+00 7.9312092e-03 
6.2002938e-02 0.0000000e+00 -6.1902897e-03 
3.0285150e-01 0.0000000e+00 3.2382247e-01 
1.8590743e-04 0.0000000e+00 -5.2614973e-06 
6.7538064e-04 0.0000000e+00 2.2258431e-04 
2.7682774e-03 0.0000000e+00 -1.1188835e-04 
1.3528446e-02 0.0000000e+00 4.8074485e-03 
6.1736904e-02 0.0000000e+00 -1.2697162e-03 
3.0306867e-01 0.0000000e+00 1.4227274e-01 
0.0000000e+00 0.0000000e+00 0.0000000e+00 
2.3233286e-05 0.0000000e+00 5.5319579e-16 
4.6139703e-05 0.0000000e+00 1.1063916e-15 
6.8392386e-05 0.0000000e+00 1.6595872e-15 
8.9664463e-05 0.0000000e+00 2.2127829e-15 
1.0962907e-04 0.0000000e+00 2.7659787e-15 
1.2795934e-04 0.0000000e+00 3.3191744e-15 
1.4432840e-04 0.0000000e+00 3.8723699e-15 
1.5840937e-04 0.0000000e+00 4.4255659e-15 
1.6987542e-04 0.0000000e+00 4.9787614e-15 
1.7839964e-04 0.0000000e+00 5.5319569e-15 
1.8365518e-04 0.0000000e+00 6.0851525e-15 
1.8531519e-04 0.0000000e+00 6.6383476e-15 
1.8475052e-04 0.0000000e+00 4.0819966e-08 
1.8491785e-04 0.0000000e+00 8.1639925e-08 
1.8786901e-04 0.0000000e+00 1.2245988e-07 
1.9565577e-04 0.0000000e+00 1.6327985e-07 
2.1032996e-04 0.0000000e+00 2.0409981e-07 
2.3394337e-04 0.0000000e+00 2.4491976e-07 
2.6854782e-04 0.0000000e+00 2.8573973e-07 
3.1619510e-04 0.0000000e+00 3.2655970e-07 
3.7893702e-04 0.0000000e+00 3.6737964e-07 
4.5882538e-04 0.0000000e+00 4.0819961e-07 
5.5791205e-04 0.0000000e+00 4.4901958e-07 
6.7824870e-04 0.0000000e+00 4.8983952e-07 
8.3070406e-04 0.0000000e+00 6.9404518e-07 
1.0184672e-03 0.0000000e+00 8.9825085e-07 
1.2320706e-03 0.0000000e+00 1.1024565e-06 
1.4620469e-03 0.0000000e+00 1.3066622e-06 
1.6989284e-03 0.0000000e+00 1.5108678e-06 
1.9332478e-03 0.0000000e+00 1.7150735e-06 
2.1555375e-03 0.0000000e+00 1.9192792e-06 
2.3563302e-03 0.0000000e+00 2.1234848e-06 
2.5261582e-03 0.0000000e+00 2.3276905e-06 
2.6555541e-03 0.0000000e+00 2.5318961e-06 
2.7350506e-03 0.0000000e+00 2.7361018e-06 
2.7551800e-03 0.0000000e+00 2.9403075e-06 
2.7396737e-03 0.0000000e+00 3.9210454e-06 
2.7473322e-03 0.0000000e+00 4.9017835e-06 
2.8212927e-03 0.0000000e+00 5.8825217e-06 
3.0046913e-03 0.0000000e+00 6.8632594e-06 
3.3406650e-03 0.0000000e+00 7.8439971e-06 
3.8723506e-03 0.0000000e+00 8.8247352e-06 
4.6428842e-03 0.0000000e+00 9.8054734e-06 
5.6954031e-03 0.0000000e+00 1.0786212e-05 
7.0730438e-03 0.0000000e+00 1.1766950e-05 
8.8189431e-03 0.0000000e+00 1.2747688e-05 
1.0976237e-02 0.0000000e+00 1.3728425e-05 
1.3588063e-02 0.0000000e+00 1.4709163e-05 
1.6896164e-02 0.0000000e+00 1.9411191e-05 
2.0982655e-02 0.0000000e+00 2.4113218e-05 
2.5651222e-02 0.0000000e+00 2.8815248e-05 
3.0705562e-02 0.0000000e+00 3.3517274e-05 
3.5949361e-02 0.0000000e+00 3.8219303e-05 
4.1186310e-02 0.0000000e+00 4.2921332e-05 
4.6220101e-02 0.0000000e+00 4.7623358e-05 
5.0854430e-02 0.0000000e+00 5.2325388e-05 
5.4892976e-02 0.0000000e+00 5.7027413e-05 
5.8139440e-02 0.0000000e+00 6.1729443e-05 
6.0397506e-02 0.0000000e+00 6.6431472e-05 
6.1470870e-02 0.0000000e+00 7.1133494e-05 
6.1932068e-02 0.0000000e+00 9.3675095e-05 
6.3065976e-02 0.0000000e+00 1.1621669e-04 
6.5744780e-02 0.0000000e+00 1.3875829e-04 
7.0840679e-02 0.0000000e+00 1.6129989e-04 
7.9225853e-02 0.0000000e+00 1.8384148e-04 
9.1772497e-02 0.0000000e+00 2.0638308e-04 
1.0935280e-01 0.0000000e+00 2.2892468e-04 
1.3283895e-01 0.0000000e+00 2.5146626e-04 
1.6310313e-01 0.0000000e+00 2.7400788e-04 
2.0101754e-01 0.0000000e+00 2.9654946e-04 
2.4745438e-01 0.0000000e+00 3.1909105e-04 
3.0328581e-01 0.0000000e+00 3.4163267e-04 
ADJOINT_ROTATION 3 212  float
0.0000000e+00 3.2761371e-05 0.0000000e+00 
0.0000000e+00 3.3415108e-05 0.0000000e+00 
0.0000000e+00 3.5376317e-05 0.0000000e+00 
0.0000000e+00 3.8644997e-05 0.0000000e+00 
0.0000000e+00 4.3221149e-05 0.0000000e+00 
0.0000000e+00 4.9104772e-05 0.0000000e+00 
0.0000000e+00 5.6295870e-05 0.0000000e+00 
0.0000000e+00 6.4794440e-05 0.0000000e+00 
0.0000000e+00 7.4600473e-05 0.0000000e+00 
0.0000000e+00 8.5713989e-05 0.0000000e+00 
0.0000000e+00 9.8134973e-05 0.0000000e+00 
0.0000000e+00 1.1186343e-04 0.0000000e+00 
0.0000000e+00 1.2689935e-04 0.0000000e+00 
0.0000000e+00 1.5955306e-04 0.0000000e+00 
0.0000000e+00 1.8399954e-04 0.0000000e+00 
0.0000000e+00 2.0023879e-04 0.0000000e+00 
0.0000000e+00 2.0827082e-04 0.0000000e+00 
0.0000000e+00 2.0809565e-04 0.0000000e+00 
0.0000000e+00 1.9971323e-04 0.0000000e+00 
0.0000000e+00 1.8312360e-04 0.0000000e+00 
0.0000000e+00 1.5832674e-04 0.0000000e+00 
0.0000000e+00 1.2532267e-04 0.0000000e+00 
0.0000000e+00 8.4111365e-05 0.0000000e+00 
0.0000000e+00 3.4692846e-05 0.0000000e+00 
0.0000000e+00 -2.2932900e-05 0.0000000e+00 
0.0000000e+00 -2.5626741e-05 0.0000000e+00 
0.0000000e+00 9.5493360e-06 0.0000000e+00 
0.0000000e+00 8.2595332e-05 0.0000000e+00 
0.0000000e+00 1.9351125e-04 0.0000000e+00 
0.0000000e+00 3.4229708e-04 0.0000000e+00 
0.0000000e+00 5.2895286e-04 0.0000000e+00 
0.0000000e+00 7.5347850e-04 0.0000000e+00 
0.0000000e+00 1.0158741e-03 0.0000000e+00 
0.0000000e+00 1.3161396e-03 0.0000000e+00 
0.0000000e+00 1.6542750e-03 0.0000000e+00 
0.0000000e+00 2.0302804e-03 0.0000000e+00 
0.0000000e+00 2.4441557e-03 0.0000000e+00 
0.0000000e+00 3.1940602e-03 0.0000000e+00 
0.0000000e+00 3.7714180e-03 0.0000000e+00 
0.0000000e+00 4.1762292e-03 0.0000000e+00 
0.0000000e+00 4.4084936e-03 0.0000000e+00 
0.0000000e+00 4.4682114e-03 0.0000000e+00 
0.0000000e+00 4.3553822e-03 0.0000000e+00 
0.0000000e+00 4.0700063e-03 0.0000000e+00 
0.0000000e+00 3.6120841e-03 0.0000000e+00 
0.0000000e+00 2.9816150e-03 0.0000000e+00 
0.0000000e+00 2.1785991e-03 0.0000000e+00 
0.0000000e+00 1.2030365e-03 0.0000000e+00 
0.0000000e+00 5.4927299e-05 0.0000000e+00 
0.0000000e+00 1.7470047e-04 0.0000000e+00 
0.0000000e+00 1.0797108e-03 0.0000000e+00 
0.0000000e+00 2.7699582e-03 0.0000000e+00 
0.0000000e+00 5.2454430e-03 0.0000000e+00 
0.0000000e+00 8.5061649e-03 0.0000000e+00 
0.0000000e+00 1.2552124e-02 0.0000000e+00 
0.0000000e+00 1.7383320e-02 0.0000000e+00 
0.0000000e+00 2.2999752e-02 0.0000000e+00 
0.0000000e+00 2.9401423e-02 0.0000000e+00 
0.0000000e+00 3.6588330e-02 0.0000000e+00 
0.0000000e+00 4.4560473e-02 0.0000000e+00 
0.0000000e+00 5.3317856e-02 0.0000000e+00 
0.0000000e+00 6.9754235e-02 0.0000000e+00 
0.0000000e+00 8.2701862e-02 0.0000000e+00 
0.0000000e+00 9.2160724e-02 0.0000000e+00 
0.0000000e+00 9.8130830e-02 0.0000000e+00 
0.0000000e+00 1.0061218e-01 0.0000000e+00 
0.0000000e+00 9.9604763e-02 0.0000000e+00 
0.0000000e+00 9.5108591e-02 0.0000000e+00 
0.0000000e+00 8.7123655e-02 0.0000000e+00 
0.0000000e+00 7.5649962e-02 0.0000000e+00 
0.0000000e+00 6.0687516e-02 0.0000000e+00 
0.0000000e+00 4.2236306e-02 0.0000000e+00 
0.0000000e+00 2.0296335e-02 0.0000000e+00 
0.0000000e+00 8.7387234e-05 0.0000000e+00 
0.0000000e+00 -9.2634502e-05 0.0000000e+00 
0.0000000e+00 1.6873219e-03 0.0000000e+00 
0.0000000e+00 -1.6290093e-03 0.0000000e+00 
0.0000000e+00 3.6402740e-02 0.0000000e+00 
0.0000000e+00 -2.8520934e-02 0.0000000e+00 
0.0000000e+00 5.3121465e-05 0.0000000e+00 
0.0000000e+00 -1.4133709e-04 0.0000000e+00 
0.0000000e+00 1.0302914e-03 0.0000000e+00 
0.0000000e+00 -2.8346702e-03 0.0000000e+00 
0.0000000e+00 2.1780441e-02 0.0000000e+00 
0.0000000e+00 -8.0235340e-02 0.0000000e+00 
0.0000000e+00 2.4102044e-05 0.0000000e+00 
0.0000000e+00 -1.6904068e-04 0.0000000e+00 
0.0000000e+00 4.7306402e-04 0.0000000e+00 
0.0000000e+00 -3.5620555e-03 0.0000000e+00 
0.0000000e+00 9.4509553e-03 0.0000000e+00 
0.0000000e+00 -1.3484690e-01 0.0000000e+00 
0.0000000e+00 3.2897606e-07 0.0000000e+00 
0.0000000e+00 -1.7574524e-04 0.0000000e+00 
0.0000000e+00 1.5639804e-05 0.0000000e+00 
0.0000000e+00 -3.8111650e-03 0.0000000e+00 
0.0000000e+00 -5.8571377e-04 0.0000000e+00 
0.0000000e+00 -1.9235557e-01 0.0000000e+00 
0.0000000e+00 -1.8197741e-05 0.0000000e+00 
0.0000000e+00 -1.6145081e-04 0.0000000e+00 
0.0000000e+00 -3.4198124e-04 0.0000000e+00 
0.0000000e+00 -3.5819989e-03 0.0000000e+00 
0.0000000e+00 -8.3295675e-03 0.0000000e+00 
0.0000000e+00 -2.5276139e-01 0.0000000e+00 
0.0000000e+00 -3.1478106e-05 0.0000000e+00 
0.0000000e+00 -1.2615735e-04 0.0000000e+00 
0.0000000e+00 -5.9979910e-04 0.0000000e+00 
0.0000000e+00 -2.8745572e-03 0.0000000e+00 
0.0000000e+00 -1.3780605e-02 0.0000000e+00 
0.0000000e+00 -3.1606436e-01 0.0000000e+00 
0.0000000e+00 -3.9512121e-05 0.0000000e+00 
0.0000000e+00 -6.9864880e-05 0.0000000e+00 
0.0000000e+00 -7.5781380e-04 0.0000000e+00 
0.0000000e+00 -1.6888396e-03 0.0000000e+00 
0.0000000e+00 -1.6938828e-02 0.0000000e+00 
0.0000000e+00 -3.8226447e-01 0.0000000e+00 
0.0000000e+00 -4.2299787e-05 0.0000000e+00 
0.0000000e+00 7.4265936e-06 0.0000000e+00 
0.0000000e+00 -8.1602536e-04 0.0000000e+00 
0.0000000e+00 -2.4846506e-05 0.0000000e+00 
0.0000000e+00 -1.7804233e-02 0.0000000e+00 
0.0000000e+00 -4.5136172e-01 0.0000000e+00 
0.0000000e+00 -3.9841099e-05 0.0000000e+00 
0.0000000e+00 1.0571708e-04 0.0000000e+00 
0.0000000e+00 -7.7443372e-04 0.0000000e+00 
0.0000000e+00 2.1174224e-03 0.0000000e+00 
0.0000000e+00 -1.6376825e-02 0.0000000e+00 
0.0000000e+00 4.7664389e-01 0.0000000e+00 
0.0000000e+00 -3.2136060e-05 0.0000000e+00 
0.0000000e+00 2.2500659e-04 0.0000000e+00 
0.0000000e+00 -6.3303893e-04 0.0000000e+00 
0.0000000e+00 4.7379667e-03 0.0000000e+00 
0.0000000e+00 -1.2656600e-02 0.0000000e+00 
0.0000000e+00 4.0175235e-01 0.0000000e+00 
0.0000000e+00 -1.9184670e-05 0.0000000e+00 
0.0000000e+00 3.6529510e-04 0.0000000e+00 
0.0000000e+00 -3.9184096e-04 0.0000000e+00 
0.0000000e+00 7.8367870e-03 0.0000000e+00 
0.0000000e+00 -6.6435593e-03 0.0000000e+00 
0.0000000e+00 3.2396370e-01 0.0000000e+00 
0.0000000e+00 9.3151059e-05 0.0000000e+00 
0.0000000e+00 9.2497321e-05 0.0000000e+00 
0.0000000e+00 9.0536116e-05 0.0000000e+00 
0.0000000e+00 8.7267435e-05 0.0000000e+00 
0.0000000e+00 8.2691280e-05 0.0000000e+00 
0.0000000e+00 7.6807657e-05 0.0000000e+00 
0.0000000e+00 6.9616559e-05 0.0000000e+00 
0.0000000e+00 6.1117993e-05 0.0000000e+00 
0.0000000e+00 5.1311952e-05 0.0000000e+00 
0.0000000e+00 4.0198440e-05 0.0000000e+00 
0.0000000e+00 2.7777456e-05 0.0000000e+00 
0.0000000e+00 1.4049000e-05 0.0000000e+00 
0.0000000e+00 -9.8692817e-07 0.0000000e+00 
0.0000000e+00 -2.1625226e-06 0.0000000e+00 
0.0000000e+00 4.8691054e-06 0.0000000e+00 
0.0000000e+00 2.0107957e-05 0.0000000e+00 
0.0000000e+00 4.3554028e-05 0.0000000e+00 
0.0000000e+00 7.5207325e-05 0.0000000e+00 
0.0000000e+00 1.1506784e-04 0.0000000e+00 
0.0000000e+00 1.6313558e-04 0.0000000e+00 
0.0000000e+00 2.1941055e-04 0.0000000e+00 
0.0000000e+00 2.8389273e-04 0.0000000e+00 
0.0000000e+00 3.5658214e-04 0.0000000e+00 
0.0000000e+00 4.3747877e-04 0.0000000e+00 
0.0000000e+00 5.2658259e-04 0.0000000e+00 
0.0000000e+00 6.8674865e-04 0.0000000e+00 
0.0000000e+00 8.0904475e-04 0.0000000e+00 
0.0000000e+00 8.9347089e-04 0.0000000e+00 
0.0000000e+00 9.4002718e-04 0.0000000e+00 
0.0000000e+00 9.4871351e-04 0.0000000e+00 
0.0000000e+00 9.1952994e-04 0.0000000e+00 
0.0000000e+00 8.5247646e-04 0.0000000e+00 
0.0000000e+00 7.4755301e-04 0.0000000e+00 
0.0000000e+00 6.0475967e-04 0.0000000e+00 
0.0000000e+00 4.2409645e-04 0.0000000e+00 
0.0000000e+00 2.0556326e-04 0.0000000e+00 
0.0000000e+00 -5.0839823e-05 0.0000000e+00 
0.0000000e+00 -4.4453162e-05 0.0000000e+00 
0.0000000e+00 1.3448021e-04 0.0000000e+00 
0.0000000e+00 4.8596028e-04 0.0000000e+00 
0.0000000e+00 1.0099871e-03 0.0000000e+00 
0.0000000e+00 1.7065606e-03 0.0000000e+00 
0.0000000e+00 2.5756808e-03 0.0000000e+00 
0.0000000e+00 3.6173477e-03 0.0000000e+00 
0.0000000e+00 4.8315614e-03 0.0000000e+00 
0.0000000e+00 6.2183216e-03 0.0000000e+00 
0.0000000e+00 7.7776285e-03 0.0000000e+00 
0.0000000e+00 9.5094824e-03 0.0000000e+00 
0.0000000e+00 1.1413882e-02 0.0000000e+00 
0.0000000e+00 1.4920055e-02 0.0000000e+00 
0.0000000e+00 1.7640989e-02 0.0000000e+00 
0.0000000e+00 1.9576687e-02 0.0000000e+00 
0.0000000e+00 2.0727148e-02 0.0000000e+00 
0.0000000e+00 2.1092372e-02 0.0000000e+00 
0.0000000e+00 2.0672359e-02 0.0000000e+00 
0.0000000e+00 1.9467108e-02 0.0000000e+00 
0.0000000e+00 1.7476620e-02 0.0000000e+00 
0.0000000e+00 1.4700894e-02 0.0000000e+00 
0.0000000e+00 1.1139932e-02 0.0000000e+00 
0.0000000e+00 6.7937332e-03 0.0000000e+00 
0.0000000e+00 1.6622967e-03 0.0000000e+00 
0.0000000e+00 2.6087533e-03 0.0000000e+00 
0.0000000e+00 7.0439689e-03 0.0000000e+00 
0.0000000e+00 1.4967944e-02 0.0000000e+00 
0.0000000e+00 2.6380679e-02 0.0000000e+00 
0.0000000e+00 4.1282173e-02 0.0000000e+00 
0.0000000e+00 5.9672426e-02 0.0000000e+00 
0.0000000e+00 8.1551440e-02 0.0000000e+00 
0.0000000e+00 1.0691921e-01 0.0000000e+00 
0.0000000e+00 1.3577574e-01 0.0000000e+00 