# vtk DataFile Version 4.0
vtk output
ASCII
DATASET UNSTRUCTURED_GRID
POINTS 212 float
0.0000000e+00 0.0000000e+00 0.0000000e+00 
0.0000000e+00 0.0000000e+00 2.5000000e-01 
0.0000000e+00 0.0000000e+00 5.0000000e-01 
0.0000000e+00 0.0000000e+00 7.5000000e-01 
0.0000000e+00 0.0000000e+00 1.0000000e+00 
0.0000000e+00 0.0000000e+00 1.2500000e+00 
0.0000000e+00 0.0000000e+00 1.5000000e+00 
0.0000000e+00 0.0000000e+00 1.7500000e+00 
0.0000000e+00 0.0000000e+00 2.0000000e+00 
0.0000000e+00 0.0000000e+00 2.2500000e+00 
0.0000000e+00 0.0000000e+00 2.5000000e+00 
0.0000000e+00 0.0000000e+00 2.7500000e+00 
0.0000000e+00 0.0000000e+00 3.0000000e+00 
0.0000000e+00 0.0000000e+00 3.2500000e+00 
0.0000000e+00 0.0000000e+00 3.5000000e+00 
0.0000000e+00 0.0000000e+00 3.7500000e+00 
0.0000000e+00 0.0000000e+00 4.0000000e+00 
0.0000000e+00 0.0000000e+00 4.2500000e+00 
0.0000000e+00 0.0000000e+00 4.5000000e+00 
0.0000000e+00 0.0000000e+00 4.7500000e+00 
0.0000000e+00 0.0000000e+00 5.0000000e+00 
0.0000000e+00 0.0000000e+00 5.2500000e+00 
0.0000000e+00 0.0000000e+00 5.5000000e+00 
0.0000000e+00 0.0000000e+00 5.7500000e+00 
0.0000000e+00 0.0000000e+00 6.0000000e+00 
0.0000000e+00 0.0000000e+00 6.2500000e+00 
0.0000000e+00 0.0000000e+00 6.5000000e+00 
0.0000000e+00 0.0000000e+00 6.7500000e+00 
0.0000000e+00 0.0000000e+00 7.0000000e+00 
0.0000000e+00 0.0000000e+00 7.2500000e+00 
0.0000000e+00 0.0000000e+00 7.5000000e+00 
0.0000000e+00 0.0000000e+00 7.7500000e+00 
0.0000000e+00 0.0000000e+00 8.0000000e+00 
0.0000000e+00 0.0000000e+00 8.2500000e+00 
0.0000000e+00 0.0000000e+00 8.5000000e+00 
0.0000000e+00 0.0000000e+00 8.7500000e+00 
0.0000000e+00 0.0000000e+00 9.0000000e+00 
0.0000000e+00 0.0000000e+00 9.2500000e+00 
0.0000000e+00 0.0000000e+00 9.5000000e+00 
0.0000000e+00 0.0000000e+00 9.7500000e+00 
0.0000000e+00 0.0000000e+00 1.0000000e+01 
0.0000000e+00 0.0000000e+00 1.0250000e+01 
0.0000000e+00 0.0000000e+00 1.0500000e+01 
0.0000000e+00 0.0000000e+00 1.0750000e+01 
0.0000000e+00 0.0000000e+00 1.1000000e+01 
0.0000000e+00 0.0000000e+00 1.1250000e+01 
0.0000000e+00 0.0000000e+00 1.1500000e+01 
0.0000000e+00 0.0000000e+00 1.1750000e+01 
0.0000000e+00 0.0000000e+00 1.2000000e+01 
0.0000000e+00 0.0000000e+00 1.2250000e+01 
0.0000000e+00 0.0000000e+00 1.2500000e+01 
0.0000000e+00 0.0000000e+00 1.2750000e+01 
0.0000000e+00 0.0000000e+00 1.3000000e+01 
0.0000000e+00 0.0000000e+00 1.3250000e+01 
0.0000000e+00 0.0000000e+00 1.3500000e+01 
0.0000000e+00 0.0000000e+00 1.3750000e+01 
0.0000000e+00 0.0000000e+00 1.4000000e+01 
0.0000000e+00 0.0000000e+00 1.4250000e+01 
0.0000000e+00 0.0000000e+00 1.4500000e+01 
0.0000000e+00 0.0000000e+00 1.4750000e+01 
0.0000000e+00 0.0000000e+00 1.5000000e+01 
0.0000000e+00 0.0000000e+00 1.5250000e+01 
0.0000000e+00 0.0000000e+00 1.5500000e+01 
0.0000000e+00 0.0000000e+00 1.5750000e+01 
0.0000000e+00 0.0000000e+00 1.6000000e+01 
0.0000000e+00 0.0000000e+00 1.6250000e+01 
0.0000000e+00 0.0000000e+00 1.6500000e+01 
0.0000000e+00 0.0000000e+00 1.6750000e+01 
0.0000000e+00 0.0000000e+00 1.7000000e+01 
0.0000000e+00 0.0000000e+00 1.7250000e+01 
0.0000000e+00 0.0000000e+00 1.7500000e+01 
0.0000000e+00 0.0000000e+00 1.7750000e+01 
0.0000000e+00 0.0000000e+00 1.8000000e+01 
5.0000000e-01 0.0000000e+00 3.0000000e+00 
5.0000000e-01 0.0000000e+00 6.0000000e+00 
5.0000000e-01 0.0000000e+00 9.0000000e+00 
5.0000000e-01 0.0000000e+00 1.2000000e+01 
5.0000000e-01 0.0000000e+00 1.5000000e+01 
5.0000000e-01 0.0000000e+00 1.8000000e+01 
1.0000000e+00 0.0000000e+00 3.0000000e+00 
1.0000000e+00 0.0000000e+00 6.0000000e+00 
1.0000000e+00 0.0000000e+00 9.0000000e+00 
1.0000000e+00 0.0000000e+00 1.2000000e+01 
1.0000000e+00 0.0000000e+00 1.5000000e+01 
1.0000000e+00 0.0000000e+00 1.8000000e+01 
1.5000000e+00 0.0000000e+00 3.0000000e+00 
1.5000000e+00 0.0000000e+00 6.0000000e+00 
1.5000000e+00 0.0000000e+00 9.0000000e+00 
1.5000000e+00 0.0000000e+00 1.2000000e+01 
1.5000000e+00 0.0000000e+00 1.5000000e+01 
1.5000000e+00 0.0000000e+00 1.8000000e+01 
2.0000000e+00 0.0000000e+00 3.0000000e+00 
2.0000000e+00 0.0000000e+00 6.0000000e+00 
2.0000000e+00 0.0000000e+00 9.0000000e+00 
2.0000000e+00 0.0000000e+00 1.2000000e+01 
2.0000000e+00 0.0000000e+00 1.5000000e+01 
2.0000000e+00 0.0000000e+00 1.8000000e+01 
2.5000000e+00 0.0000000e+00 3.0000000e+00 
2.5000000e+00 0.0000000e+00 6.0000000e+00 
2.5000000e+00 0.0000000e+00 9.0000000e+00 
2.5000000e+00 0.0000000e+00 1.2000000e+01 
2.5000000e+00 0.0000000e+00 1.5000000e+01 
2.5000000e+00 0.0000000e+00 1.8000000e+01 
3.0000000e+00 0.0000000e+00 3.0000000e+00 
3.0000000e+00 0.0000000e+00 6.0000000e+00 
3.0000000e+00 0.0000000e+00 9.0000000e+00 
3.0000000e+00 0.0000000e+00 1.2000000e+01 
3.0000000e+00 0.0000000e+00 1.5000000e+01 
3.0000000e+00 0.0000000e+00 1.8000000e+01 
3.5000000e+00 0.0000000e+00 3.0000000e+00 
3.5000000e+00 0.0000000e+00 6.0000000e+00 
3.5000000e+00 0.0000000e+00 9.0000000e+00 
3.5000000e+00 0.0000000e+00 1.2000000e+01 
3.5000000e+00 0.0000000e+00 1.5000000e+01 
3.5000000e+00 0.0000000e+00 1.8000000e+01 
4.0000000e+00 0.0000000e+00 3.0000000e+00 
4.0000000e+00 0.0000000e+00 6.0000000e+00 
4.0000000e+00 0.0000000e+00 9.0000000e+00 
4.0000000e+00 0.0000000e+00 1.2000000e+01 
4.0000000e+00 0.0000000e+00 1.5000000e+01 
4.0000000e+00 0.0000000e+00 1.8000000e+01 
4.5000000e+00 0.0000000e+00 3.0000000e+00 
4.5000000e+00 0.0000000e+00 6.0000000e+00 
4.5000000e+00 0.0000000e+00 9.0000000e+00 
4.5000000e+00 0.0000000e+00 1.2000000e+01 
4.5000000e+00 0.0000000e+00 1.5000000e+01 
4.5000000e+00 0.0000000e+00 1.8000000e+01 
5.0000000e+00 0.0000000e+00 3.0000000e+00 
5.0000000e+00 0.0000000e+00 6.0000000e+00 
5.0000000e+00 0.0000000e+00 9.0000000e+00 
5.0000000e+00 0.0000000e+00 1.2000000e+01 
5.0000000e+00 0.0000000e+00 1.5000000e+01 
5.0000000e+00 0.0000000e+00 1.8000000e+01 
5.5000000e+00 0.0000000e+00 3.0000000e+00 
5.5000000e+00 0.0000000e+00 6.0000000e+00 
5.5000000e+00 0.0000000e+00 9.0000000e+00 
5.5000000e+00 0.0000000e+00 1.2000000e+01 
5.5000000e+00 0.0000000e+00 1.5000000e+01 
5.5000000e+00 0.0000000e+00 1.8000000e+01 
6.0000000e+00 0.0000000e+00 0.0000000e+00 
6.0000000e+00 0.0000000e+00 2.5000000e-01 
6.0000000e+00 0.0000000e+00 5.0000000e-01 
6.0000000e+00 0.0000000e+00 7.5000000e-01 
6.0000000e+00 0.0000000e+00 1.0000000e+00 
6.0000000e+00 0.0000000e+00 1.2500000e+00 
6.0000000e+00 0.0000000e+00 1.5000000e+00 
6.0000000e+00 0.0000000e+00 1.7500000e+00 
6.0000000e+00 0.0000000e+00 2.0000000e+00 
6.0000000e+00 0.0000000e+00 2.2500000e+00 
6.0000000e+00 0.0000000e+00 2.5000000e+00 
6.0000000e+00 0.0000000e+00 2.7500000e+00 
6.0000000e+00 0.0000000e+00 3.0000000e+00 
6.0000000e+00 0.0000000e+00 3.2500000e+00 
6.0000000e+00 0.0000000e+00 3.5000000e+00 
6.0000000e+00 0.0000000e+00 3.7500000e+00 
6.0000000e+00 0.0000000e+00 4.0000000e+00 
6.0000000e+00 0.0000000e+00 4.2500000e+00 
6.0000000e+00 0.0000000e+00 4.5000000e+00 
6.0000000e+00 0.0000000e+00 4.7500000e+00 
6.0000000e+00 0.0000000e+00 5.0000000e+00 
6.0000000e+00 0.0000000e+00 5.2500000e+00 
6.0000000e+00 0.0000000e+00 5.5000000e+00 
6.0000000e+00 0.0000000e+00 5.7500000e+00 
6.0000000e+00 0.0000000e+00 6.0000000e+00 
6.0000000e+00 0.0000000e+00 6.2500000e+00 
6.0000000e+00 0.0000000e+00 6.5000000e+00 
6.0000000e+00 0.0000000e+00 6.7500000e+00 
6.0000000e+00 0.0000000e+00 7.0000000e+00 
6.0000000e+00 0.0000000e+00 7.2500000e+00 
6.0000000e+00 0.0000000e+00 7.5000000e+00 
6.0000000e+00 0.0000000e+00 7.7500000e+00 
6.0000000e+00 0.0000000e+00 8.0000000e+00 
6.0000000e+00 0.0000000e+00 8.2500000e+00 
6.0000000e+00 0.0000000e+00 8.5000000e+00 
6.0000000e+00 0.0000000e+00 8.7500000e+00 
6.0000000e+00 0.0000000e+00 9.0000000e+00 
6.0000000e+00 0.0000000e+00 9.2500000e+00 
6.0000000e+00 0.0000000e+00 9.5000000e+00 
6.0000000e+00 0.0000000e+00 9.7500000e+00 
6.0000000e+00 0.0000000e+00 1.0000000e+01 
6.0000000e+00 0.0000000e+00 1.0250000e+01 
6.0000000e+00 0.0000000e+00 1.0500000e+01 
6.0000000e+00 0.0000000e+00 1.0750000e+01 
6.0000000e+00 0.0000000e+00 1.1000000e+01 
6.0000000e+00 0.0000000e+00 1.1250000e+01 
6.0000000e+00 0.0000000e+00 1.1500000e+01 
6.0000000e+00 0.0000000e+00 1.1750000e+01 
6.0000000e+00 0.0000000e+00 1.2000000e+01 
6.0000000e+00 0.0000000e+00 1.2250000e+01 
6.0000000e+00 0.0000000e+00 1.2500000e+01 
6.0000000e+00 0.0000000e+00 1.2750000e+01 
6.0000000e+00 0.0000000e+00 1.3000000e+01 
6.0000000e+00 0.0000000e+00 1.3250000e+01 
6.0000000e+00 0.0000000e+00 1.3500000e+01 
6.0000000e+00 0.0000000e+00 1.3750000e+01 
6.0000000e+00 0.0000000e+00 1.4000000e+01 
6.0000000e+00 0.0000000e+00 1.4250000e+01 
6.0000000e+00 0.0000000e+00 1.4500000e+01 
6.0000000e+00 0.0000000e+00 1.4750000e+01 
6.0000000e+00 0.0000000e+00 1.5000000e+01 
6.0000000e+00 0.0000000e+00 1.5250000e+01 
6.0000000e+00 0.0000000e+00 1.5500000e+01 
6.0000000e+00 0.0000000e+00 1.5750000e+01 
6.0000000e+00 0.0000000e+00 1.6000000e+01 
6.0000000e+00 0.0000000e+00 1.6250000e+01 
6.0000000e+00 0.0000000e+00 1.6500000e+01 
6.0000000e+00 0.0000000e+00 1.6750000e+01 
6.0000000e+00 0.0000000e+00 1.7000000e+01 
6.0000000e+00 0.0000000e+00 1.7250000e+01 
6.0000000e+00 0.0000000e+00 1.7500000e+01 
6.0000000e+00 0.0000000e+00 1.7750000e+01 
6.0000000e+00 0.0000000e+00 1.8000000e+01 

CELLS 216 648
2 0 1
2 1 2
2 2 3
2 3 4
2 4 5
2 5 6
2 6 7
2 7 8
2 8 9
2 9 10
2 10 11
2 11 12
2 12 13
2 13 14
2 14 15
2 15 16
2 16 17
2 17 18
2 18 19
2 19 20
2 20 21
2 21 22
2 22 23
2 23 24
2 24 25
2 25 26
2 26 27
2 27 28
2 28 29
2 29 30
2 30 31
2 31 32
2 32 33
2 33 34
2 34 35
2 35 36
2 36 37
2 37 38
2 38 39
2 39 40
2 40 41
2 41 42
2 42 43
2 43 44
2 44 45
2 45 46
2 46 47
2 47 48
2 48 49
2 49 50
2 50 51
2 51 52
2 52 53
2 53 54
2 54 55
2 55 56
2 56 57
2 57 58
2 58 59
2 59 60
2 60 61
2 61 62
2 62 63
2 63 64
2 64 65
2 65 66
2 66 67
2 67 68
2 68 69
2 69 70
2 70 71
2 71 72
2 139 140
2 140 141
2 141 142
2 142 143
2 143 144
2 144 145
2 145 146
2 146 147
2 147 148
2 148 149
2 149 150
2 150 151
2 151 152
2 152 153
2 153 154
2 154 155
2 155 156
2 156 157
2 157 158
2 158 159
2 159 160
2 160 161
2 161 162
2 162 163
2 163 164
2 164 165
2 165 166
2 166 167
2 167 168
2 168 169
2 169 170
2 170 171
2 171 172
2 172 173
2 173 174
2 174 175
2 175 176
2 176 177
2 177 178
2 178 179
2 179 180
2 180 181
2 181 182
2 182 183
2 183 184
2 184 185
2 185 186
2 186 187
2 187 188
2 188 189
2 189 190
2 190 191
2 191 192
2 192 193
2 193 194
2 194 195
2 195 196
2 196 197
2 197 198
2 198 199
2 199 200
2 200 201
2 201 202
2 202 203
2 203 204
2 204 205
2 205 206
2 206 207
2 207 208
2 208 209
2 209 210
2 210 211
2 12 73
2 73 79
2 79 85
2 85 91
2 91 97
2 97 103
2 103 109
2 109 115
2 115 121
2 121 127
2 127 133
2 133 151
2 24 74
2 74 80
2 80 86
2 86 92
2 92 98
2 98 104
2 104 110
2 110 116
2 116 122
2 122 128
2 128 134
2 134 163
2 36 75
2 75 81
2 81 87
2 87 93
2 93 99
2 99 105
2 105 111
2 111 117
2 117 123
2 123 129
2 129 135
2 135 175
2 48 76
2 76 82
2 82 88
2 88 94
2 94 100
2 100 106
2 106 112
2 112 118
2 118 124
2 124 130
2 130 136
2 136 187
2 60 77
2 77 83
2 83 89
2 89 95
2 95 101
2 101 107
2 107 113
2 113 119
2 119 125
2 125 131
2 131 137
2 137 199
2 72 78
2 78 84
2 84 90
2 90 96
2 96 102
2 102 108
2 108 114
2 114 120
2 120 126
2 126 132
2 132 138
2 138 211

CELL_TYPES 216
3
3
3
3
3
3
3
3
3
3
3
3
3
3
3
3
3
3
3
3
3
3
3
3
3
3
3
3
3
3
3
3
3
3
3
3
3
3
3
3
3
3
3
3
3
3
3
3
3
3
3
3
3
3
3
3
3
3
3
3
3
3
3
3
3
3
3
3
3
3
3
3
3
3
3
3
3
3
3
3
3
3
3
3
3
3
3
3
3
3
3
3
3
3
3
3
3
3
3
3
3
3
3
3
3
3
3
3
3
3
3
3
3
3
3
3
3
3
3
3
3
3
3
3
3
3
3
3
3
3
3
3
3
3
3
3
3
3
3
3
3
3
3
3
3
3
3
3
3
3
3
3
3
3
3
3
3
3
3
3
3
3
3
3
3
3
3
3
3
3
3
3
3
3
3
3
3
3
3
3
3
3
3
3
3
3
3
3
3
3
3
3
3
3
3
3
3
3
3
3
3
3
3
3
3
3
3
3
3
3
3
3
3
3
3
3
POINT_DATA 212
FIELD FieldData 8
DISPLACEMENT 3 212  float
0.0000000e+00 0.0000000e+00 0.0000000e+00 
-5.0100189e-05 0.0000000e+00 -2.1424426e-05 
-9.8117176e-05 0.0000000e+00 -4.2703323e-05 
-1.4196776e-04 0.0000000e+00 -6.3836698e-05 
-1.7956873e-04 0.0000000e+00 -8.4824540e-05 
-2.0883689e-04 0.0000000e+00 -1.0566686e-04 
-2.2768904e-04 0.0000000e+00 -1.2636365e-04 
-2.3404199e-04 0.0000000e+00 -1.4691491e-04 
-2.2581250e-04 0.0000000e+00 -1.6732066e-04 
-2.0091741e-04 0.0000000e+00 -1.8758087e-04 
-1.5727349e-04 0.0000000e+00 -2.0769554e-04 
-9.2797549e-05 0.0000000e+00 -2.2766471e-04 
-5.4063767e-06 0.0000000e+00 -2.4748835e-04 
7.3405223e-05 0.0000000e+00 -2.6532990e-04 
1.1529280e-04 0.0000000e+00 -2.8302593e-04 
1.2706513e-04 0.0000000e+00 -3.0057644e-04 
1.1553094e-04 0.0000000e+00 -3.1798141e-04 
8.7498986e-05 0.0000000e+00 -3.3524088e-04 
4.9778017e-05 0.0000000e+00 -3.5235481e-04 
9.1767806e-06 0.0000000e+00 -3.6932321e-04 
-2.7495971e-05 0.0000000e+00 -3.8614607e-04 
-5.3431493e-05 0.0000000e+00 -4.0282341e-04 
-6.1821032e-05 0.0000000e+00 -4.1935523e-04 
-4.5855842e-05 0.0000000e+00 -4.3574153e-04 
1.2728253e-06 0.0000000e+00 -4.5198228e-04 
5.0382569e-05 0.0000000e+00 -4.6624101e-04 
7.1549301e-05 0.0000000e+00 -4.8035415e-04 
7.0469221e-05 0.0000000e+00 -4.9432181e-04 
5.2838557e-05 0.0000000e+00 -5.0814392e-04 
2.4353507e-05 0.0000000e+00 -5.2182050e-04 
-9.2897108e-06 0.0000000e+00 -5.3535157e-04 
-4.2394888e-05 0.0000000e+00 -5.4873712e-04 
-6.9265807e-05 0.0000000e+00 -5.6197710e-04 
-8.4206265e-05 0.0000000e+00 -5.7507161e-04 
-8.1520047e-05 0.0000000e+00 -5.8802054e-04 
-5.5510933e-05 0.0000000e+00 -6.0082396e-04 
-4.8272375e-07 0.0000000e+00 -6.1348185e-04 
5.3794414e-05 0.0000000e+00 -6.2415772e-04 
7.7831595e-05 0.0000000e+00 -6.3468801e-04 
7.7746976e-05 0.0000000e+00 -6.4507278e-04 
5.9658683e-05 0.0000000e+00 -6.5531203e-04 
2.9684878e-05 0.0000000e+00 -6.6540577e-04 
-6.0563025e-06 0.0000000e+00 -6.7535398e-04 
-4.1446710e-05 0.0000000e+00 -6.8515661e-04 
-7.0368194e-05 0.0000000e+00 -6.9481379e-04 
-8.6702617e-05 0.0000000e+00 -7.0432539e-04 
-8.4331834e-05 0.0000000e+00 -7.1369146e-04 
-5.7137695e-05 0.0000000e+00 -7.2291202e-04 
9.9794852e-07 0.0000000e+00 -7.3198706e-04 
6.0686540e-05 0.0000000e+00 -7.3908007e-04 
9.1958005e-05 0.0000000e+00 -7.4602751e-04 
1.0005821e-04 0.0000000e+00 -7.5282942e-04 
9.0233043e-05 0.0000000e+00 -7.5948576e-04 
6.7728353e-05 0.0000000e+00 -7.6599664e-04 
3.7790025e-05 0.0000000e+00 -7.7236199e-04 
5.6639160e-06 0.0000000e+00 -7.7858177e-04 
-2.3404098e-05 0.0000000e+00 -7.8465603e-04 
-4.4168148e-05 0.0000000e+00 -7.9058483e-04 
-5.1382365e-05 0.0000000e+00 -7.9636805e-04 
-3.9800881e-05 0.0000000e+00 -8.0200576e-04 
-4.1778230e-06 0.0000000e+00 -8.0749788e-04 
2.4886087e-05 0.0000000e+00 -8.1100798e-04 
1.9224599e-05 0.0000000e+00 -8.1437256e-04 
-1.2264712e-05 0.0000000e+00 -8.1759162e-04 
-6.0684270e-05 0.0000000e+00 -8.2066515e-04 
-1.1713649e-04 0.0000000e+00 -8.2359312e-04 
-1.7272381e-04 0.0000000e+00 -8.2637562e-04 
-2.1854867e-04 0.0000000e+00 -8.2901254e-04 
-2.4571345e-04 0.0000000e+00 -8.3150394e-04 
-2.4532061e-04 0.0000000e+00 -8.3384983e-04 
-2.0847254e-04 0.0000000e+00 -8.3605020e-04 
-1.2627171e-04 0.0000000e+00 -8.3810504e-04 
1.0179488e-05 0.0000000e+00 -8.4001437e-04 
-4.5053139e-06 0.0000000e+00 -5.5947556e-04 
1.0606877e-06 0.0000000e+00 -7.0060370e-04 
-4.0226982e-07 0.0000000e+00 -8.7394018e-04 
8.3162382e-07 0.0000000e+00 -1.0001624e-03 
-3.4815193e-06 0.0000000e+00 -1.0275422e-03 
8.4829062e-06 0.0000000e+00 -1.2748332e-03 
-3.6042509e-06 0.0000000e+00 -1.0073697e-03 
8.4855020e-07 0.0000000e+00 -1.0966531e-03 
-3.2181583e-07 0.0000000e+00 -1.2796744e-03 
6.6529907e-07 0.0000000e+00 -1.4122104e-03 
-2.7852154e-06 0.0000000e+00 -1.4002102e-03 
6.7863252e-06 0.0000000e+00 -1.8232259e-03 
-2.7031883e-06 0.0000000e+00 -1.4755917e-03 
6.3641266e-07 0.0000000e+00 -1.5245513e-03 
-2.4136187e-07 0.0000000e+00 -1.7151051e-03 
4.9897426e-07 0.0000000e+00 -1.8525521e-03 
-2.0889115e-06 0.0000000e+00 -1.8099230e-03 
5.0897438e-06 0.0000000e+00 -2.3696134e-03 
-1.8021254e-06 0.0000000e+00 -1.8742465e-03 
4.2427510e-07 0.0000000e+00 -1.8944035e-03 
-1.6090793e-07 0.0000000e+00 -2.0903377e-03 
3.3264951e-07 0.0000000e+00 -2.2312924e-03 
-1.3926077e-06 0.0000000e+00 -2.1667855e-03 
3.3931626e-06 0.0000000e+00 -2.8241009e-03 
-9.0106272e-07 0.0000000e+00 -2.1391236e-03 
2.1213755e-07 0.0000000e+00 -2.1419991e-03 
-8.0453965e-08 0.0000000e+00 -2.3411615e-03 
1.6632475e-07 0.0000000e+00 -2.4842208e-03 
-6.9630386e-07 0.0000000e+00 -2.4065874e-03 
1.6965813e-06 0.0000000e+00 -3.1224776e-03 
-1.3588817e-15 0.0000000e+00 -2.2316969e-03 
-1.8574740e-15 0.0000000e+00 -2.2288116e-03 
-2.1336112e-15 0.0000000e+00 -2.4290502e-03 
-2.3809052e-15 0.0000000e+00 -2.5728110e-03 
-2.5755231e-15 0.0000000e+00 -2.4908020e-03 
-2.7526411e-15 0.0000000e+00 -3.2262171e-03 
9.0106272e-07 0.0000000e+00 -2.1391236e-03 
-2.1213756e-07 0.0000000e+00 -2.1419991e-03 
8.0453958e-08 0.0000000e+00 -2.3411615e-03 
-1.6632477e-07 0.0000000e+00 -2.4842208e-03 
6.9630386e-07 0.0000000e+00 -2.4065874e-03 
-1.6965813e-06 0.0000000e+00 -3.1224776e-03 
1.8021254e-06 0.0000000e+00 -1.8742465e-03 
-4.2427510e-07 0.0000000e+00 -1.8944035e-03 
1.6090792e-07 0.0000000e+00 -2.0903377e-03 
-3.3264953e-07 0.0000000e+00 -2.2312924e-03 
1.3926077e-06 0.0000000e+00 -2.1667855e-03 
-3.3931626e-06 0.0000000e+00 -2.8241009e-03 
2.7031883e-06 0.0000000e+00 -1.4755917e-03 
-6.3641266e-07 0.0000000e+00 -1.5245513e-03 
2.4136187e-07 0.0000000e+00 -1.7151051e-03 
-4.9897426e-07 0.0000000e+00 -1.8525521e-03 
2.0889115e-06 0.0000000e+00 -1.8099230e-03 
-5.0897438e-06 0.0000000e+00 -2.3696134e-03 
3.6042509e-06 0.0000000e+00 -1.0073697e-03 
-8.4855020e-07 0.0000000e+00 -1.0966531e-03 
3.2181583e-07 0.0000000e+00 -1.2796744e-03 
-6.6529907e-07 0.0000000e+00 -1.4122104e-03 
2.7852154e-06 0.0000000e+00 -1.4002102e-03 
-6.7863252e-06 0.0000000e+00 -1.8232259e-03 
4.5053139e-06 0.0000000e+00 -5.5947556e-04 
-1.0606877e-06 0.0000000e+00 -7.0060370e-04 
4.0226979e-07 0.0000000e+00 -8.7394018e-04 
-8.3162382e-07 0.0000000e+00 -1.0001624e-03 
3.4815193e-06 0.0000000e+00 -1.0275422e-03 
-8.4829062e-06 0.0000000e+00 -1.2748332e-03 
0.0000000e+00 0.0000000e+00 0.0000000e+00 
5.0100189e-05 0.0000000e+00 -2.1424426e-05 
9.8117176e-05 0.0000000e+00 -4.2703323e-05 
1.4196776e-04 0.0000000e+00 -6.3836698e-05 
1.7956873e-04 0.0000000e+00 -8.4824540e-05 
2.0883689e-04 0.0000000e+00 -1.0566686e-04 
2.2768904e-04 0.0000000e+00 -1.2636365e-04 
2.3404199e-04 0.0000000e+00 -1.4691491e-04 
2.2581250e-04 0.0000000e+00 -1.6732066e-04 
2.0091741e-04 0.0000000e+00 -1.8758087e-04 
1.5727349e-04 0.0000000e+00 -2.0769554e-04 
9.2797549e-05 0.0000000e+00 -2.2766471e-04 
5.4063767e-06 0.0000000e+00 -2.4748835e-04 
-7.3405223e-05 0.0000000e+00 -2.6532990e-04 
-1.1529280e-04 0.0000000e+00 -2.8302593e-04 
-1.2706513e-04 0.0000000e+00 -3.0057644e-04 
-1.1553094e-04 0.0000000e+00 -3.1798141e-04 
-8.7498986e-05 0.0000000e+00 -3.3524088e-04 
-4.9778017e-05 0.0000000e+00 -3.5235481e-04 
-9.1767806e-06 0.0000000e+00 -3.6932321e-04 
2.7495971e-05 0.0000000e+00 -3.8614607e-04 
5.3431493e-05 0.0000000e+00 -4.0282341e-04 
6.1821032e-05 0.0000000e+00 -4.1935523e-04 
4.5855842e-05 0.0000000e+00 -4.3574153e-04 
-1.2728253e-06 0.0000000e+00 -4.5198228e-04 
-5.0382569e-05 0.0000000e+00 -4.6624101e-04 
-7.1549301e-05 0.0000000e+00 -4.8035415e-04 
-7.0469221e-05 0.0000000e+00 -4.9432181e-04 
-5.2838557e-05 0.0000000e+00 -5.0814392e-04 
-2.4353507e-05 0.0000000e+00 -5.2182050e-04 
9.2897108e-06 0.0000000e+00 -5.3535157e-04 
4.2394888e-05 0.0000000e+00 -5.4873712e-04 
6.9265807e-05 0.0000000e+00 -5.6197710e-04 
8.4206265e-05 0.0000000e+00 -5.7507161e-04 
8.1520047e-05 0.0000000e+00 -5.8802054e-04 
5.5510933e-05 0.0000000e+00 -6.0082396e-04 
4.8272375e-07 0.0000000e+00 -6.1348185e-04 
-5.3794414e-05 0.0000000e+00 -6.2415772e-04 
-7.7831595e-05 0.0000000e+00 -6.3468801e-04 
-7.7746976e-05 0.0000000e+00 -6.4507278e-04 
-5.9658683e-05 0.0000000e+00 -6.5531203e-04 
-2.9684878e-05 0.0000000e+00 -6.6540577e-04 
6.0563025e-06 0.0000000e+00 -6.7535398e-04 
4.1446710e-05 0.0000000e+00 -6.8515661e-04 
7.0368194e-05 0.0000000e+00 -6.9481379e-04 
8.6702617e-05 0.0000000e+00 -7.0432539e-04 
8.4331834e-05 0.0000000e+00 -7.1369146e-04 
5.7137695e-05 0.0000000e+00 -7.2291202e-04 
-9.9794852e-07 0.0000000e+00 -7.3198706e-04 
-6.0686540e-05 0.0000000e+00 -7.3908007e-04 
-9.1958005e-05 0.0000000e+00 -7.4602751e-04 
-1.0005821e-04 0.0000000e+00 -7.5282942e-04 
-9.0233043e-05 0.0000000e+00 -7.5948576e-04 
-6.7728353e-05 0.0000000e+00 -7.6599664e-04 
-3.7790025e-05 0.0000000e+00 -7.7236199e-04 
-5.6639160e-06 0.0000000e+00 -7.7858177e-04 
2.3404098e-05 0.0000000e+00 -7.8465603e-04 
4.4168148e-05 0.0000000e+00 -7.9058483e-04 
5.1382365e-05 0.0000000e+00 -7.9636805e-04 
3.9800881e-05 0.0000000e+00 -8.0200576e-04 
4.1778230e-06 0.0000000e+00 -8.0749788e-04 
-2.4886087e-05 0.0000000e+00 -8.1100798e-04 
-1.9224599e-05 0.0000000e+00 -8.1437256e-04 
1.2264712e-05 0.0000000e+00 -8.1759162e-04 
6.0684270e-05 0.0000000e+00 -8.2066515e-04 
1.1713649e-04 0.0000000e+00 -8.2359312e-04 
1.7272381e-04 0.0000000e+00 -8.2637562e-04 
2.1854867e-04 0.0000000e+00 -8.2901254e-04 
2.4571345e-04 0.0000000e+00 -8.3150394e-04 
2.4532061e-04 0.0000000e+00 -8.3384983e-04 
2.0847254e-04 0.0000000e+00 -8.3605020e-04 
1.2627171e-04 0.0000000e+00 -8.3810504e-04 
-1.0179488e-05 0.0000000e+00 -8.4001437e-04 
ROTATION 3 212  float
0.0000000e+00 -2.0178956e-04 0.0000000e+00 
0.0000000e+00 -1.9762316e-04 0.0000000e+00 
0.0000000e+00 -1.8512394e-04 0.0000000e+00 
0.0000000e+00 -1.6429191e-04 0.0000000e+00 
0.0000000e+00 -1.3512708e-04 0.0000000e+00 
0.0000000e+00 -9.7629440e-05 0.0000000e+00 
0.0000000e+00 -5.1798983e-05 0.0000000e+00 
0.0000000e+00 2.3642795e-06 0.0000000e+00 
0.0000000e+00 6.4860353e-05 0.0000000e+00 
0.0000000e+00 1.3568923e-04 0.0000000e+00 
0.0000000e+00 2.1485092e-04 0.0000000e+00 
0.0000000e+00 3.0234543e-04 0.0000000e+00 
0.0000000e+00 3.9817274e-04 0.0000000e+00 
0.0000000e+00 2.3685920e-04 0.0000000e+00 
0.0000000e+00 1.0278065e-04 0.0000000e+00 
0.0000000e+00 -4.0628984e-06 0.0000000e+00 
0.0000000e+00 -8.3671453e-05 0.0000000e+00 
0.0000000e+00 -1.3604501e-04 0.0000000e+00 
0.0000000e+00 -1.6118358e-04 0.0000000e+00 
0.0000000e+00 -1.5908714e-04 0.0000000e+00 
0.0000000e+00 -1.2975572e-04 0.0000000e+00 
0.0000000e+00 -7.3189287e-05 0.0000000e+00 
0.0000000e+00 1.0612132e-05 0.0000000e+00 
0.0000000e+00 1.2164855e-04 0.0000000e+00 
0.0000000e+00 2.5991997e-04 0.0000000e+00 
0.0000000e+00 1.3675548e-04 0.0000000e+00 
0.0000000e+00 3.6375834e-05 0.0000000e+00 
0.0000000e+00 -4.1218962e-05 0.0000000e+00 
0.0000000e+00 -9.6028911e-05 0.0000000e+00 
0.0000000e+00 -1.2805400e-04 0.0000000e+00 
0.0000000e+00 -1.3729426e-04 0.0000000e+00 
0.0000000e+00 -1.2374968e-04 0.0000000e+00 
0.0000000e+00 -8.7420231e-05 0.0000000e+00 
0.0000000e+00 -2.8305945e-05 0.0000000e+00 
0.0000000e+00 5.3593187e-05 0.0000000e+00 
0.0000000e+00 1.5827717e-04 0.0000000e+00 
0.0000000e+00 2.8574601e-04 0.0000000e+00 
0.0000000e+00 1.5254988e-04 0.0000000e+00 
0.0000000e+00 4.3826352e-05 0.0000000e+00 
0.0000000e+00 -4.0424591e-05 0.0000000e+00 
0.0000000e+00 -1.0020295e-04 0.0000000e+00 
0.0000000e+00 -1.3550874e-04 0.0000000e+00 
0.0000000e+00 -1.4634193e-04 0.0000000e+00 
0.0000000e+00 -1.3270255e-04 0.0000000e+00 
0.0000000e+00 -9.4590585e-05 0.0000000e+00 
0.0000000e+00 -3.2006039e-05 0.0000000e+00 
0.0000000e+00 5.5051092e-05 0.0000000e+00 
0.0000000e+00 1.6658081e-04 0.0000000e+00 
0.0000000e+00 3.0258310e-04 0.0000000e+00 
0.0000000e+00 1.7842287e-04 0.0000000e+00 
0.0000000e+00 7.5246113e-05 0.0000000e+00 
0.0000000e+00 -6.9471671e-06 0.0000000e+00 
0.0000000e+00 -6.8156965e-05 0.0000000e+00 
0.0000000e+00 -1.0838328e-04 0.0000000e+00 
0.0000000e+00 -1.2762613e-04 0.0000000e+00 
0.0000000e+00 -1.2588549e-04 0.0000000e+00 
0.0000000e+00 -1.0316137e-04 0.0000000e+00 
0.0000000e+00 -5.9453781e-05 0.0000000e+00 
0.0000000e+00 5.2372893e-06 0.0000000e+00 
0.0000000e+00 9.0911839e-05 0.0000000e+00 
0.0000000e+00 1.9756987e-04 0.0000000e+00 
0.0000000e+00 4.0873125e-05 0.0000000e+00 
0.0000000e+00 -8.0233316e-05 0.0000000e+00 
0.0000000e+00 -1.6574946e-04 0.0000000e+00 
0.0000000e+00 -2.1567529e-04 0.0000000e+00 
0.0000000e+00 -2.3001082e-04 0.0000000e+00 
0.0000000e+00 -2.0875604e-04 0.0000000e+00 
0.0000000e+00 -1.5191096e-04 0.0000000e+00 
0.0000000e+00 -5.9475595e-05 0.0000000e+00 
0.0000000e+00 6.8550085e-05 0.0000000e+00 
0.0000000e+00 2.3216607e-04 0.0000000e+00 
0.0000000e+00 4.3137235e-04 0.0000000e+00 
0.0000000e+00 6.6616893e-04 0.0000000e+00 
0.0000000e+00 8.0268848e-04 0.0000000e+00 
0.0000000e+00 6.8747782e-04 0.0000000e+00 
0.0000000e+00 7.0899952e-04 0.0000000e+00 
0.0000000e+00 7.2303042e-04 0.0000000e+00 
0.0000000e+00 6.3551939e-04 0.0000000e+00 
0.0000000e+00 1.0260186e-03 0.0000000e+00 
0.0000000e+00 9.5036172e-04 0.0000000e+00 
0.0000000e+00 8.5819321e-04 0.0000000e+00 
0.0000000e+00 8.7541057e-04 0.0000000e+00 
0.0000000e+00 8.8663533e-04 0.0000000e+00 
0.0000000e+00 8.1662647e-04 0.0000000e+00 
0.0000000e+00 1.1290258e-03 0.0000000e+00 
0.0000000e+00 8.9256105e-04 0.0000000e+00 
0.0000000e+00 8.2343462e-04 0.0000000e+00 
0.0000000e+00 8.3634764e-04 0.0000000e+00 
0.0000000e+00 8.4476621e-04 0.0000000e+00 
0.0000000e+00 7.9225958e-04 0.0000000e+00 
0.0000000e+00 1.0265592e-03 0.0000000e+00 
0.0000000e+00 6.8065483e-04 0.0000000e+00 
0.0000000e+00 6.3457061e-04 0.0000000e+00 
0.0000000e+00 6.4317929e-04 0.0000000e+00 
0.0000000e+00 6.4879161e-04 0.0000000e+00 
0.0000000e+00 6.1378721e-04 0.0000000e+00 
0.0000000e+00 7.6998689e-04 0.0000000e+00 
0.0000000e+00 3.6601166e-04 0.0000000e+00 
0.0000000e+00 3.4296955e-04 0.0000000e+00 
0.0000000e+00 3.4727389e-04 0.0000000e+00 
0.0000000e+00 3.5008005e-04 0.0000000e+00 
0.0000000e+00 3.3257785e-04 0.0000000e+00 
0.0000000e+00 4.1067769e-04 0.0000000e+00 
0.0000000e+00 1.0401993e-16 0.0000000e+00 
0.0000000e+00 5.0948539e-17 0.0000000e+00 
0.0000000e+00 3.6088550e-17 0.0000000e+00 
0.0000000e+00 2.9719981e-17 0.0000000e+00 
0.0000000e+00 4.0334260e-17 0.0000000e+00 
0.0000000e+00 2.3699436e-17 0.0000000e+00 
0.0000000e+00 -3.6601166e-04 0.0000000e+00 
0.0000000e+00 -3.4296955e-04 0.0000000e+00 
0.0000000e+00 -3.4727389e-04 0.0000000e+00 
0.0000000e+00 -3.5008005e-04 0.0000000e+00 
0.0000000e+00 -3.3257785e-04 0.0000000e+00 
0.0000000e+00 -4.1067769e-04 0.0000000e+00 
0.0000000e+00 -6.8065483e-04 0.0000000e+00 
0.0000000e+00 -6.3457061e-04 0.0000000e+00 
0.0000000e+00 -6.4317929e-04 0.0000000e+00 
0.0000000e+00 -6.4879161e-04 0.0000000e+00 
0.0000000e+00 -6.1378721e-04 0.0000000e+00 
0.0000000e+00 -7.6998689e-04 0.0000000e+00 
0.0000000e+00 -8.9256105e-04 0.0000000e+00 
0.0000000e+00 -8.2343462e-04 0.0000000e+00 
0.0000000e+00 -8.3634764e-04 0.0000000e+00 
0.0000000e+00 -8.4476621e-04 0.0000000e+00 
0.0000000e+00 -7.9225958e-04 0.0000000e+00 
0.0000000e+00 -1.0265592e-03 0.0000000e+00 
0.0000000e+00 -9.5036172e-04 0.0000000e+00 
0.0000000e+00 -8.5819321e-04 0.0000000e+00 
0.0000000e+00 -8.7541057e-04 0.0000000e+00 
0.0000000e+00 -8.8663533e-04 0.0000000e+00 
0.0000000e+00 -8.1662647e-04 0.0000000e+00 
0.0000000e+00 -1.1290258e-03 0.0000000e+00 
0.0000000e+00 -8.0268848e-04 0.0000000e+00 
0.0000000e+00 -6.8747782e-04 0.0000000e+00 
0.0000000e+00 -7.0899952e-04 0.0000000e+00 
0.0000000e+00 -7.2303042e-04 0.0000000e+00 
0.0000000e+00 -6.3551939e-04 0.0000000e+00 
0.0000000e+00 -1.0260186e-03 0.0000000e+00 
0.0000000e+00 2.0178956e-04 0.0000000e+00 
0.0000000e+00 1.9762316e-04 0.0000000e+00 
0.0000000e+00 1.8512394e-04 0.0000000e+00 
0.0000000e+00 1.6429191e-04 0.0000000e+00 
0.0000000e+00 1.3512708e-04 0.0000000e+00 
0.0000000e+00 9.7629440e-05 0.0000000e+00 
0.0000000e+00 5.1798983e-05 0.0000000e+00 
0.0000000e+00 -2.3642795e-06 0.0000000e+00 
0.0000000e+00 -6.4860353e-05 0.0000000e+00 
0.0000000e+00 -1.3568923e-04 0.0000000e+00 
0.0000000e+00 -2.1485092e-04 0.0000000e+00 
0.0000000e+00 -3.0234543e-04 0.0000000e+00 
0.0000000e+00 -3.9817274e-04 0.0000000e+00 
0.0000000e+00 -2.3685920e-04 0.0000000e+00 
0.0000000e+00 -1.0278065e-04 0.0000000e+00 
0.0000000e+00 4.0628984e-06 0.0000000e+00 
0.0000000e+00 8.3671453e-05 0.0000000e+00 
0.0000000e+00 1.3604501e-04 0.0000000e+00 
0.0000000e+00 1.6118358e-04 0.0000000e+00 
0.0000000e+00 1.5908714e-04 0.0000000e+00 
0.0000000e+00 1.2975572e-04 0.0000000e+00 
0.0000000e+00 7.3189287e-05 0.0000000e+00 
0.0000000e+00 -1.0612132e-05 0.0000000e+00 
0.0000000e+00 -1.2164855e-04 0.0000000e+00 
0.0000000e+00 -2.5991997e-04 0.0000000e+00 
0.0000000e+00 -1.3675548e-04 0.0000000e+00 
0.0000000e+00 -3.6375834e-05 0.0000000e+00 
0.0000000e+00 4.1218962e-05 0.0000000e+00 
0.0000000e+00 9.6028911e-05 0.0000000e+00 
0.0000000e+00 1.2805400e-04 0.0000000e+00 
0.0000000e+00 1.3729426e-04 0.0000000e+00 
0.0000000e+00 1.2374968e-04 0.0000000e+00 
0.0000000e+00 8.7420231e-05 0.0000000e+00 
0.0000000e+00 2.8305945e-05 0.0000000e+00 
0.0000000e+00 -5.3593187e-05 0.0000000e+00 
0.0000000e+00 -1.5827717e-04 0.0000000e+00 
0.0000000e+00 -2.8574601e-04 0.0000000e+00 
0.0000000e+00 -1.5254988e-04 0.0000000e+00 
0.0000000e+00 -4.3826352e-05 0.0000000e+00 
0.0000000e+00 4.0424591e-05 0.0000000e+00 
0.0000000e+00 1.0020295e-04 0.0000000e+00 
0.0000000e+00 1.3550874e-04 0.0000000e+00 
0.0000000e+00 1.4634193e-04 0.0000000e+00 
0.0000000e+00 1.3270255e-04 0.0000000e+00 
0.0000000e+00 9.4590585e-05 0.0000000e+00 
0.0000000e+00 3.2006039e-05 0.0000000e+00 
0.0000000e+00 -5.5051092e-05 0.0000000e+00 
0.0000000e+00 -1.6658081e-04 0.0000000e+00 
0.0000000e+00 -3.0258310e-04 0.0000000e+00 
0.0000000e+00 -1.7842287e-04 0.0000000e+00 
0.0000000e+00 -7.5246113e-05 0.0000000e+00 
0.0000000e+00 6.9471671e-06 0.0000000e+00 
0.0000000e+00 6.8156965e-05 0.0000000e+00 
0.0000000e+00 1.0838328e-04 0.0000000e+00 
0.0000000e+00 1.2762613e-04 0.0000000e+00 
0.0000000e+00 1.2588549e-04 0.0000000e+00 
0.0000000e+00 1.0316137e-04 0.0000000e+00 
0.0000000e+00 5.9453781e-05 0.0000000e+00 
0.0000000e+00 -5.2372893e-06 0.0000000e+00 
0.0000000e+00 -9.0911839e-05 0.0000000e+00 
0.0000000e+00 -1.9756987e-04 0.0000000e+00 
0.0000000e+00 -4.0873125e-05 0.0000000e+00 
0.0000000e+00 8.0233316e-05 0.0000000e+00 
0.0000000e+00 1.6574946e-04 0.0000000e+00 
0.0000000e+00 2.1567529e-04 0.0000000e+00 