# vtk DataFile Version 4.0
vtk output
ASCII
DATASET UNSTRUCTURED_GRID
POINTS 10 float
0.0000000e+00 0.0000000e+00 0.0000000e+00 
6.6666669e-01 0.0000000e+00 0.0000000e+00 
1.3333334e+00 0.0000000e+00 0.0000000e+00 
2.0000000e+00 0.0000000e+00 0.0000000e+00 
2.2222222e-01 0.0000000e+00 0.0000000e+00 
4.4444445e-01 0.0000000e+00 0.0000000e+00 
8.8888890e-01 0.0000000e+00 0.0000000e+00 
1.1111112e+00 0.0000000e+00 0.0000000e+00 
1.5555556e+00 0.0000000e+00 0.0000000e+00 
1.7777778e+00 0.0000000e+00 0.0000000e+00 

CELLS 9 27
2 0 4
2 4 5
2 5 1
2 1 6
2 6 7
2 7 2
2 2 8
2 8 9
2 9 3

CELL_TYPES 9
3
3
3
3
3
3
3
3
3
POINT_DATA 10
FIELD FieldData 6
DISPLACEMENT 3 10  float
0.0000000e+00 0.0000000e+00 0.0000000e+00 
0.0000000e+00 -3.1354107e-04 0.0000000e+00 
0.0000000e+00 -3.1354107e-04 0.0000000e+00 
0.0000000e+00 0.0000000e+00 0.0000000e+00 
0.0000000e+00 -6.1934035e-05 0.0000000e+00 
0.0000000e+00 -1.8967298e-04 0.0000000e+00 
0.0000000e+00 -3.8708773e-04 0.0000000e+00 
0.0000000e+00 -3.8708773e-04 0.0000000e+00 
0.0000000e+00 -1.8967298e-04 0.0000000e+00 
0.0000000e+00 -6.1934035e-05 0.0000000e+00 
REACTION 3 10  float
-2.0930134e+01 1.0000004e+04 0.0000000e+00 
5.8879841e+01 -2.8005840e-02 0.0000000e+00 
-5.8879841e+01 -2.8005840e-02 0.0000000e+00 
2.0930134e+01 1.0000004e+04 0.0000000e+00 
-7.4810966e+01 3.4724850e-02 0.0000000e+00 
4.5884995e+00 -2.2519147e-03 0.0000000e+00 
3.2272758e+01 -7.4570635e-03 0.0000000e+00 
-3.2272758e+01 -7.4570635e-03 0.0000000e+00 
-4.5884995e+00 -2.1409846e-03 0.0000000e+00 
7.4810966e+01 3.4613919e-02 0.0000000e+00 
ROTATION 3 10  float
0.0000000e+00 0.0000000e+00 0.0000000e+00 
0.0000000e+00 0.0000000e+00 -4.7031158e-04 
0.0000000e+00 0.0000000e+00 4.7031158e-04 
0.0000000e+00 0.0000000e+00 0.0000000e+00 
0.0000000e+00 0.0000000e+00 -4.8773052e-04 
0.0000000e+00 0.0000000e+00 -6.0966314e-04 
0.0000000e+00 0.0000000e+00 -1.7418948e-04 
0.0000000e+00 0.0000000e+00 1.7418948e-04 
0.0000000e+00 0.0000000e+00 6.0966314e-04 
0.0000000e+00 0.0000000e+00 4.8773052e-04 
REACTION_MOMENT 3 10  float
0.0000000e+00 0.0000000e+00 3.2921809e+03 
0.0000000e+00 0.0000000e+00 -1.9889248e-03 
0.0000000e+00 0.0000000e+00 1.9889248e-03 
0.0000000e+00 0.0000000e+00 -3.2921809e+03 
0.0000000e+00 0.0000000e+00 -2.0628381e-03 
0.0000000e+00 0.0000000e+00 -3.7935297e-03 
0.0000000e+00 0.0000000e+00 -2.4707342e-04 
0.0000000e+00 0.0000000e+00 2.4707339e-04 
0.0000000e+00 0.0000000e+00 3.8058553e-03 
0.0000000e+00 0.0000000e+00 2.0751636e-03 
FORCE 3 10  float
2.3407495e+01 -8.8888867e+03 0.0000000e+00 
6.3319099e+01 -3.3333240e+03 0.0000000e+00 
6.3319099e+01 3.3333240e+03 0.0000000e+00 
2.3407495e+01 8.8888867e+03 0.0000000e+00 
6.1490387e+01 -7.7777676e+03 0.0000000e+00 
9.6601624e+01 -5.5555386e+03 0.0000000e+00 
1.6504114e+01 -1.1111095e+03 0.0000000e+00 
1.6504114e+01 1.1111095e+03 0.0000000e+00 
9.6601624e+01 5.5555386e+03 0.0000000e+00 
6.1490387e+01 7.7777676e+03 0.0000000e+00 
MOMENT 3 10  float
0.0000000e+00 0.0000000e+00 2.5170361e+03 
0.0000000e+00 0.0000000e+00 -1.0553702e+03 
0.0000000e+00 0.0000000e+00 -1.0553702e+03 
0.0000000e+00 0.0000000e+00 2.5170361e+03 
0.0000000e+00 0.0000000e+00 1.4137655e+03 
0.0000000e+00 0.0000000e+00 -6.7715919e+01 
0.0000000e+00 0.0000000e+00 -1.5491974e+03 
0.0000000e+00 0.0000000e+00 -1.5491974e+03 
0.0000000e+00 0.0000000e+00 -6.7715919e+01 
0.0000000e+00 0.0000000e+00 1.4137655e+03 
CELL_DATA 9
FIELD FieldData 2
FORCE 3 9  float
2.3407495e+01 -8.8888867e+03 0.0000000e+00 
9.9573273e+01 -6.6666489e+03 0.0000000e+00 
9.3629967e+01 -4.4444287e+03 0.0000000e+00 
3.3008224e+01 -2.2222190e+03 0.0000000e+00 
0.0000000e+00 0.0000000e+00 0.0000000e+00 
3.3008224e+01 2.2222190e+03 0.0000000e+00 
9.3629967e+01 4.4444287e+03 0.0000000e+00 
9.9573273e+01 6.6666489e+03 0.0000000e+00 
2.3407495e+01 8.8888867e+03 0.0000000e+00 
MOMENT 3 9  float
0.0000000e+00 0.0000000e+00 2.3045269e+03 
0.0000000e+00 0.0000000e+00 5.7613184e+02 
0.0000000e+00 0.0000000e+00 -6.5843634e+02 
0.0000000e+00 0.0000000e+00 -1.3991770e+03 
0.0000000e+00 0.0000000e+00 -1.6460906e+03 
0.0000000e+00 0.0000000e+00 -1.3991770e+03 
0.0000000e+00 0.0000000e+00 -6.5843634e+02 
0.0000000e+00 0.0000000e+00 5.7613184e+02 
0.0000000e+00 0.0000000e+00 2.3045269e+03 
