# vtk DataFile Version 4.0
vtk output
ASCII
DATASET UNSTRUCTURED_GRID
POINTS 9 float
0.0000000e+00 0.0000000e+00 0.0000000e+00 
5.0000000e-01 0.0000000e+00 0.0000000e+00 
1.0000000e+00 0.0000000e+00 0.0000000e+00 
1.5000000e+00 0.0000000e+00 0.0000000e+00 
2.0000000e+00 0.0000000e+00 0.0000000e+00 
2.5000000e+00 0.0000000e+00 0.0000000e+00 
3.0000000e+00 0.0000000e+00 0.0000000e+00 
3.5000000e+00 0.0000000e+00 0.0000000e+00 
4.0000000e+00 0.0000000e+00 0.0000000e+00 

CELLS 8 24
2 0 1
2 1 2
2 2 3
2 3 4
2 4 5
2 5 6
2 6 7
2 7 8

CELL_TYPES 8
3
3
3
3
3
3
3
3
POINT_DATA 9
FIELD FieldData 7
DISPLACEMENT 3 9  float
0.0000000e+00 0.0000000e+00 0.0000000e+00 
0.0000000e+00 0.0000000e+00 -1.0208333e+01 
0.0000000e+00 0.0000000e+00 -3.0000000e+01 
0.0000000e+00 0.0000000e+00 -4.6875000e+01 
0.0000000e+00 0.0000000e+00 -5.3333332e+01 
0.0000000e+00 0.0000000e+00 -4.6875000e+01 
0.0000000e+00 0.0000000e+00 -3.0000000e+01 
0.0000000e+00 0.0000000e+00 -1.0208333e+01 
0.0000000e+00 0.0000000e+00 0.0000000e+00 
ROTATION 3 9  float
0.0000000e+00 0.0000000e+00 0.0000000e+00 
0.0000000e+00 3.5000000e+01 0.0000000e+00 
0.0000000e+00 4.0000000e+01 0.0000000e+00 
0.0000000e+00 2.5000000e+01 0.0000000e+00 
0.0000000e+00 3.3684989e-14 0.0000000e+00 
0.0000000e+00 -2.5000000e+01 0.0000000e+00 
0.0000000e+00 -4.0000000e+01 0.0000000e+00 
0.0000000e+00 -3.5000000e+01 0.0000000e+00 
0.0000000e+00 0.0000000e+00 0.0000000e+00 
REACTION 3 9  float
-0.0000000e+00 -0.0000000e+00 1.8000000e+02 
-0.0000000e+00 -0.0000000e+00 -0.0000000e+00 
-0.0000000e+00 -0.0000000e+00 -2.2737368e-13 
-0.0000000e+00 -0.0000000e+00 3.2684966e-13 
-0.0000000e+00 -0.0000000e+00 -5.5422333e-13 
-0.0000000e+00 -0.0000000e+00 -4.5474735e-13 
-0.0000000e+00 -0.0000000e+00 6.8212103e-13 
-0.0000000e+00 -0.0000000e+00 -1.3642421e-12 
-0.0000000e+00 -0.0000000e+00 1.8000000e+02 
REACTION_MOMENT 3 9  float
-0.0000000e+00 -1.0500000e+02 -0.0000000e+00 
-0.0000000e+00 -5.6843419e-13 -0.0000000e+00 
-0.0000000e+00 2.9842795e-13 -0.0000000e+00 
-0.0000000e+00 -2.9132252e-13 -0.0000000e+00 
-0.0000000e+00 -2.5579538e-13 -0.0000000e+00 
-0.0000000e+00 5.6843419e-14 -0.0000000e+00 
-0.0000000e+00 -6.5369932e-13 -0.0000000e+00 
-0.0000000e+00 -2.2737368e-13 -0.0000000e+00 
-0.0000000e+00 1.0500000e+02 -0.0000000e+00 
POINT_LOAD 3 9  float
0.0000000e+00 0.0000000e+00 -4.0000000e+01 
0.0000000e+00 0.0000000e+00 -4.0000000e+01 
0.0000000e+00 0.0000000e+00 -4.0000000e+01 
0.0000000e+00 0.0000000e+00 -4.0000000e+01 
0.0000000e+00 0.0000000e+00 -4.0000000e+01 
0.0000000e+00 0.0000000e+00 -4.0000000e+01 
0.0000000e+00 0.0000000e+00 -4.0000000e+01 
0.0000000e+00 0.0000000e+00 -4.0000000e+01 
0.0000000e+00 0.0000000e+00 -4.0000000e+01 
POINT_LOAD 3 9  float
0.0000000e+00 0.0000000e+00 -4.0000000e+01 
0.0000000e+00 0.0000000e+00 -4.0000000e+01 
0.0000000e+00 0.0000000e+00 -4.0000000e+01 
0.0000000e+00 0.0000000e+00 -4.0000000e+01 
0.0000000e+00 0.0000000e+00 -4.0000000e+01 
0.0000000e+00 0.0000000e+00 -4.0000000e+01 
0.0000000e+00 0.0000000e+00 -4.0000000e+01 
0.0000000e+00 0.0000000e+00 -4.0000000e+01 
0.0000000e+00 0.0000000e+00 -4.0000000e+01 
POINT_MOMENT 3 9  float
0.0000000e+00 0.0000000e+00 0.0000000e+00 
0.0000000e+00 0.0000000e+00 0.0000000e+00 
0.0000000e+00 0.0000000e+00 0.0000000e+00 
0.0000000e+00 0.0000000e+00 0.0000000e+00 
0.0000000e+00 0.0000000e+00 0.0000000e+00 
0.0000000e+00 0.0000000e+00 0.0000000e+00 
0.0000000e+00 0.0000000e+00 0.0000000e+00 
0.0000000e+00 0.0000000e+00 0.0000000e+00 
0.0000000e+00 0.0000000e+00 0.0000000e+00 
CELL_DATA 8
FIELD FieldData 9
YOUNG_MODULUS 1 8  float
1.0000000e+00
1.0000000e+00
1.0000000e+00
1.0000000e+00
1.0000000e+00
1.0000000e+00
1.0000000e+00
1.0000000e+00
DENSITY 1 8  float
7.8500000e+03
7.8500000e+03
7.8500000e+03
7.8500000e+03
7.8500000e+03
7.8500000e+03
7.8500000e+03
7.8500000e+03
CROSS_AREA 1 8  float
1.0000000e+00
1.0000000e+00
1.0000000e+00
1.0000000e+00
1.0000000e+00
1.0000000e+00
1.0000000e+00
1.0000000e+00
I22 1 8  float
1.0000000e+00
1.0000000e+00
1.0000000e+00
1.0000000e+00
1.0000000e+00
1.0000000e+00
1.0000000e+00
1.0000000e+00
I33 1 8  float
1.0000000e+00
1.0000000e+00
1.0000000e+00
1.0000000e+00
1.0000000e+00
1.0000000e+00
1.0000000e+00
1.0000000e+00
TORSIONAL_INERTIA 1 8  float
1.0000000e+00
1.0000000e+00
1.0000000e+00
1.0000000e+00
1.0000000e+00
1.0000000e+00
1.0000000e+00
1.0000000e+00
POISSON_RATIO 1 8  float
3.0000001e-01
3.0000001e-01
3.0000001e-01
3.0000001e-01
3.0000001e-01
3.0000001e-01
3.0000001e-01
3.0000001e-01
MOMENT 3 8  float
0.0000000e+00 7.0000000e+01 0.0000000e+00 
0.0000000e+00 1.0000000e+01 0.0000000e+00 
0.0000000e+00 -3.0000000e+01 0.0000000e+00 
0.0000000e+00 -5.0000000e+01 0.0000000e+00 
0.0000000e+00 -5.0000000e+01 0.0000000e+00 
0.0000000e+00 -3.0000000e+01 0.0000000e+00 
0.0000000e+00 1.0000000e+01 0.0000000e+00 
0.0000000e+00 7.0000000e+01 0.0000000e+00 
FORCE 3 8  float
0.0000000e+00 0.0000000e+00 -1.4000000e+02 
0.0000000e+00 0.0000000e+00 -1.0000000e+02 
0.0000000e+00 0.0000000e+00 -6.0000000e+01 
0.0000000e+00 0.0000000e+00 -2.0000000e+01 
0.0000000e+00 0.0000000e+00 2.0000000e+01 
0.0000000e+00 0.0000000e+00 6.0000000e+01 
0.0000000e+00 0.0000000e+00 1.0000000e+02 
0.0000000e+00 0.0000000e+00 1.4000000e+02 
