# vtk DataFile Version 4.0
vtk output
ASCII
DATASET UNSTRUCTURED_GRID
POINTS 86 float
0.0000000e+00 0.0000000e+00 0.0000000e+00 
0.0000000e+00 0.0000000e+00 6.0000002e-01 
0.0000000e+00 0.0000000e+00 1.2000000e+00 
0.0000000e+00 0.0000000e+00 1.8000000e+00 
0.0000000e+00 0.0000000e+00 2.4000001e+00 
0.0000000e+00 0.0000000e+00 3.0000000e+00 
0.0000000e+00 0.0000000e+00 3.5999999e+00 
0.0000000e+00 0.0000000e+00 4.1999998e+00 
0.0000000e+00 0.0000000e+00 4.8000002e+00 
0.0000000e+00 0.0000000e+00 5.4000001e+00 
0.0000000e+00 0.0000000e+00 6.0000000e+00 
0.0000000e+00 0.0000000e+00 6.5999999e+00 
0.0000000e+00 0.0000000e+00 7.1999998e+00 
0.0000000e+00 0.0000000e+00 7.8000002e+00 
0.0000000e+00 0.0000000e+00 8.3999996e+00 
0.0000000e+00 0.0000000e+00 9.0000000e+00 
0.0000000e+00 0.0000000e+00 9.6000004e+00 
0.0000000e+00 0.0000000e+00 1.0200000e+01 
0.0000000e+00 0.0000000e+00 1.0800000e+01 
0.0000000e+00 0.0000000e+00 1.1400000e+01 
0.0000000e+00 0.0000000e+00 1.2000000e+01 
0.0000000e+00 0.0000000e+00 1.2600000e+01 
0.0000000e+00 0.0000000e+00 1.3200000e+01 
0.0000000e+00 0.0000000e+00 1.3800000e+01 
0.0000000e+00 0.0000000e+00 1.4400000e+01 
0.0000000e+00 0.0000000e+00 1.5000000e+01 
0.0000000e+00 0.0000000e+00 1.5600000e+01 
0.0000000e+00 0.0000000e+00 1.6200001e+01 
0.0000000e+00 0.0000000e+00 1.6799999e+01 
0.0000000e+00 0.0000000e+00 1.7400000e+01 
0.0000000e+00 0.0000000e+00 1.8000000e+01 
6.0000000e+00 0.0000000e+00 0.0000000e+00 
6.0000000e+00 0.0000000e+00 6.0000002e-01 
6.0000000e+00 0.0000000e+00 1.2000000e+00 
6.0000000e+00 0.0000000e+00 1.8000000e+00 
6.0000000e+00 0.0000000e+00 2.4000001e+00 
6.0000000e+00 0.0000000e+00 3.0000000e+00 
6.0000000e+00 0.0000000e+00 3.5999999e+00 
6.0000000e+00 0.0000000e+00 4.1999998e+00 
6.0000000e+00 0.0000000e+00 4.8000002e+00 
6.0000000e+00 0.0000000e+00 5.4000001e+00 
6.0000000e+00 0.0000000e+00 6.0000000e+00 
6.0000000e+00 0.0000000e+00 6.5999999e+00 
6.0000000e+00 0.0000000e+00 7.1999998e+00 
6.0000000e+00 0.0000000e+00 7.8000002e+00 
6.0000000e+00 0.0000000e+00 8.3999996e+00 
6.0000000e+00 0.0000000e+00 9.0000000e+00 
6.0000000e+00 0.0000000e+00 9.6000004e+00 
6.0000000e+00 0.0000000e+00 1.0200000e+01 
6.0000000e+00 0.0000000e+00 1.0800000e+01 
6.0000000e+00 0.0000000e+00 1.1400000e+01 
6.0000000e+00 0.0000000e+00 1.2000000e+01 
6.0000000e+00 0.0000000e+00 1.2600000e+01 
6.0000000e+00 0.0000000e+00 1.3200000e+01 
6.0000000e+00 0.0000000e+00 1.3800000e+01 
6.0000000e+00 0.0000000e+00 1.4400000e+01 
6.0000000e+00 0.0000000e+00 1.5000000e+01 
6.0000000e+00 0.0000000e+00 1.5600000e+01 
6.0000000e+00 0.0000000e+00 1.6200001e+01 
6.0000000e+00 0.0000000e+00 1.6799999e+01 
6.0000000e+00 0.0000000e+00 1.7400000e+01 
6.0000000e+00 0.0000000e+00 1.8000000e+01 
1.2000000e+00 0.0000000e+00 3.0000000e+00 
2.4000001e+00 0.0000000e+00 3.0000000e+00 
3.5999999e+00 0.0000000e+00 3.0000000e+00 
4.8000002e+00 0.0000000e+00 3.0000000e+00 
1.2000000e+00 0.0000000e+00 6.0000000e+00 
2.4000001e+00 0.0000000e+00 6.0000000e+00 
3.5999999e+00 0.0000000e+00 6.0000000e+00 
4.8000002e+00 0.0000000e+00 6.0000000e+00 
1.2000000e+00 0.0000000e+00 9.0000000e+00 
2.4000001e+00 0.0000000e+00 9.0000000e+00 
3.5999999e+00 0.0000000e+00 9.0000000e+00 
4.8000002e+00 0.0000000e+00 9.0000000e+00 
1.2000000e+00 0.0000000e+00 1.2000000e+01 
2.4000001e+00 0.0000000e+00 1.2000000e+01 
3.5999999e+00 0.0000000e+00 1.2000000e+01 
4.8000002e+00 0.0000000e+00 1.2000000e+01 
1.2000000e+00 0.0000000e+00 1.5000000e+01 
2.4000001e+00 0.0000000e+00 1.5000000e+01 
3.5999999e+00 0.0000000e+00 1.5000000e+01 
4.8000002e+00 0.0000000e+00 1.5000000e+01 
1.2000000e+00 0.0000000e+00 1.8000000e+01 
2.4000001e+00 0.0000000e+00 1.8000000e+01 
3.5999999e+00 0.0000000e+00 1.8000000e+01 
4.8000002e+00 0.0000000e+00 1.8000000e+01 

CELLS 90 270
2 0 1
2 1 2
2 2 3
2 3 4
2 4 5
2 5 6
2 6 7
2 7 8
2 8 9
2 9 10
2 10 11
2 11 12
2 12 13
2 13 14
2 14 15
2 15 16
2 16 17
2 17 18
2 18 19
2 19 20
2 20 21
2 21 22
2 22 23
2 23 24
2 24 25
2 25 26
2 26 27
2 27 28
2 28 29
2 29 30
2 31 32
2 32 33
2 33 34
2 34 35
2 35 36
2 36 37
2 37 38
2 38 39
2 39 40
2 40 41
2 41 42
2 42 43
2 43 44
2 44 45
2 45 46
2 46 47
2 47 48
2 48 49
2 49 50
2 50 51
2 51 52
2 52 53
2 53 54
2 54 55
2 55 56
2 56 57
2 57 58
2 58 59
2 59 60
2 60 61
2 5 62
2 62 63
2 63 64
2 64 65
2 65 36
2 10 66
2 66 67
2 67 68
2 68 69
2 69 41
2 15 70
2 70 71
2 71 72
2 72 73
2 73 46
2 20 74
2 74 75
2 75 76
2 76 77
2 77 51
2 25 78
2 78 79
2 79 80
2 80 81
2 81 56
2 30 82
2 82 83
2 83 84
2 84 85
2 85 61

CELL_TYPES 90
3
3
3
3
3
3
3
3
3
3
3
3
3
3
3
3
3
3
3
3
3
3
3
3
3
3
3
3
3
3
3
3
3
3
3
3
3
3
3
3
3
3
3
3
3
3
3
3
3
3
3
3
3
3
3
3
3
3
3
3
3
3
3
3
3
3
3
3
3
3
3
3
3
3
3
3
3
3
3
3
3
3
3
3
3
3
3
3
3
3
POINT_DATA 86
FIELD FieldData 7
DISPLACEMENT 3 86  float
0.0000000e+00 0.0000000e+00 0.0000000e+00 
6.8775294e-03 0.0000000e+00 2.5076667e-07 
1.3488029e-02 0.0000000e+00 5.0153335e-07 
1.9564467e-02 0.0000000e+00 7.5229997e-07 
2.4839815e-02 0.0000000e+00 1.0030667e-06 
2.9047040e-02 0.0000000e+00 1.2538333e-06 
3.2864660e-02 0.0000000e+00 1.4195290e-06 
3.6936648e-02 0.0000000e+00 1.5852247e-06 
4.0944178e-02 0.0000000e+00 1.7509204e-06 
4.4568419e-02 0.0000000e+00 1.9166162e-06 
4.7490548e-02 0.0000000e+00 2.0823118e-06 
5.0227083e-02 0.0000000e+00 2.1399892e-06 
5.3313371e-02 0.0000000e+00 2.1976664e-06 
5.6458801e-02 0.0000000e+00 2.2553436e-06 
5.9372775e-02 0.0000000e+00 2.3130208e-06 
6.1764691e-02 0.0000000e+00 2.3706980e-06 
6.3931681e-02 0.0000000e+00 2.3952825e-06 
6.6231474e-02 0.0000000e+00 2.4198669e-06 
6.8464354e-02 0.0000000e+00 2.4444514e-06 
7.0430599e-02 0.0000000e+00 2.4690360e-06 
7.1930476e-02 0.0000000e+00 2.4936203e-06 
7.3182568e-02 0.0000000e+00 2.4163169e-06 
7.4431062e-02 0.0000000e+00 2.3390137e-06 
7.5514652e-02 0.0000000e+00 2.2617103e-06 
7.6272003e-02 0.0000000e+00 2.1844071e-06 
7.6541819e-02 0.0000000e+00 2.1071037e-06 
7.6362841e-02 0.0000000e+00 2.0008408e-06 
7.5996578e-02 0.0000000e+00 1.8945778e-06 
7.5615838e-02 0.0000000e+00 1.7883149e-06 
7.5393431e-02 0.0000000e+00 1.6820520e-06 
7.5502157e-02 0.0000000e+00 1.5757890e-06 
0.0000000e+00 0.0000000e+00 0.0000000e+00 
6.9871214e-03 0.0000000e+00 -5.0798803e-07 
1.3679815e-02 0.0000000e+00 -1.0159761e-06 
1.9783653e-02 0.0000000e+00 -1.5239641e-06 
2.5004210e-02 0.0000000e+00 -2.0319521e-06 
2.9047057e-02 0.0000000e+00 -2.5399402e-06 
3.2715388e-02 0.0000000e+00 -2.9127523e-06 
3.6762785e-02 0.0000000e+00 -3.2855642e-06 
4.0820386e-02 0.0000000e+00 -3.6583763e-06 
4.4519342e-02 0.0000000e+00 -4.0311884e-06 
4.7490790e-02 0.0000000e+00 -4.4040003e-06 
5.0227679e-02 0.0000000e+00 -4.6600876e-06 
5.3290717e-02 0.0000000e+00 -4.9161754e-06 
5.6412701e-02 0.0000000e+00 -5.1722627e-06 
5.9326425e-02 0.0000000e+00 -5.4283501e-06 
6.1764698e-02 0.0000000e+00 -5.6844378e-06 
6.4012960e-02 0.0000000e+00 -5.8857622e-06 
6.6382363e-02 0.0000000e+00 -6.0870871e-06 
6.8644255e-02 0.0000000e+00 -6.2884119e-06 
7.0569992e-02 0.0000000e+00 -6.4897363e-06 
7.1930915e-02 0.0000000e+00 -6.6910611e-06 
7.2975099e-02 0.0000000e+00 -6.7603592e-06 
7.4045144e-02 0.0000000e+00 -6.8296567e-06 
7.5054221e-02 0.0000000e+00 -6.8989548e-06 
7.5915478e-02 0.0000000e+00 -6.9682524e-06 
7.6542094e-02 0.0000000e+00 -7.0375504e-06 
7.6865800e-02 0.0000000e+00 -7.1253967e-06 
7.6895207e-02 0.0000000e+00 -7.2132425e-06 
7.6658778e-02 0.0000000e+00 -7.3010888e-06 
7.6184988e-02 0.0000000e+00 -7.3889350e-06 
7.5502306e-02 0.0000000e+00 -7.4767813e-06 
2.9047012e-02 0.0000000e+00 -3.7586922e-03 
2.9047016e-02 0.0000000e+00 -2.3492926e-03 
2.9047020e-02 0.0000000e+00 9.9081185e-04 
2.9047016e-02 0.0000000e+00 2.9178907e-03 
4.7490560e-02 0.0000000e+00 -2.3116453e-03 
4.7490664e-02 0.0000000e+00 -1.5027258e-03 
4.7490776e-02 0.0000000e+00 5.7158369e-04 
4.7490802e-02 0.0000000e+00 2.1337343e-03 
6.1764739e-02 0.0000000e+00 -1.9341127e-03 
6.1764725e-02 0.0000000e+00 -6.0437422e-04 
6.1764695e-02 0.0000000e+00 1.5868546e-03 
6.1764721e-02 0.0000000e+00 2.2952319e-03 
7.1930565e-02 0.0000000e+00 -1.2632627e-03 
7.1930721e-02 0.0000000e+00 -1.0459605e-03 
7.1930833e-02 0.0000000e+00 -3.2119165e-04 
7.1930908e-02 0.0000000e+00 5.1559141e-04 
7.6542005e-02 0.0000000e+00 4.9609499e-04 
7.6542094e-02 0.0000000e+00 1.1462916e-03 
7.6542191e-02 0.0000000e+00 1.1633496e-03 
7.6542199e-02 0.0000000e+00 7.2514958e-04 
7.5502127e-02 0.0000000e+00 -1.3753590e-03 
7.5502113e-02 0.0000000e+00 -2.7739517e-03 
7.5502127e-02 0.0000000e+00 -2.9683416e-03 
7.5502217e-02 0.0000000e+00 -1.7401277e-03 
ROTATION 3 86  float
0.0000000e+00 1.1536725e-02 0.0000000e+00 
0.0000000e+00 1.1314199e-02 0.0000000e+00 
0.0000000e+00 1.0646624e-02 0.0000000e+00 
0.0000000e+00 9.5339967e-03 0.0000000e+00 
0.0000000e+00 7.9763196e-03 0.0000000e+00 
0.0000000e+00 5.9735919e-03 0.0000000e+00 
0.0000000e+00 6.6632354e-03 0.0000000e+00 
0.0000000e+00 6.8214964e-03 0.0000000e+00 
0.0000000e+00 6.4483755e-03 0.0000000e+00 
0.0000000e+00 5.5438722e-03 0.0000000e+00 
0.0000000e+00 4.1079870e-03 0.0000000e+00 
0.0000000e+00 4.9330746e-03 0.0000000e+00 
0.0000000e+00 5.2738222e-03 0.0000000e+00 
0.0000000e+00 5.1302291e-03 0.0000000e+00 
0.0000000e+00 4.5022964e-03 0.0000000e+00 
0.0000000e+00 3.3900230e-03 0.0000000e+00 
0.0000000e+00 3.7778020e-03 0.0000000e+00 
0.0000000e+00 3.8327095e-03 0.0000000e+00 
0.0000000e+00 3.5547453e-03 0.0000000e+00 
0.0000000e+00 2.9439095e-03 0.0000000e+00 
0.0000000e+00 2.0002024e-03 0.0000000e+00 
0.0000000e+00 2.1286353e-03 0.0000000e+00 
0.0000000e+00 1.9882096e-03 0.0000000e+00 
0.0000000e+00 1.5789255e-03 0.0000000e+00 
0.0000000e+00 9.0078299e-04 0.0000000e+00 
0.0000000e+00 -4.6217974e-05 0.0000000e+00 
0.0000000e+00 -5.0236552e-04 0.0000000e+00 
0.0000000e+00 -6.7050179e-04 0.0000000e+00 
0.0000000e+00 -5.5062684e-04 0.0000000e+00 
0.0000000e+00 -1.4274054e-04 0.0000000e+00 
0.0000000e+00 5.5315701e-04 0.0000000e+00 
0.0000000e+00 1.1726988e-02 0.0000000e+00 
0.0000000e+00 1.1481632e-02 0.0000000e+00 
0.0000000e+00 1.0745563e-02 0.0000000e+00 
0.0000000e+00 9.5187817e-03 0.0000000e+00 
0.0000000e+00 7.8012878e-03 0.0000000e+00 
0.0000000e+00 5.5930819e-03 0.0000000e+00 
0.0000000e+00 6.5322337e-03 0.0000000e+00 
0.0000000e+00 6.8566254e-03 0.0000000e+00 
0.0000000e+00 6.5662577e-03 0.0000000e+00 
0.0000000e+00 5.6611300e-03 0.0000000e+00 
0.0000000e+00 4.1412427e-03 0.0000000e+00 
0.0000000e+00 4.9074925e-03 0.0000000e+00 
0.0000000e+00 5.2284054e-03 0.0000000e+00 
0.0000000e+00 5.1039821e-03 0.0000000e+00 
0.0000000e+00 4.5342227e-03 0.0000000e+00 
0.0000000e+00 3.5191264e-03 0.0000000e+00 
0.0000000e+00 3.9115679e-03 0.0000000e+00 
0.0000000e+00 3.9229267e-03 0.0000000e+00 
0.0000000e+00 3.5532035e-03 0.0000000e+00 
0.0000000e+00 2.8023978e-03 0.0000000e+00 
0.0000000e+00 1.6705098e-03 0.0000000e+00 
0.0000000e+00 1.7859796e-03 0.0000000e+00 
0.0000000e+00 1.7567207e-03 0.0000000e+00 
0.0000000e+00 1.5827331e-03 0.0000000e+00 
0.0000000e+00 1.2640167e-03 0.0000000e+00 
0.0000000e+00 8.0057152e-04 0.0000000e+00 
0.0000000e+00 2.8635195e-04 0.0000000e+00 
0.0000000e+00 -1.8042275e-04 0.0000000e+00 
0.0000000e+00 -5.9975259e-04 0.0000000e+00 
0.0000000e+00 -9.7163749e-04 0.0000000e+00 
0.0000000e+00 -1.2960775e-03 0.0000000e+00 
0.0000000e+00 6.3326838e-04 0.0000000e+00 
0.0000000e+00 -2.4806138e-03 0.0000000e+00 
0.0000000e+00 -2.5845736e-03 0.0000000e+00 
0.0000000e+00 -1.8499339e-04 0.0000000e+00 
0.0000000e+00 1.7199192e-04 0.0000000e+00 
0.0000000e+00 -1.3273224e-03 0.0000000e+00 
0.0000000e+00 -1.8205973e-03 0.0000000e+00 
0.0000000e+00 -2.5884059e-04 0.0000000e+00 
0.0000000e+00 -3.0179461e-05 0.0000000e+00 
0.0000000e+00 -1.8659973e-03 0.0000000e+00 
0.0000000e+00 -1.5487086e-03 0.0000000e+00 
0.0000000e+00 5.3478545e-04 0.0000000e+00 
0.0000000e+00 3.3365079e-04 0.0000000e+00 
0.0000000e+00 -4.5348267e-04 0.0000000e+00 
0.0000000e+00 -6.8785902e-04 0.0000000e+00 
0.0000000e+00 -4.9059716e-04 0.0000000e+00 
0.0000000e+00 -6.6125672e-04 0.0000000e+00 
0.0000000e+00 -2.4541476e-04 0.0000000e+00 
0.0000000e+00 2.4926895e-04 0.0000000e+00 
0.0000000e+00 4.4804232e-04 0.0000000e+00 
0.0000000e+00 1.4541225e-03 0.0000000e+00 
0.0000000e+00 7.1998569e-04 0.0000000e+00 
0.0000000e+00 -4.5534922e-04 0.0000000e+00 
0.0000000e+00 -1.4126839e-03 0.0000000e+00 
REACTION 3 86  float
-1.2362517e+02 -0.0000000e+00 -4.1794443e+02 
3.6379788e-12 -0.0000000e+00 -0.0000000e+00 
1.6370905e-11 -0.0000000e+00 5.6843419e-14 
3.6379788e-12 -0.0000000e+00 2.2737368e-13 
-3.3342076e-09 -0.0000000e+00 2.2737368e-13 
2.1900632e-09 -0.0000000e+00 -6.9593398e-10 
1.2936653e-08 -0.0000000e+00 -4.5383786e-10 
-7.0940587e-11 -0.0000000e+00 -1.3551471e-10 
-1.1277734e-10 -0.0000000e+00 -0.0000000e+00 
-3.3651304e-11 -0.0000000e+00 -4.5474735e-13 
5.5098610e-09 -0.0000000e+00 3.0894398e-11 
-1.8189894e-11 -0.0000000e+00 9.0949470e-13 
7.8216544e-11 -0.0000000e+00 -2.2737368e-12 
6.8212103e-11 -0.0000000e+00 -1.3642421e-12 
-3.5470293e-11 -0.0000000e+00 -9.0949470e-13 
4.1782187e-09 -0.0000000e+00 -2.1373125e-11 
-8.1854523e-12 -0.0000000e+00 2.4101610e-11 
-2.9194780e-10 -0.0000000e+00 -0.0000000e+00 
-3.6379788e-11 -0.0000000e+00 2.7284841e-12 
-4.5137313e-08 -0.0000000e+00 -4.5474735e-13 
4.8848392e-09 -0.0000000e+00 -7.6906304e-10 
-7.2136572e-09 -0.0000000e+00 -2.3965185e-09 
-1.3551471e-10 -0.0000000e+00 9.0949470e-13 
-8.1854523e-11 -0.0000000e+00 1.8189894e-12 
-1.9099389e-11 -0.0000000e+00 -1.3642421e-12 
1.6386821e-09 -0.0000000e+00 1.1368684e-13 
-1.5461410e-11 -0.0000000e+00 -2.1827873e-11 
-5.2068572e-11 -0.0000000e+00 4.5474735e-13 
-7.0116357e-11 -0.0000000e+00 -0.0000000e+00 
-7.3924866e-11 -0.0000000e+00 -0.0000000e+00 
-4.0710546e-09 -0.0000000e+00 -4.8316906e-13 
-1.3630901e+02 -0.0000000e+00 8.4664673e+02 
-7.2759576e-12 -0.0000000e+00 -2.2737368e-13 
1.8189894e-11 -0.0000000e+00 2.2737368e-13 
7.6397555e-11 -0.0000000e+00 -4.5474735e-13 
4.0017767e-11 -0.0000000e+00 -4.5474735e-13 
-3.6961865e-09 -0.0000000e+00 9.0949470e-13 
-2.0008883e-11 -0.0000000e+00 -0.0000000e+00 
-3.6379788e-11 -0.0000000e+00 -9.0949470e-13 
-9.8225428e-11 -0.0000000e+00 9.0949470e-13 
-2.3646862e-11 -0.0000000e+00 9.0949470e-13 
2.0602897e-10 -0.0000000e+00 1.4779289e-12 
1.3642421e-11 -0.0000000e+00 1.8189894e-12 
4.5474735e-11 -0.0000000e+00 9.0949470e-13 
2.7284841e-11 -0.0000000e+00 -1.8189894e-12 
6.3664629e-11 -0.0000000e+00 3.6379788e-12 
-5.9599188e-09 -0.0000000e+00 -2.0463631e-12 
3.6379788e-12 -0.0000000e+00 -5.4569682e-12 
6.2755134e-11 -0.0000000e+00 -0.0000000e+00 
-1.0186341e-10 -0.0000000e+00 1.8189894e-12 
-2.6193447e-09 -0.0000000e+00 -0.0000000e+00 
-2.0000925e-09 -0.0000000e+00 -1.8189894e-12 
4.0017767e-11 -0.0000000e+00 1.8189894e-11 
-1.2050805e-10 -0.0000000e+00 -5.4569682e-12 
-1.2960300e-10 -0.0000000e+00 -0.0000000e+00 
-1.7695129e-08 -0.0000000e+00 -1.8189894e-12 
-2.1614568e-09 -0.0000000e+00 -2.4158453e-12 
6.3096195e-12 -0.0000000e+00 7.2759576e-12 
-1.5421620e-10 -0.0000000e+00 1.8189894e-12 
-4.0699888e-11 -0.0000000e+00 -1.8189894e-12 
-1.1141310e-11 -0.0000000e+00 -0.0000000e+00 
-9.9632587e-09 -0.0000000e+00 1.1368684e-12 
1.9324276e-10 -0.0000000e+00 5.4677685e-10 
3.7252903e-09 -0.0000000e+00 -3.5242920e-11 
-5.9645799e-10 -0.0000000e+00 -7.0002670e-11 
-6.2077703e-09 -0.0000000e+00 -9.6633812e-13 
1.5806734e-09 -0.0000000e+00 1.1368684e-11 
-2.7349500e-09 -0.0000000e+00 -2.5607960e-11 
3.0636045e-09 -0.0000000e+00 -5.2864380e-12 
-1.9750281e-09 -0.0000000e+00 3.5242920e-12 
-1.2792100e-08 -0.0000000e+00 1.3642421e-12 
4.5604907e-09 -0.0000000e+00 -8.3275609e-12 
-3.5385028e-10 -0.0000000e+00 4.4906301e-12 
3.9812420e-10 -0.0000000e+00 1.8474111e-12 
1.6543140e-09 -0.0000000e+00 1.9388438e-09 
1.2741395e-08 -0.0000000e+00 5.4996008e-11 
1.1521195e-08 -0.0000000e+00 7.3622175e-10 
8.5678948e-09 -0.0000000e+00 -3.0206593e-10 
-2.1073276e-09 -0.0000000e+00 4.5886850e-11 
4.8328701e-09 -0.0000000e+00 -2.9842795e-13 
-1.7936770e-08 -0.0000000e+00 -7.7875484e-12 
1.6727085e-08 -0.0000000e+00 -1.2267520e-11 
2.0340993e-08 -0.0000000e+00 -2.8421709e-14 
-8.6391694e-10 -0.0000000e+00 -1.2079227e-13 
7.5243634e-09 -0.0000000e+00 -9.3791641e-13 
2.2351742e-08 -0.0000000e+00 3.4106051e-13 
REACTION_MOMENT 3 86  float
-0.0000000e+00 -4.5474735e-12 -0.0000000e+00 
-0.0000000e+00 2.3192115e-11 -0.0000000e+00 
-0.0000000e+00 1.5461410e-11 -0.0000000e+00 
-0.0000000e+00 -1.8189894e-12 -0.0000000e+00 
-0.0000000e+00 1.7560069e-09 -0.0000000e+00 
-0.0000000e+00 -2.2457698e-09 -0.0000000e+00 
-0.0000000e+00 -1.2139481e-08 -0.0000000e+00 
-0.0000000e+00 -2.7102942e-10 -0.0000000e+00 
-0.0000000e+00 -2.3655957e-09 -0.0000000e+00 
-0.0000000e+00 7.8671292e-11 -0.0000000e+00 
-0.0000000e+00 -1.0686563e-11 -0.0000000e+00 
-0.0000000e+00 -1.9235813e-10 -0.0000000e+00 
-0.0000000e+00 -1.0004442e-10 -0.0000000e+00 
-0.0000000e+00 4.3883119e-11 -0.0000000e+00 
-0.0000000e+00 -1.1118573e-10 -0.0000000e+00 
-0.0000000e+00 4.6668447e-11 -0.0000000e+00 
-0.0000000e+00 5.6161298e-11 -0.0000000e+00 
-0.0000000e+00 2.4328983e-11 -0.0000000e+00 
-0.0000000e+00 1.1903012e-10 -0.0000000e+00 
-0.0000000e+00 -6.1743322e-10 -0.0000000e+00 
-0.0000000e+00 -1.0734311e-09 -0.0000000e+00 
-0.0000000e+00 3.5184939e-09 -0.0000000e+00 
-0.0000000e+00 8.3559826e-11 -0.0000000e+00 
-0.0000000e+00 1.7564616e-11 -0.0000000e+00 
-0.0000000e+00 -2.1714186e-11 -0.0000000e+00 
-0.0000000e+00 4.0758152e-10 -0.0000000e+00 
-0.0000000e+00 4.0245141e-11 -0.0000000e+00 
-0.0000000e+00 3.1860736e-11 -0.0000000e+00 
-0.0000000e+00 2.5671909e-11 -0.0000000e+00 
-0.0000000e+00 7.7548634e-11 -0.0000000e+00 
-0.0000000e+00 1.0118129e-11 -0.0000000e+00 
-0.0000000e+00 -9.0949470e-13 -0.0000000e+00 
-0.0000000e+00 1.3642421e-12 -0.0000000e+00 
-0.0000000e+00 -1.8189894e-12 -0.0000000e+00 
-0.0000000e+00 2.9103830e-11 -0.0000000e+00 
-0.0000000e+00 3.3196557e-11 -0.0000000e+00 
-0.0000000e+00 1.0004442e-11 -0.0000000e+00 
-0.0000000e+00 1.4642865e-10 -0.0000000e+00 
-0.0000000e+00 -1.9554136e-11 -0.0000000e+00 
-0.0000000e+00 -3.5470293e-11 -0.0000000e+00 
-0.0000000e+00 -2.1600499e-11 -0.0000000e+00 
-0.0000000e+00 -9.8907549e-12 -0.0000000e+00 
-0.0000000e+00 -1.6598278e-11 -0.0000000e+00 
-0.0000000e+00 -2.8649083e-11 -0.0000000e+00 
-0.0000000e+00 -2.2509994e-11 -0.0000000e+00 
-0.0000000e+00 -3.7516656e-11 -0.0000000e+00 
-0.0000000e+00 -1.5006663e-11 -0.0000000e+00 
-0.0000000e+00 6.3664629e-12 -0.0000000e+00 
-0.0000000e+00 -1.4324542e-11 -0.0000000e+00 
-0.0000000e+00 -5.5479177e-11 -0.0000000e+00 
-0.0000000e+00 9.8071951e-09 -0.0000000e+00 
-0.0000000e+00 4.3268074e-09 -0.0000000e+00 
-0.0000000e+00 6.3550942e-11 -0.0000000e+00 
-0.0000000e+00 -3.9108272e-11 -0.0000000e+00 
-0.0000000e+00 -1.8417268e-11 -0.0000000e+00 
-0.0000000e+00 -4.0981831e-09 -0.0000000e+00 
-0.0000000e+00 -5.0629865e-09 -0.0000000e+00 
-0.0000000e+00 2.8364866e-11 -0.0000000e+00 
-0.0000000e+00 -3.2542857e-12 -0.0000000e+00 
-0.0000000e+00 -7.2532202e-11 -0.0000000e+00 
-0.0000000e+00 -4.3485215e-11 -0.0000000e+00 
-0.0000000e+00 -2.5835334e-11 -0.0000000e+00 
-0.0000000e+00 4.5537263e-10 -0.0000000e+00 
-0.0000000e+00 1.7575985e-10 -0.0000000e+00 
-0.0000000e+00 -2.0482105e-10 -0.0000000e+00 
-0.0000000e+00 -8.5265128e-13 -0.0000000e+00 
-0.0000000e+00 5.1443294e-12 -0.0000000e+00 
-0.0000000e+00 -2.3362645e-11 -0.0000000e+00 
-0.0000000e+00 2.8421709e-14 -0.0000000e+00 
-0.0000000e+00 2.4442670e-12 -0.0000000e+00 
-0.0000000e+00 1.9895197e-13 -0.0000000e+00 
-0.0000000e+00 -8.8036245e-12 -0.0000000e+00 
-0.0000000e+00 4.4622084e-12 -0.0000000e+00 
-0.0000000e+00 -8.9244168e-12 -0.0000000e+00 
-0.0000000e+00 1.1738024e-09 -0.0000000e+00 
-0.0000000e+00 -8.5023544e-11 -0.0000000e+00 
-0.0000000e+00 4.3209525e-10 -0.0000000e+00 
-0.0000000e+00 -1.4495072e-10 -0.0000000e+00 
-0.0000000e+00 2.3071323e-11 -0.0000000e+00 
-0.0000000e+00 2.6858515e-12 -0.0000000e+00 
-0.0000000e+00 8.2138740e-12 -0.0000000e+00 
-0.0000000e+00 5.4285465e-12 -0.0000000e+00 
-0.0000000e+00 -1.4210855e-14 -0.0000000e+00 
-0.0000000e+00 -2.4158453e-13 -0.0000000e+00 
-0.0000000e+00 -1.7053026e-13 -0.0000000e+00 
-0.0000000e+00 -5.6843419e-14 -0.0000000e+00 
VOLUME_ACCELERATION 3 86  float
0.0000000e+00 0.0000000e+00 0.0000000e+00 
0.0000000e+00 0.0000000e+00 0.0000000e+00 
0.0000000e+00 0.0000000e+00 0.0000000e+00 
0.0000000e+00 0.0000000e+00 0.0000000e+00 
0.0000000e+00 0.0000000e+00 0.0000000e+00 
0.0000000e+00 0.0000000e+00 0.0000000e+00 
0.0000000e+00 0.0000000e+00 0.0000000e+00 
0.0000000e+00 0.0000000e+00 0.0000000e+00 
0.0000000e+00 0.0000000e+00 0.0000000e+00 
0.0000000e+00 0.0000000e+00 0.0000000e+00 
0.0000000e+00 0.0000000e+00 0.0000000e+00 
0.0000000e+00 0.0000000e+00 0.0000000e+00 
0.0000000e+00 0.0000000e+00 0.0000000e+00 
0.0000000e+00 0.0000000e+00 0.0000000e+00 
0.0000000e+00 0.0000000e+00 0.0000000e+00 
0.0000000e+00 0.0000000e+00 0.0000000e+00 
0.0000000e+00 0.0000000e+00 0.0000000e+00 
0.0000000e+00 0.0000000e+00 0.0000000e+00 
0.0000000e+00 0.0000000e+00 0.0000000e+00 
0.0000000e+00 0.0000000e+00 0.0000000e+00 
0.0000000e+00 0.0000000e+00 0.0000000e+00 
0.0000000e+00 0.0000000e+00 0.0000000e+00 
0.0000000e+00 0.0000000e+00 0.0000000e+00 
0.0000000e+00 0.0000000e+00 0.0000000e+00 
0.0000000e+00 0.0000000e+00 0.0000000e+00 
0.0000000e+00 0.0000000e+00 0.0000000e+00 
0.0000000e+00 0.0000000e+00 0.0000000e+00 
0.0000000e+00 0.0000000e+00 0.0000000e+00 
0.0000000e+00 0.0000000e+00 0.0000000e+00 
0.0000000e+00 0.0000000e+00 0.0000000e+00 
0.0000000e+00 0.0000000e+00 0.0000000e+00 
0.0000000e+00 0.0000000e+00 0.0000000e+00 
0.0000000e+00 0.0000000e+00 0.0000000e+00 
0.0000000e+00 0.0000000e+00 0.0000000e+00 
0.0000000e+00 0.0000000e+00 0.0000000e+00 
0.0000000e+00 0.0000000e+00 0.0000000e+00 
0.0000000e+00 0.0000000e+00 0.0000000e+00 
0.0000000e+00 0.0000000e+00 0.0000000e+00 
0.0000000e+00 0.0000000e+00 0.0000000e+00 
0.0000000e+00 0.0000000e+00 0.0000000e+00 
0.0000000e+00 0.0000000e+00 0.0000000e+00 
0.0000000e+00 0.0000000e+00 0.0000000e+00 
0.0000000e+00 0.0000000e+00 0.0000000e+00 
0.0000000e+00 0.0000000e+00 0.0000000e+00 
0.0000000e+00 0.0000000e+00 0.0000000e+00 
0.0000000e+00 0.0000000e+00 0.0000000e+00 
0.0000000e+00 0.0000000e+00 0.0000000e+00 
0.0000000e+00 0.0000000e+00 0.0000000e+00 
0.0000000e+00 0.0000000e+00 0.0000000e+00 
0.0000000e+00 0.0000000e+00 0.0000000e+00 
0.0000000e+00 0.0000000e+00 0.0000000e+00 
0.0000000e+00 0.0000000e+00 0.0000000e+00 
0.0000000e+00 0.0000000e+00 0.0000000e+00 
0.0000000e+00 0.0000000e+00 0.0000000e+00 
0.0000000e+00 0.0000000e+00 0.0000000e+00 
0.0000000e+00 0.0000000e+00 0.0000000e+00 
0.0000000e+00 0.0000000e+00 0.0000000e+00 
0.0000000e+00 0.0000000e+00 0.0000000e+00 
0.0000000e+00 0.0000000e+00 0.0000000e+00 
0.0000000e+00 0.0000000e+00 0.0000000e+00 
0.0000000e+00 0.0000000e+00 0.0000000e+00 
0.0000000e+00 0.0000000e+00 0.0000000e+00 
0.0000000e+00 0.0000000e+00 0.0000000e+00 
0.0000000e+00 0.0000000e+00 0.0000000e+00 
0.0000000e+00 0.0000000e+00 0.0000000e+00 
0.0000000e+00 0.0000000e+00 0.0000000e+00 
0.0000000e+00 0.0000000e+00 0.0000000e+00 
0.0000000e+00 0.0000000e+00 0.0000000e+00 
0.0000000e+00 0.0000000e+00 0.0000000e+00 
0.0000000e+00 0.0000000e+00 0.0000000e+00 
0.0000000e+00 0.0000000e+00 0.0000000e+00 
0.0000000e+00 0.0000000e+00 0.0000000e+00 
0.0000000e+00 0.0000000e+00 0.0000000e+00 
0.0000000e+00 0.0000000e+00 0.0000000e+00 
0.0000000e+00 0.0000000e+00 0.0000000e+00 
0.0000000e+00 0.0000000e+00 0.0000000e+00 
0.0000000e+00 0.0000000e+00 0.0000000e+00 
0.0000000e+00 0.0000000e+00 0.0000000e+00 
0.0000000e+00 0.0000000e+00 0.0000000e+00 
0.0000000e+00 0.0000000e+00 0.0000000e+00 
0.0000000e+00 0.0000000e+00 0.0000000e+00 
0.0000000e+00 0.0000000e+00 0.0000000e+00 
0.0000000e+00 0.0000000e+00 0.0000000e+00 
0.0000000e+00 0.0000000e+00 0.0000000e+00 
0.0000000e+00 0.0000000e+00 0.0000000e+00 
0.0000000e+00 0.0000000e+00 0.0000000e+00 
POINT_LOAD 3 86  float
0.0000000e+00 0.0000000e+00 0.0000000e+00 
0.0000000e+00 0.0000000e+00 0.0000000e+00 
0.0000000e+00 0.0000000e+00 0.0000000e+00 
0.0000000e+00 0.0000000e+00 0.0000000e+00 
0.0000000e+00 0.0000000e+00 0.0000000e+00 
0.0000000e+00 0.0000000e+00 0.0000000e+00 
0.0000000e+00 0.0000000e+00 0.0000000e+00 
0.0000000e+00 0.0000000e+00 0.0000000e+00 
0.0000000e+00 0.0000000e+00 0.0000000e+00 
0.0000000e+00 0.0000000e+00 0.0000000e+00 
2.7813628e+00 0.0000000e+00 3.4614537e+00 
0.0000000e+00 0.0000000e+00 0.0000000e+00 
0.0000000e+00 0.0000000e+00 0.0000000e+00 
0.0000000e+00 0.0000000e+00 0.0000000e+00 
0.0000000e+00 0.0000000e+00 0.0000000e+00 
0.0000000e+00 0.0000000e+00 0.0000000e+00 
0.0000000e+00 0.0000000e+00 0.0000000e+00 
0.0000000e+00 0.0000000e+00 0.0000000e+00 
0.0000000e+00 0.0000000e+00 0.0000000e+00 
0.0000000e+00 0.0000000e+00 0.0000000e+00 
-5.6828350e+01 0.0000000e+00 7.6371590e+01 
0.0000000e+00 0.0000000e+00 0.0000000e+00 
0.0000000e+00 0.0000000e+00 0.0000000e+00 
0.0000000e+00 0.0000000e+00 0.0000000e+00 
0.0000000e+00 0.0000000e+00 0.0000000e+00 
0.0000000e+00 0.0000000e+00 0.0000000e+00 
0.0000000e+00 0.0000000e+00 0.0000000e+00 
0.0000000e+00 0.0000000e+00 0.0000000e+00 
0.0000000e+00 0.0000000e+00 0.0000000e+00 
0.0000000e+00 0.0000000e+00 0.0000000e+00 
-5.5451145e+01 0.0000000e+00 -5.7266582e+01 
0.0000000e+00 0.0000000e+00 0.0000000e+00 
0.0000000e+00 0.0000000e+00 0.0000000e+00 
0.0000000e+00 0.0000000e+00 0.0000000e+00 
0.0000000e+00 0.0000000e+00 0.0000000e+00 
0.0000000e+00 0.0000000e+00 0.0000000e+00 
0.0000000e+00 0.0000000e+00 0.0000000e+00 
0.0000000e+00 0.0000000e+00 0.0000000e+00 
0.0000000e+00 0.0000000e+00 0.0000000e+00 
0.0000000e+00 0.0000000e+00 0.0000000e+00 
0.0000000e+00 0.0000000e+00 0.0000000e+00 
3.8994198e+01 0.0000000e+00 -6.1691574e+01 
0.0000000e+00 0.0000000e+00 0.0000000e+00 
0.0000000e+00 0.0000000e+00 0.0000000e+00 
0.0000000e+00 0.0000000e+00 0.0000000e+00 
0.0000000e+00 0.0000000e+00 0.0000000e+00 
0.0000000e+00 0.0000000e+00 0.0000000e+00 
0.0000000e+00 0.0000000e+00 0.0000000e+00 
0.0000000e+00 0.0000000e+00 0.0000000e+00 
0.0000000e+00 0.0000000e+00 0.0000000e+00 
0.0000000e+00 0.0000000e+00 0.0000000e+00 
7.5411461e+01 0.0000000e+00 -9.1110634e+01 
0.0000000e+00 0.0000000e+00 0.0000000e+00 
0.0000000e+00 0.0000000e+00 0.0000000e+00 
0.0000000e+00 0.0000000e+00 0.0000000e+00 
0.0000000e+00 0.0000000e+00 0.0000000e+00 
-3.0943834e+01 0.0000000e+00 4.2706352e+01 
0.0000000e+00 0.0000000e+00 0.0000000e+00 
0.0000000e+00 0.0000000e+00 0.0000000e+00 
0.0000000e+00 0.0000000e+00 0.0000000e+00 
0.0000000e+00 0.0000000e+00 0.0000000e+00 
6.0892036e+01 0.0000000e+00 -7.1831055e+01 
-2.7027174e+01 0.0000000e+00 -6.7237465e+01 
0.0000000e+00 0.0000000e+00 0.0000000e+00 
6.3770308e+00 0.0000000e+00 2.4759411e+01 
-3.7788422e+01 0.0000000e+00 -4.1030388e+01 
-7.7464920e+01 0.0000000e+00 9.6207397e+01 
-4.0567241e+00 0.0000000e+00 -4.8497501e+01 
7.0134438e+01 0.0000000e+00 -8.9534836e+01 
2.9740885e+01 0.0000000e+00 8.5544907e+01 
5.4774738e+01 0.0000000e+00 -7.8201241e+01 
1.1014211e+01 0.0000000e+00 3.4463413e+01 
-4.3510002e+01 0.0000000e+00 2.9431677e+01 
3.7644020e+01 0.0000000e+00 -2.1810472e+01 
-5.8537971e+01 0.0000000e+00 -7.5330348e+00 
4.0086826e+01 0.0000000e+00 7.3221786e+01 
3.4431435e+01 0.0000000e+00 -6.2323311e+01 
4.8871803e+01 0.0000000e+00 -3.8858166e+01 
8.0632027e+01 0.0000000e+00 -2.5479671e+01 
-6.8967381e+00 0.0000000e+00 6.0293949e+01 
7.4795433e+01 0.0000000e+00 2.7210958e+01 
9.0480713e+01 0.0000000e+00 -2.5551725e+01 
-1.1312937e+01 0.0000000e+00 -5.4471733e+01 
-2.8058584e+01 0.0000000e+00 -4.0638790e+01 
-5.9251637e+01 0.0000000e+00 -9.9307014e+01 
0.0000000e+00 0.0000000e+00 0.0000000e+00 
POINT_MOMENT 3 86  float
0.0000000e+00 0.0000000e+00 0.0000000e+00 
0.0000000e+00 0.0000000e+00 0.0000000e+00 
0.0000000e+00 0.0000000e+00 0.0000000e+00 
0.0000000e+00 0.0000000e+00 0.0000000e+00 
0.0000000e+00 0.0000000e+00 0.0000000e+00 
0.0000000e+00 0.0000000e+00 0.0000000e+00 
0.0000000e+00 0.0000000e+00 0.0000000e+00 
0.0000000e+00 0.0000000e+00 0.0000000e+00 
0.0000000e+00 0.0000000e+00 0.0000000e+00 
0.0000000e+00 0.0000000e+00 0.0000000e+00 
0.0000000e+00 -2.7531134e+01 0.0000000e+00 
0.0000000e+00 0.0000000e+00 0.0000000e+00 
0.0000000e+00 0.0000000e+00 0.0000000e+00 
0.0000000e+00 0.0000000e+00 0.0000000e+00 
0.0000000e+00 0.0000000e+00 0.0000000e+00 
0.0000000e+00 0.0000000e+00 0.0000000e+00 
0.0000000e+00 0.0000000e+00 0.0000000e+00 
0.0000000e+00 0.0000000e+00 0.0000000e+00 
0.0000000e+00 0.0000000e+00 0.0000000e+00 
0.0000000e+00 0.0000000e+00 0.0000000e+00 
0.0000000e+00 -3.3890053e+01 0.0000000e+00 
0.0000000e+00 0.0000000e+00 0.0000000e+00 
0.0000000e+00 0.0000000e+00 0.0000000e+00 
0.0000000e+00 0.0000000e+00 0.0000000e+00 
0.0000000e+00 0.0000000e+00 0.0000000e+00 
0.0000000e+00 0.0000000e+00 0.0000000e+00 
0.0000000e+00 0.0000000e+00 0.0000000e+00 
0.0000000e+00 0.0000000e+00 0.0000000e+00 
0.0000000e+00 0.0000000e+00 0.0000000e+00 
0.0000000e+00 0.0000000e+00 0.0000000e+00 
0.0000000e+00 -6.9995732e+00 0.0000000e+00 
0.0000000e+00 0.0000000e+00 0.0000000e+00 
0.0000000e+00 0.0000000e+00 0.0000000e+00 
0.0000000e+00 0.0000000e+00 0.0000000e+00 
0.0000000e+00 0.0000000e+00 0.0000000e+00 
0.0000000e+00 0.0000000e+00 0.0000000e+00 
0.0000000e+00 0.0000000e+00 0.0000000e+00 
0.0000000e+00 0.0000000e+00 0.0000000e+00 
0.0000000e+00 0.0000000e+00 0.0000000e+00 
0.0000000e+00 0.0000000e+00 0.0000000e+00 
0.0000000e+00 0.0000000e+00 0.0000000e+00 
0.0000000e+00 -2.2980911e+01 0.0000000e+00 
0.0000000e+00 0.0000000e+00 0.0000000e+00 
0.0000000e+00 0.0000000e+00 0.0000000e+00 
0.0000000e+00 0.0000000e+00 0.0000000e+00 
0.0000000e+00 0.0000000e+00 0.0000000e+00 
0.0000000e+00 0.0000000e+00 0.0000000e+00 
0.0000000e+00 0.0000000e+00 0.0000000e+00 
0.0000000e+00 0.0000000e+00 0.0000000e+00 
0.0000000e+00 0.0000000e+00 0.0000000e+00 
0.0000000e+00 0.0000000e+00 0.0000000e+00 
0.0000000e+00 5.7421184e+00 0.0000000e+00 
0.0000000e+00 0.0000000e+00 0.0000000e+00 
0.0000000e+00 0.0000000e+00 0.0000000e+00 
0.0000000e+00 0.0000000e+00 0.0000000e+00 
0.0000000e+00 0.0000000e+00 0.0000000e+00 