# vtk DataFile Version 4.0
vtk output
ASCII
DATASET UNSTRUCTURED_GRID
POINTS 212 float
0.0000000e+00 0.0000000e+00 0.0000000e+00 
0.0000000e+00 0.0000000e+00 2.5000000e-01 
0.0000000e+00 0.0000000e+00 5.0000000e-01 
0.0000000e+00 0.0000000e+00 7.5000000e-01 
0.0000000e+00 0.0000000e+00 1.0000000e+00 
0.0000000e+00 0.0000000e+00 1.2500000e+00 
0.0000000e+00 0.0000000e+00 1.5000000e+00 
0.0000000e+00 0.0000000e+00 1.7500000e+00 
0.0000000e+00 0.0000000e+00 2.0000000e+00 
0.0000000e+00 0.0000000e+00 2.2500000e+00 
0.0000000e+00 0.0000000e+00 2.5000000e+00 
0.0000000e+00 0.0000000e+00 2.7500000e+00 
0.0000000e+00 0.0000000e+00 3.0000000e+00 
0.0000000e+00 0.0000000e+00 3.2500000e+00 
0.0000000e+00 0.0000000e+00 3.5000000e+00 
0.0000000e+00 0.0000000e+00 3.7500000e+00 
0.0000000e+00 0.0000000e+00 4.0000000e+00 
0.0000000e+00 0.0000000e+00 4.2500000e+00 
0.0000000e+00 0.0000000e+00 4.5000000e+00 
0.0000000e+00 0.0000000e+00 4.7500000e+00 
0.0000000e+00 0.0000000e+00 5.0000000e+00 
0.0000000e+00 0.0000000e+00 5.2500000e+00 
0.0000000e+00 0.0000000e+00 5.5000000e+00 
0.0000000e+00 0.0000000e+00 5.7500000e+00 
0.0000000e+00 0.0000000e+00 6.0000000e+00 
0.0000000e+00 0.0000000e+00 6.2500000e+00 
0.0000000e+00 0.0000000e+00 6.5000000e+00 
0.0000000e+00 0.0000000e+00 6.7500000e+00 
0.0000000e+00 0.0000000e+00 7.0000000e+00 
0.0000000e+00 0.0000000e+00 7.2500000e+00 
0.0000000e+00 0.0000000e+00 7.5000000e+00 
0.0000000e+00 0.0000000e+00 7.7500000e+00 
0.0000000e+00 0.0000000e+00 8.0000000e+00 
0.0000000e+00 0.0000000e+00 8.2500000e+00 
0.0000000e+00 0.0000000e+00 8.5000000e+00 
0.0000000e+00 0.0000000e+00 8.7500000e+00 
0.0000000e+00 0.0000000e+00 9.0000000e+00 
0.0000000e+00 0.0000000e+00 9.2500000e+00 
0.0000000e+00 0.0000000e+00 9.5000000e+00 
0.0000000e+00 0.0000000e+00 9.7500000e+00 
0.0000000e+00 0.0000000e+00 1.0000000e+01 
0.0000000e+00 0.0000000e+00 1.0250000e+01 
0.0000000e+00 0.0000000e+00 1.0500000e+01 
0.0000000e+00 0.0000000e+00 1.0750000e+01 
0.0000000e+00 0.0000000e+00 1.1000000e+01 
0.0000000e+00 0.0000000e+00 1.1250000e+01 
0.0000000e+00 0.0000000e+00 1.1500000e+01 
0.0000000e+00 0.0000000e+00 1.1750000e+01 
0.0000000e+00 0.0000000e+00 1.2000000e+01 
0.0000000e+00 0.0000000e+00 1.2250000e+01 
0.0000000e+00 0.0000000e+00 1.2500000e+01 
0.0000000e+00 0.0000000e+00 1.2750000e+01 
0.0000000e+00 0.0000000e+00 1.3000000e+01 
0.0000000e+00 0.0000000e+00 1.3250000e+01 
0.0000000e+00 0.0000000e+00 1.3500000e+01 
0.0000000e+00 0.0000000e+00 1.3750000e+01 
0.0000000e+00 0.0000000e+00 1.4000000e+01 
0.0000000e+00 0.0000000e+00 1.4250000e+01 
0.0000000e+00 0.0000000e+00 1.4500000e+01 
0.0000000e+00 0.0000000e+00 1.4750000e+01 
0.0000000e+00 0.0000000e+00 1.5000000e+01 
0.0000000e+00 0.0000000e+00 1.5250000e+01 
0.0000000e+00 0.0000000e+00 1.5500000e+01 
0.0000000e+00 0.0000000e+00 1.5750000e+01 
0.0000000e+00 0.0000000e+00 1.6000000e+01 
0.0000000e+00 0.0000000e+00 1.6250000e+01 
0.0000000e+00 0.0000000e+00 1.6500000e+01 
0.0000000e+00 0.0000000e+00 1.6750000e+01 
0.0000000e+00 0.0000000e+00 1.7000000e+01 
0.0000000e+00 0.0000000e+00 1.7250000e+01 
0.0000000e+00 0.0000000e+00 1.7500000e+01 
0.0000000e+00 0.0000000e+00 1.7750000e+01 
0.0000000e+00 0.0000000e+00 1.8000000e+01 
5.0000000e-01 0.0000000e+00 3.0000000e+00 
5.0000000e-01 0.0000000e+00 6.0000000e+00 
5.0000000e-01 0.0000000e+00 9.0000000e+00 
5.0000000e-01 0.0000000e+00 1.2000000e+01 
5.0000000e-01 0.0000000e+00 1.5000000e+01 
5.0000000e-01 0.0000000e+00 1.8000000e+01 
1.0000000e+00 0.0000000e+00 3.0000000e+00 
1.0000000e+00 0.0000000e+00 6.0000000e+00 
1.0000000e+00 0.0000000e+00 9.0000000e+00 
1.0000000e+00 0.0000000e+00 1.2000000e+01 
1.0000000e+00 0.0000000e+00 1.5000000e+01 
1.0000000e+00 0.0000000e+00 1.8000000e+01 
1.5000000e+00 0.0000000e+00 3.0000000e+00 
1.5000000e+00 0.0000000e+00 6.0000000e+00 
1.5000000e+00 0.0000000e+00 9.0000000e+00 
1.5000000e+00 0.0000000e+00 1.2000000e+01 
1.5000000e+00 0.0000000e+00 1.5000000e+01 
1.5000000e+00 0.0000000e+00 1.8000000e+01 
2.0000000e+00 0.0000000e+00 3.0000000e+00 
2.0000000e+00 0.0000000e+00 6.0000000e+00 
2.0000000e+00 0.0000000e+00 9.0000000e+00 
2.0000000e+00 0.0000000e+00 1.2000000e+01 
2.0000000e+00 0.0000000e+00 1.5000000e+01 
2.0000000e+00 0.0000000e+00 1.8000000e+01 
2.5000000e+00 0.0000000e+00 3.0000000e+00 
2.5000000e+00 0.0000000e+00 6.0000000e+00 
2.5000000e+00 0.0000000e+00 9.0000000e+00 
2.5000000e+00 0.0000000e+00 1.2000000e+01 
2.5000000e+00 0.0000000e+00 1.5000000e+01 
2.5000000e+00 0.0000000e+00 1.8000000e+01 
3.0000000e+00 0.0000000e+00 3.0000000e+00 
3.0000000e+00 0.0000000e+00 6.0000000e+00 
3.0000000e+00 0.0000000e+00 9.0000000e+00 
3.0000000e+00 0.0000000e+00 1.2000000e+01 
3.0000000e+00 0.0000000e+00 1.5000000e+01 
3.0000000e+00 0.0000000e+00 1.8000000e+01 
3.5000000e+00 0.0000000e+00 3.0000000e+00 
3.5000000e+00 0.0000000e+00 6.0000000e+00 
3.5000000e+00 0.0000000e+00 9.0000000e+00 
3.5000000e+00 0.0000000e+00 1.2000000e+01 
3.5000000e+00 0.0000000e+00 1.5000000e+01 
3.5000000e+00 0.0000000e+00 1.8000000e+01 
4.0000000e+00 0.0000000e+00 3.0000000e+00 
4.0000000e+00 0.0000000e+00 6.0000000e+00 
4.0000000e+00 0.0000000e+00 9.0000000e+00 
4.0000000e+00 0.0000000e+00 1.2000000e+01 
4.0000000e+00 0.0000000e+00 1.5000000e+01 
4.0000000e+00 0.0000000e+00 1.8000000e+01 
4.5000000e+00 0.0000000e+00 3.0000000e+00 
4.5000000e+00 0.0000000e+00 6.0000000e+00 
4.5000000e+00 0.0000000e+00 9.0000000e+00 
4.5000000e+00 0.0000000e+00 1.2000000e+01 
4.5000000e+00 0.0000000e+00 1.5000000e+01 
4.5000000e+00 0.0000000e+00 1.8000000e+01 
5.0000000e+00 0.0000000e+00 3.0000000e+00 
5.0000000e+00 0.0000000e+00 6.0000000e+00 
5.0000000e+00 0.0000000e+00 9.0000000e+00 
5.0000000e+00 0.0000000e+00 1.2000000e+01 
5.0000000e+00 0.0000000e+00 1.5000000e+01 
5.0000000e+00 0.0000000e+00 1.8000000e+01 
5.5000000e+00 0.0000000e+00 3.0000000e+00 
5.5000000e+00 0.0000000e+00 6.0000000e+00 
5.5000000e+00 0.0000000e+00 9.0000000e+00 
5.5000000e+00 0.0000000e+00 1.2000000e+01 
5.5000000e+00 0.0000000e+00 1.5000000e+01 
5.5000000e+00 0.0000000e+00 1.8000000e+01 
6.0000000e+00 0.0000000e+00 0.0000000e+00 
6.0000000e+00 0.0000000e+00 2.5000000e-01 
6.0000000e+00 0.0000000e+00 5.0000000e-01 
6.0000000e+00 0.0000000e+00 7.5000000e-01 
6.0000000e+00 0.0000000e+00 1.0000000e+00 
6.0000000e+00 0.0000000e+00 1.2500000e+00 
6.0000000e+00 0.0000000e+00 1.5000000e+00 
6.0000000e+00 0.0000000e+00 1.7500000e+00 
6.0000000e+00 0.0000000e+00 2.0000000e+00 
6.0000000e+00 0.0000000e+00 2.2500000e+00 
6.0000000e+00 0.0000000e+00 2.5000000e+00 
6.0000000e+00 0.0000000e+00 2.7500000e+00 
6.0000000e+00 0.0000000e+00 3.0000000e+00 
6.0000000e+00 0.0000000e+00 3.2500000e+00 
6.0000000e+00 0.0000000e+00 3.5000000e+00 
6.0000000e+00 0.0000000e+00 3.7500000e+00 
6.0000000e+00 0.0000000e+00 4.0000000e+00 
6.0000000e+00 0.0000000e+00 4.2500000e+00 
6.0000000e+00 0.0000000e+00 4.5000000e+00 
6.0000000e+00 0.0000000e+00 4.7500000e+00 
6.0000000e+00 0.0000000e+00 5.0000000e+00 
6.0000000e+00 0.0000000e+00 5.2500000e+00 
6.0000000e+00 0.0000000e+00 5.5000000e+00 
6.0000000e+00 0.0000000e+00 5.7500000e+00 
6.0000000e+00 0.0000000e+00 6.0000000e+00 
6.0000000e+00 0.0000000e+00 6.2500000e+00 
6.0000000e+00 0.0000000e+00 6.5000000e+00 
6.0000000e+00 0.0000000e+00 6.7500000e+00 
6.0000000e+00 0.0000000e+00 7.0000000e+00 
6.0000000e+00 0.0000000e+00 7.2500000e+00 
6.0000000e+00 0.0000000e+00 7.5000000e+00 
6.0000000e+00 0.0000000e+00 7.7500000e+00 
6.0000000e+00 0.0000000e+00 8.0000000e+00 
6.0000000e+00 0.0000000e+00 8.2500000e+00 
6.0000000e+00 0.0000000e+00 8.5000000e+00 
6.0000000e+00 0.0000000e+00 8.7500000e+00 
6.0000000e+00 0.0000000e+00 9.0000000e+00 
6.0000000e+00 0.0000000e+00 9.2500000e+00 
6.0000000e+00 0.0000000e+00 9.5000000e+00 
6.0000000e+00 0.0000000e+00 9.7500000e+00 
6.0000000e+00 0.0000000e+00 1.0000000e+01 
6.0000000e+00 0.0000000e+00 1.0250000e+01 
6.0000000e+00 0.0000000e+00 1.0500000e+01 
6.0000000e+00 0.0000000e+00 1.0750000e+01 
6.0000000e+00 0.0000000e+00 1.1000000e+01 
6.0000000e+00 0.0000000e+00 1.1250000e+01 
6.0000000e+00 0.0000000e+00 1.1500000e+01 
6.0000000e+00 0.0000000e+00 1.1750000e+01 
6.0000000e+00 0.0000000e+00 1.2000000e+01 
6.0000000e+00 0.0000000e+00 1.2250000e+01 
6.0000000e+00 0.0000000e+00 1.2500000e+01 
6.0000000e+00 0.0000000e+00 1.2750000e+01 
6.0000000e+00 0.0000000e+00 1.3000000e+01 
6.0000000e+00 0.0000000e+00 1.3250000e+01 
6.0000000e+00 0.0000000e+00 1.3500000e+01 
6.0000000e+00 0.0000000e+00 1.3750000e+01 
6.0000000e+00 0.0000000e+00 1.4000000e+01 
6.0000000e+00 0.0000000e+00 1.4250000e+01 
6.0000000e+00 0.0000000e+00 1.4500000e+01 
6.0000000e+00 0.0000000e+00 1.4750000e+01 
6.0000000e+00 0.0000000e+00 1.5000000e+01 
6.0000000e+00 0.0000000e+00 1.5250000e+01 
6.0000000e+00 0.0000000e+00 1.5500000e+01 
6.0000000e+00 0.0000000e+00 1.5750000e+01 
6.0000000e+00 0.0000000e+00 1.6000000e+01 
6.0000000e+00 0.0000000e+00 1.6250000e+01 
6.0000000e+00 0.0000000e+00 1.6500000e+01 
6.0000000e+00 0.0000000e+00 1.6750000e+01 
6.0000000e+00 0.0000000e+00 1.7000000e+01 
6.0000000e+00 0.0000000e+00 1.7250000e+01 
6.0000000e+00 0.0000000e+00 1.7500000e+01 
6.0000000e+00 0.0000000e+00 1.7750000e+01 
6.0000000e+00 0.0000000e+00 1.8000000e+01 

CELLS 216 648
2 0 1
2 1 2
2 2 3
2 3 4
2 4 5
2 5 6
2 6 7
2 7 8
2 8 9
2 9 10
2 10 11
2 11 12
2 12 13
2 13 14
2 14 15
2 15 16
2 16 17
2 17 18
2 18 19
2 19 20
2 20 21
2 21 22
2 22 23
2 23 24
2 24 25
2 25 26
2 26 27
2 27 28
2 28 29
2 29 30
2 30 31
2 31 32
2 32 33
2 33 34
2 34 35
2 35 36
2 36 37
2 37 38
2 38 39
2 39 40
2 40 41
2 41 42
2 42 43
2 43 44
2 44 45
2 45 46
2 46 47
2 47 48
2 48 49
2 49 50
2 50 51
2 51 52
2 52 53
2 53 54
2 54 55
2 55 56
2 56 57
2 57 58
2 58 59
2 59 60
2 60 61
2 61 62
2 62 63
2 63 64
2 64 65
2 65 66
2 66 67
2 67 68
2 68 69
2 69 70
2 70 71
2 71 72
2 139 140
2 140 141
2 141 142
2 142 143
2 143 144
2 144 145
2 145 146
2 146 147
2 147 148
2 148 149
2 149 150
2 150 151
2 151 152
2 152 153
2 153 154
2 154 155
2 155 156
2 156 157
2 157 158
2 158 159
2 159 160
2 160 161
2 161 162
2 162 163
2 163 164
2 164 165
2 165 166
2 166 167
2 167 168
2 168 169
2 169 170
2 170 171
2 171 172
2 172 173
2 173 174
2 174 175
2 175 176
2 176 177
2 177 178
2 178 179
2 179 180
2 180 181
2 181 182
2 182 183
2 183 184
2 184 185
2 185 186
2 186 187
2 187 188
2 188 189
2 189 190
2 190 191
2 191 192
2 192 193
2 193 194
2 194 195
2 195 196
2 196 197
2 197 198
2 198 199
2 199 200
2 200 201
2 201 202
2 202 203
2 203 204
2 204 205
2 205 206
2 206 207
2 207 208
2 208 209
2 209 210
2 210 211
2 12 73
2 73 79
2 79 85
2 85 91
2 91 97
2 97 103
2 103 109
2 109 115
2 115 121
2 121 127
2 127 133
2 133 151
2 24 74
2 74 80
2 80 86
2 86 92
2 92 98
2 98 104
2 104 110
2 110 116
2 116 122
2 122 128
2 128 134
2 134 163
2 36 75
2 75 81
2 81 87
2 87 93
2 93 99
2 99 105
2 105 111
2 111 117
2 117 123
2 123 129
2 129 135
2 135 175
2 48 76
2 76 82
2 82 88
2 88 94
2 94 100
2 100 106
2 106 112
2 112 118
2 118 124
2 124 130
2 130 136
2 136 187
2 60 77
2 77 83
2 83 89
2 89 95
2 95 101
2 101 107
2 107 113
2 113 119
2 119 125
2 125 131
2 131 137
2 137 199
2 72 78
2 78 84
2 84 90
2 90 96
2 96 102
2 102 108
2 108 114
2 114 120
2 120 126
2 126 132
2 132 138
2 138 211

CELL_TYPES 216
3
3
3
3
3
3
3
3
3
3
3
3
3
3
3
3
3
3
3
3
3
3
3
3
3
3
3
3
3
3
3
3
3
3
3
3
3
3
3
3
3
3
3
3
3
3
3
3
3
3
3
3
3
3
3
3
3
3
3
3
3
3
3
3
3
3
3
3
3
3
3
3
3
3
3
3
3
3
3
3
3
3
3
3
3
3
3
3
3
3
3
3
3
3
3
3
3
3
3
3
3
3
3
3
3
3
3
3
3
3
3
3
3
3
3
3
3
3
3
3
3
3
3
3
3
3
3
3
3
3
3
3
3
3
3
3
3
3
3
3
3
3
3
3
3
3
3
3
3
3
3
3
3
3
3
3
3
3
3
3
3
3
3
3
3
3
3
3
3
3
3
3
3
3
3
3
3
3
3
3
3
3
3
3
3
3
3
3
3
3
3
3
3
3
3
3
3
3
3
3
3
3
3
3
3
3
3
3
3
3
3
3
3
3
3
3
POINT_DATA 212
FIELD FieldData 8
DISPLACEMENT 3 212  float
0.0000000e+00 0.0000000e+00 0.0000000e+00 
-2.2473345e-04 0.0000000e+00 -7.2187586e-06 
-4.4004380e-04 0.0000000e+00 -1.4387385e-05 
-6.3650799e-04 0.0000000e+00 -2.1505879e-05 
-8.0470293e-04 0.0000000e+00 -2.8574241e-05 
-9.3520549e-04 0.0000000e+00 -3.5592471e-05 
-1.0185926e-03 0.0000000e+00 -4.2560569e-05 
-1.0454413e-03 0.0000000e+00 -4.9478534e-05 
-1.0063283e-03 0.0000000e+00 -5.6346365e-05 
-8.9183054e-04 0.0000000e+00 -6.3164065e-05 
-6.9252506e-04 0.0000000e+00 -6.9931637e-05 
-3.9898866e-04 0.0000000e+00 -7.6649070e-05 
-1.7983380e-06 0.0000000e+00 -8.3316372e-05 
3.5567250e-04 0.0000000e+00 -8.9327834e-05 
5.4450403e-04 0.0000000e+00 -9.5289150e-05 
5.9579976e-04 0.0000000e+00 -1.0120034e-04 
5.4066331e-04 0.0000000e+00 -1.0706140e-04 
4.1019818e-04 0.0000000e+00 -1.1287232e-04 
2.3550792e-04 0.0000000e+00 -1.1863312e-04 
4.7696096e-05 0.0000000e+00 -1.2434379e-04 
-1.2213376e-04 0.0000000e+00 -1.3000431e-04 
-2.4287810e-04 0.0000000e+00 -1.3561471e-04 
-2.8343336e-04 0.0000000e+00 -1.4117497e-04 
-2.1269602e-04 0.0000000e+00 -1.4668510e-04 
4.3749546e-07 0.0000000e+00 -1.5214510e-04 
2.2322091e-04 0.0000000e+00 -1.5694925e-04 
3.1939172e-04 0.0000000e+00 -1.6170327e-04 
3.1477911e-04 0.0000000e+00 -1.6640716e-04 
2.3521228e-04 0.0000000e+00 -1.7106091e-04 
1.0652035e-04 0.0000000e+00 -1.7566454e-04 
-4.5467466e-05 0.0000000e+00 -1.8021802e-04 
-1.9492200e-04 0.0000000e+00 -1.8472137e-04 
-3.1601408e-04 0.0000000e+00 -1.8917461e-04 
-3.8291453e-04 0.0000000e+00 -1.9357770e-04 
-3.6979417e-04 0.0000000e+00 -1.9793065e-04 
-2.5082385e-04 0.0000000e+00 -2.0223348e-04 
-1.7434111e-07 0.0000000e+00 -2.0648618e-04 
2.4662970e-04 0.0000000e+00 -2.1008303e-04 
3.5546487e-04 0.0000000e+00 -2.1362974e-04 
3.5426219e-04 0.0000000e+00 -2.1712632e-04 
2.7095262e-04 0.0000000e+00 -2.2057277e-04 
1.3346720e-04 0.0000000e+00 -2.2396908e-04 
-3.0263069e-05 0.0000000e+00 -2.2731528e-04 
-1.9230720e-04 0.0000000e+00 -2.3061133e-04 
-3.2473417e-04 0.0000000e+00 -2.3385725e-04 
-3.9961300e-04 0.0000000e+00 -2.3705303e-04 
-3.8901265e-04 0.0000000e+00 -2.4019869e-04 
-2.6500216e-04 0.0000000e+00 -2.4329421e-04 
3.4949639e-07 0.0000000e+00 -2.4633959e-04 
2.7341006e-04 0.0000000e+00 -2.4872913e-04 
4.1773822e-04 0.0000000e+00 -2.5106856e-04 
4.5705159e-04 0.0000000e+00 -2.5335784e-04 
4.1506765e-04 0.0000000e+00 -2.5559697e-04 
3.1550394e-04 0.0000000e+00 -2.5778599e-04 
1.8207800e-04 0.0000000e+00 -2.5992488e-04 
3.8507376e-05 0.0000000e+00 -2.6201364e-04 
-9.1490416e-05 0.0000000e+00 -2.6405224e-04 
-1.8419784e-04 0.0000000e+00 -2.6604073e-04 
-2.1589737e-04 0.0000000e+00 -2.6797908e-04 
-1.6287145e-04 0.0000000e+00 -2.6986731e-04 
-1.4025654e-06 0.0000000e+00 -2.7170539e-04 
1.2911162e-04 0.0000000e+00 -2.7288761e-04 
1.0054618e-04 0.0000000e+00 -2.7401972e-04 
-4.6472262e-05 0.0000000e+00 -2.7510169e-04 
-2.7131708e-04 0.0000000e+00 -2.7613353e-04 
-5.3336169e-04 0.0000000e+00 -2.7711524e-04 
-7.9197937e-04 0.0000000e+00 -2.7804682e-04 
-1.0065435e-03 0.0000000e+00 -2.7892826e-04 
-1.1364276e-03 0.0000000e+00 -2.7975958e-04 
-1.1410050e-03 0.0000000e+00 -2.8054076e-04 
-9.7964890e-04 0.0000000e+00 -2.8127182e-04 
-6.1173283e-04 0.0000000e+00 -2.8195273e-04 
3.3698732e-06 0.0000000e+00 -2.8258350e-04 
-1.4986150e-06 0.0000000e+00 -1.5013355e-03 
3.6457953e-07 0.0000000e+00 -1.2814896e-03 
-1.4528426e-07 0.0000000e+00 -1.3915629e-03 
2.9124701e-07 0.0000000e+00 -1.4685115e-03 
-1.1688045e-06 0.0000000e+00 -1.2706940e-03 
2.8082277e-06 0.0000000e+00 -2.2507492e-03 
-1.1988919e-06 0.0000000e+00 -3.5378239e-03 
2.9166364e-07 0.0000000e+00 -3.0817897e-03 
-1.1622742e-07 0.0000000e+00 -3.2374621e-03 
2.3299759e-07 0.0000000e+00 -3.3447614e-03 
-9.3504360e-07 0.0000000e+00 -2.9643392e-03 
2.2465822e-06 0.0000000e+00 -4.7373576e-03 
-8.9916898e-07 0.0000000e+00 -5.6670071e-03 
2.1874772e-07 0.0000000e+00 -5.0272709e-03 
-8.7170562e-08 0.0000000e+00 -5.2184090e-03 
1.7474819e-07 0.0000000e+00 -5.3493143e-03 
-7.0128272e-07 0.0000000e+00 -4.8268666e-03 
1.6849366e-06 0.0000000e+00 -7.2166338e-03 
-5.9944603e-07 0.0000000e+00 -7.4799494e-03 
1.4583181e-07 0.0000000e+00 -6.7089973e-03 
-5.8113717e-08 0.0000000e+00 -6.9254683e-03 
1.1649879e-07 0.0000000e+00 -7.0732352e-03 
-4.6752183e-07 0.0000000e+00 -6.4493404e-03 
1.1232911e-06 0.0000000e+00 -9.2796423e-03 
-2.9972301e-07 0.0000000e+00 -8.6845532e-03 
7.2915896e-08 0.0000000e+00 -7.8348722e-03 
-2.9056864e-08 0.0000000e+00 -8.0665424e-03 
5.8249388e-08 0.0000000e+00 -8.2244258e-03 
-2.3376091e-07 0.0000000e+00 -7.5396630e-03 
5.6164555e-07 0.0000000e+00 -1.0634286e-02 
-9.4513190e-15 0.0000000e+00 -9.1055613e-03 
-1.2465273e-14 0.0000000e+00 -8.2296366e-03 
-1.3570891e-14 0.0000000e+00 -8.4663741e-03 
-1.4056205e-14 0.0000000e+00 -8.6276298e-03 
-1.4447673e-14 0.0000000e+00 -7.9225777e-03 
-1.4357239e-14 0.0000000e+00 -1.1105307e-02 
2.9972298e-07 0.0000000e+00 -8.6845532e-03 
-7.2915924e-08 0.0000000e+00 -7.8348722e-03 
2.9056837e-08 0.0000000e+00 -8.0665424e-03 
-5.8249416e-08 0.0000000e+00 -8.2244258e-03 
2.3376089e-07 0.0000000e+00 -7.5396630e-03 
-5.6164555e-07 0.0000000e+00 -1.0634286e-02 
5.9944597e-07 0.0000000e+00 -7.4799494e-03 
-1.4583183e-07 0.0000000e+00 -6.7089973e-03 
5.8113688e-08 0.0000000e+00 -6.9254683e-03 
-1.1649882e-07 0.0000000e+00 -7.0732352e-03 
4.6752180e-07 0.0000000e+00 -6.4493404e-03 
-1.1232911e-06 0.0000000e+00 -9.2796423e-03 
8.9916898e-07 0.0000000e+00 -5.6670071e-03 
-2.1874774e-07 0.0000000e+00 -5.0272709e-03 
8.7170541e-08 0.0000000e+00 -5.2184090e-03 
-1.7474822e-07 0.0000000e+00 -5.3493143e-03 
7.0128272e-07 0.0000000e+00 -4.8268666e-03 
-1.6849367e-06 0.0000000e+00 -7.2166338e-03 
1.1988919e-06 0.0000000e+00 -3.5378239e-03 
-2.9166367e-07 0.0000000e+00 -3.0817897e-03 
1.1622739e-07 0.0000000e+00 -3.2374621e-03 
-2.3299762e-07 0.0000000e+00 -3.3447614e-03 
9.3504360e-07 0.0000000e+00 -2.9643392e-03 
-2.2465822e-06 0.0000000e+00 -4.7373576e-03 
1.4986150e-06 0.0000000e+00 -1.5013355e-03 
-3.6457956e-07 0.0000000e+00 -1.2814896e-03 
1.4528423e-07 0.0000000e+00 -1.3915629e-03 
-2.9124703e-07 0.0000000e+00 -1.4685115e-03 
1.1688045e-06 0.0000000e+00 -1.2706940e-03 
-2.8082277e-06 0.0000000e+00 -2.2507492e-03 
0.0000000e+00 0.0000000e+00 0.0000000e+00 
2.2473345e-04 0.0000000e+00 -7.2187586e-06 
4.4004380e-04 0.0000000e+00 -1.4387385e-05 
6.3650799e-04 0.0000000e+00 -2.1505879e-05 
8.0470293e-04 0.0000000e+00 -2.8574241e-05 
9.3520549e-04 0.0000000e+00 -3.5592471e-05 
1.0185926e-03 0.0000000e+00 -4.2560569e-05 
1.0454413e-03 0.0000000e+00 -4.9478534e-05 
1.0063283e-03 0.0000000e+00 -5.6346365e-05 
8.9183054e-04 0.0000000e+00 -6.3164065e-05 
6.9252506e-04 0.0000000e+00 -6.9931637e-05 
3.9898866e-04 0.0000000e+00 -7.6649070e-05 
1.7983380e-06 0.0000000e+00 -8.3316372e-05 
-3.5567250e-04 0.0000000e+00 -8.9327834e-05 
-5.4450403e-04 0.0000000e+00 -9.5289150e-05 
-5.9579976e-04 0.0000000e+00 -1.0120034e-04 
-5.4066331e-04 0.0000000e+00 -1.0706140e-04 
-4.1019818e-04 0.0000000e+00 -1.1287232e-04 
-2.3550792e-04 0.0000000e+00 -1.1863312e-04 
-4.7696096e-05 0.0000000e+00 -1.2434379e-04 
1.2213376e-04 0.0000000e+00 -1.3000431e-04 
2.4287810e-04 0.0000000e+00 -1.3561471e-04 
2.8343336e-04 0.0000000e+00 -1.4117497e-04 
2.1269602e-04 0.0000000e+00 -1.4668510e-04 
-4.3749549e-07 0.0000000e+00 -1.5214510e-04 
-2.2322091e-04 0.0000000e+00 -1.5694925e-04 
-3.1939172e-04 0.0000000e+00 -1.6170327e-04 
-3.1477911e-04 0.0000000e+00 -1.6640716e-04 
-2.3521228e-04 0.0000000e+00 -1.7106091e-04 
-1.0652035e-04 0.0000000e+00 -1.7566454e-04 
4.5467466e-05 0.0000000e+00 -1.8021802e-04 
1.9492200e-04 0.0000000e+00 -1.8472137e-04 
3.1601408e-04 0.0000000e+00 -1.8917461e-04 
3.8291453e-04 0.0000000e+00 -1.9357770e-04 
3.6979417e-04 0.0000000e+00 -1.9793065e-04 
2.5082385e-04 0.0000000e+00 -2.0223348e-04 
1.7434110e-07 0.0000000e+00 -2.0648618e-04 
-2.4662970e-04 0.0000000e+00 -2.1008303e-04 
-3.5546487e-04 0.0000000e+00 -2.1362974e-04 
-3.5426219e-04 0.0000000e+00 -2.1712632e-04 
-2.7095262e-04 0.0000000e+00 -2.2057277e-04 
-1.3346720e-04 0.0000000e+00 -2.2396908e-04 
3.0263069e-05 0.0000000e+00 -2.2731528e-04 
1.9230720e-04 0.0000000e+00 -2.3061133e-04 
3.2473417e-04 0.0000000e+00 -2.3385725e-04 
3.9961300e-04 0.0000000e+00 -2.3705303e-04 
3.8901265e-04 0.0000000e+00 -2.4019869e-04 
2.6500216e-04 0.0000000e+00 -2.4329421e-04 
-3.4949642e-07 0.0000000e+00 -2.4633959e-04 
-2.7341006e-04 0.0000000e+00 -2.4872913e-04 
-4.1773822e-04 0.0000000e+00 -2.5106856e-04 
-4.5705159e-04 0.0000000e+00 -2.5335784e-04 
-4.1506765e-04 0.0000000e+00 -2.5559697e-04 
-3.1550394e-04 0.0000000e+00 -2.5778599e-04 
-1.8207800e-04 0.0000000e+00 -2.5992488e-04 
-3.8507376e-05 0.0000000e+00 -2.6201364e-04 
9.1490416e-05 0.0000000e+00 -2.6405224e-04 
1.8419784e-04 0.0000000e+00 -2.6604073e-04 
2.1589737e-04 0.0000000e+00 -2.6797908e-04 
1.6287145e-04 0.0000000e+00 -2.6986731e-04 
1.4025654e-06 0.0000000e+00 -2.7170539e-04 
-1.2911162e-04 0.0000000e+00 -2.7288761e-04 
-1.0054618e-04 0.0000000e+00 -2.7401972e-04 
4.6472262e-05 0.0000000e+00 -2.7510169e-04 
2.7131708e-04 0.0000000e+00 -2.7613353e-04 
5.3336169e-04 0.0000000e+00 -2.7711524e-04 
7.9197937e-04 0.0000000e+00 -2.7804682e-04 
1.0065435e-03 0.0000000e+00 -2.7892826e-04 
1.1364276e-03 0.0000000e+00 -2.7975958e-04 
1.1410050e-03 0.0000000e+00 -2.8054076e-04 
9.7964890e-04 0.0000000e+00 -2.8127182e-04 
6.1173283e-04 0.0000000e+00 -2.8195273e-04 
-3.3698734e-06 0.0000000e+00 -2.8258350e-04 
ROTATION 3 212  float
0.0000000e+00 -9.0521586e-04 0.0000000e+00 
0.0000000e+00 -8.8636967e-04 0.0000000e+00 
0.0000000e+00 -8.2983117e-04 0.0000000e+00 
0.0000000e+00 -7.3560030e-04 0.0000000e+00 
0.0000000e+00 -6.0367706e-04 0.0000000e+00 
0.0000000e+00 -4.3406148e-04 0.0000000e+00 
0.0000000e+00 -2.2675355e-04 0.0000000e+00 
0.0000000e+00 1.8246728e-05 0.0000000e+00 
0.0000000e+00 3.0093937e-04 0.0000000e+00 
0.0000000e+00 6.2132435e-04 0.0000000e+00 
0.0000000e+00 9.7940164e-04 0.0000000e+00 
0.0000000e+00 1.3751714e-03 0.0000000e+00 
0.0000000e+00 1.8086333e-03 0.0000000e+00 
0.0000000e+00 1.0718690e-03 0.0000000e+00 
0.0000000e+00 4.5951887e-04 0.0000000e+00 
0.0000000e+00 -2.8417111e-05 0.0000000e+00 
0.0000000e+00 -3.9193890e-04 0.0000000e+00 
0.0000000e+00 -6.3104648e-04 0.0000000e+00 
0.0000000e+00 -7.4573985e-04 0.0000000e+00 
0.0000000e+00 -7.3601905e-04 0.0000000e+00 
0.0000000e+00 -6.0188409e-04 0.0000000e+00 
0.0000000e+00 -3.4333492e-04 0.0000000e+00 
0.0000000e+00 3.9628463e-05 0.0000000e+00 
0.0000000e+00 5.4700603e-04 0.0000000e+00 
0.0000000e+00 1.1787978e-03 0.0000000e+00 
0.0000000e+00 6.2068901e-04 0.0000000e+00 
0.0000000e+00 1.6589698e-04 0.0000000e+00 
0.0000000e+00 -1.8557836e-04 0.0000000e+00 
0.0000000e+00 -4.3373700e-04 0.0000000e+00 
0.0000000e+00 -5.7857891e-04 0.0000000e+00 
0.0000000e+00 -6.2010420e-04 0.0000000e+00 
0.0000000e+00 -5.5831269e-04 0.0000000e+00 
0.0000000e+00 -3.9320451e-04 0.0000000e+00 
0.0000000e+00 -1.2477963e-04 0.0000000e+00 
0.0000000e+00 2.4696195e-04 0.0000000e+00 
0.0000000e+00 7.2202022e-04 0.0000000e+00 
0.0000000e+00 1.3003952e-03 0.0000000e+00 
0.0000000e+00 6.9265778e-04 0.0000000e+00 
0.0000000e+00 1.9664428e-04 0.0000000e+00 
0.0000000e+00 -1.8764517e-04 0.0000000e+00 
0.0000000e+00 -4.6021061e-04 0.0000000e+00 
0.0000000e+00 -6.2105205e-04 0.0000000e+00 
0.0000000e+00 -6.7016948e-04 0.0000000e+00 
0.0000000e+00 -6.0756289e-04 0.0000000e+00 
0.0000000e+00 -4.3323226e-04 0.0000000e+00 
0.0000000e+00 -1.4717763e-04 0.0000000e+00 
0.0000000e+00 2.5060098e-04 0.0000000e+00 
0.0000000e+00 7.6010363e-04 0.0000000e+00 
0.0000000e+00 1.3813303e-03 0.0000000e+00 
0.0000000e+00 8.1896578e-04 0.0000000e+00 
0.0000000e+00 3.5147139e-04 0.0000000e+00 
0.0000000e+00 -2.1152859e-05 0.0000000e+00 
0.0000000e+00 -2.9890696e-04 0.0000000e+00 
0.0000000e+00 -4.8179095e-04 0.0000000e+00 
0.0000000e+00 -5.6980480e-04 0.0000000e+00 
0.0000000e+00 -5.6294852e-04 0.0000000e+00 
0.0000000e+00 -4.6122211e-04 0.0000000e+00 
0.0000000e+00 -2.6462559e-04 0.0000000e+00 
0.0000000e+00 2.6841097e-05 0.0000000e+00 
0.0000000e+00 4.1317791e-04 0.0000000e+00 
0.0000000e+00 8.9438487e-04 0.0000000e+00 
0.0000000e+00 1.7681308e-04 0.0000000e+00 
0.0000000e+00 -3.7825218e-04 0.0000000e+00 
0.0000000e+00 -7.7081093e-04 0.0000000e+00 
0.0000000e+00 -1.0008632e-03 0.0000000e+00 
0.0000000e+00 -1.0684090e-03 0.0000000e+00 
0.0000000e+00 -9.7344822e-04 0.0000000e+00 
0.0000000e+00 -7.1598095e-04 0.0000000e+00 
0.0000000e+00 -2.9600720e-04 0.0000000e+00 
0.0000000e+00 2.8647308e-04 0.0000000e+00 
0.0000000e+00 1.0314598e-03 0.0000000e+00 
0.0000000e+00 1.9389531e-03 0.0000000e+00 
0.0000000e+00 3.0089528e-03 0.0000000e+00 
0.0000000e+00 3.6492390e-03 0.0000000e+00 
0.0000000e+00 3.1243761e-03 0.0000000e+00 
0.0000000e+00 3.2257072e-03 0.0000000e+00 
0.0000000e+00 3.2931531e-03 0.0000000e+00 
0.0000000e+00 2.8873652e-03 0.0000000e+00 
0.0000000e+00 4.6495050e-03 0.0000000e+00 
0.0000000e+00 4.3214569e-03 0.0000000e+00 
0.0000000e+00 3.9015664e-03 0.0000000e+00 
0.0000000e+00 3.9826310e-03 0.0000000e+00 
0.0000000e+00 4.0365881e-03 0.0000000e+00 
0.0000000e+00 3.7119577e-03 0.0000000e+00 
0.0000000e+00 5.1216697e-03 0.0000000e+00 
0.0000000e+00 4.0589641e-03 0.0000000e+00 
0.0000000e+00 3.7440462e-03 0.0000000e+00 
0.0000000e+00 3.8048450e-03 0.0000000e+00 
0.0000000e+00 3.8453124e-03 0.0000000e+00 
0.0000000e+00 3.6018398e-03 0.0000000e+00 
0.0000000e+00 4.6591237e-03 0.0000000e+00 
0.0000000e+00 3.0954387e-03 0.0000000e+00 
0.0000000e+00 2.8854934e-03 0.0000000e+00 
0.0000000e+00 2.9260260e-03 0.0000000e+00 
0.0000000e+00 2.9530043e-03 0.0000000e+00 
0.0000000e+00 2.7906892e-03 0.0000000e+00 
0.0000000e+00 3.4955451e-03 0.0000000e+00 
0.0000000e+00 1.6645581e-03 0.0000000e+00 
0.0000000e+00 1.5595856e-03 0.0000000e+00 
0.0000000e+00 1.5798517e-03 0.0000000e+00 
0.0000000e+00 1.5933409e-03 0.0000000e+00 
0.0000000e+00 1.5121833e-03 0.0000000e+00 
0.0000000e+00 1.8646114e-03 0.0000000e+00 
0.0000000e+00 7.5277062e-16 0.0000000e+00 
0.0000000e+00 2.3480918e-16 0.0000000e+00 
0.0000000e+00 1.0359228e-16 0.0000000e+00 
0.0000000e+00 6.2155370e-17 0.0000000e+00 
0.0000000e+00 6.9061524e-18 0.0000000e+00 
0.0000000e+00 7.6869411e-17 0.0000000e+00 
0.0000000e+00 -1.6645581e-03 0.0000000e+00 
0.0000000e+00 -1.5595856e-03 0.0000000e+00 
0.0000000e+00 -1.5798517e-03 0.0000000e+00 
0.0000000e+00 -1.5933409e-03 0.0000000e+00 
0.0000000e+00 -1.5121833e-03 0.0000000e+00 
0.0000000e+00 -1.8646114e-03 0.0000000e+00 
0.0000000e+00 -3.0954387e-03 0.0000000e+00 
0.0000000e+00 -2.8854934e-03 0.0000000e+00 
0.0000000e+00 -2.9260260e-03 0.0000000e+00 
0.0000000e+00 -2.9530043e-03 0.0000000e+00 
0.0000000e+00 -2.7906892e-03 0.0000000e+00 
0.0000000e+00 -3.4955451e-03 0.0000000e+00 
0.0000000e+00 -4.0589641e-03 0.0000000e+00 
0.0000000e+00 -3.7440462e-03 0.0000000e+00 
0.0000000e+00 -3.8048450e-03 0.0000000e+00 
0.0000000e+00 -3.8453124e-03 0.0000000e+00 
0.0000000e+00 -3.6018398e-03 0.0000000e+00 
0.0000000e+00 -4.6591237e-03 0.0000000e+00 
0.0000000e+00 -4.3214569e-03 0.0000000e+00 
0.0000000e+00 -3.9015664e-03 0.0000000e+00 
0.0000000e+00 -3.9826310e-03 0.0000000e+00 
0.0000000e+00 -4.0365881e-03 0.0000000e+00 
0.0000000e+00 -3.7119577e-03 0.0000000e+00 
0.0000000e+00 -5.1216697e-03 0.0000000e+00 
0.0000000e+00 -3.6492390e-03 0.0000000e+00 
0.0000000e+00 -3.1243761e-03 0.0000000e+00 
0.0000000e+00 -3.2257072e-03 0.0000000e+00 
0.0000000e+00 -3.2931531e-03 0.0000000e+00 
0.0000000e+00 -2.8873652e-03 0.0000000e+00 
0.0000000e+00 -4.6495050e-03 0.0000000e+00 
0.0000000e+00 9.0521586e-04 0.0000000e+00 
0.0000000e+00 8.8636967e-04 0.0000000e+00 
0.0000000e+00 8.2983117e-04 0.0000000e+00 
0.0000000e+00 7.3560030e-04 0.0000000e+00 
0.0000000e+00 6.0367706e-04 0.0000000e+00 
0.0000000e+00 4.3406148e-04 0.0000000e+00 
0.0000000e+00 2.2675355e-04 0.0000000e+00 
0.0000000e+00 -1.8246728e-05 0.0000000e+00 
0.0000000e+00 -3.0093937e-04 0.0000000e+00 
0.0000000e+00 -6.2132435e-04 0.0000000e+00 
0.0000000e+00 -9.7940164e-04 0.0000000e+00 
0.0000000e+00 -1.3751714e-03 0.0000000e+00 
0.0000000e+00 -1.8086333e-03 0.0000000e+00 
0.0000000e+00 -1.0718690e-03 0.0000000e+00 
0.0000000e+00 -4.5951887e-04 0.0000000e+00 
0.0000000e+00 2.8417111e-05 0.0000000e+00 
0.0000000e+00 3.9193890e-04 0.0000000e+00 
0.0000000e+00 6.3104648e-04 0.0000000e+00 
0.0000000e+00 7.4573985e-04 0.0000000e+00 
0.0000000e+00 7.3601905e-04 0.0000000e+00 
0.0000000e+00 6.0188409e-04 0.0000000e+00 
0.0000000e+00 3.4333492e-04 0.0000000e+00 
0.0000000e+00 -3.9628463e-05 0.0000000e+00 
0.0000000e+00 -5.4700603e-04 0.0000000e+00 
0.0000000e+00 -1.1787978e-03 0.0000000e+00 
0.0000000e+00 -6.2068901e-04 0.0000000e+00 
0.0000000e+00 -1.6589698e-04 0.0000000e+00 
0.0000000e+00 1.8557836e-04 0.0000000e+00 
0.0000000e+00 4.3373700e-04 0.0000000e+00 
0.0000000e+00 5.7857891e-04 0.0000000e+00 
0.0000000e+00 6.2010420e-04 0.0000000e+00 
0.0000000e+00 5.5831269e-04 0.0000000e+00 
0.0000000e+00 3.9320451e-04 0.0000000e+00 
0.0000000e+00 1.2477963e-04 0.0000000e+00 
0.0000000e+00 -2.4696195e-04 0.0000000e+00 
0.0000000e+00 -7.2202022e-04 0.0000000e+00 
0.0000000e+00 -1.3003952e-03 0.0000000e+00 
0.0000000e+00 -6.9265778e-04 0.0000000e+00 
0.0000000e+00 -1.9664428e-04 0.0000000e+00 
0.0000000e+00 1.8764517e-04 0.0000000e+00 
0.0000000e+00 4.6021061e-04 0.0000000e+00 
0.0000000e+00 6.2105205e-04 0.0000000e+00 
0.0000000e+00 6.7016948e-04 0.0000000e+00 
0.0000000e+00 6.0756289e-04 0.0000000e+00 
0.0000000e+00 4.3323226e-04 0.0000000e+00 
0.0000000e+00 1.4717763e-04 0.0000000e+00 
0.0000000e+00 -2.5060098e-04 0.0000000e+00 
0.0000000e+00 -7.6010363e-04 0.0000000e+00 
0.0000000e+00 -1.3813303e-03 0.0000000e+00 
0.0000000e+00 -8.1896578e-04 0.0000000e+00 
0.0000000e+00 -3.5147139e-04 0.0000000e+00 
0.0000000e+00 2.1152859e-05 0.0000000e+00 
0.0000000e+00 2.9890696e-04 0.0000000e+00 
0.0000000e+00 4.8179095e-04 0.0000000e+00 
0.0000000e+00 5.6980480e-04 0.0000000e+00 
0.0000000e+00 5.6294852e-04 0.0000000e+00 
0.0000000e+00 4.6122211e-04 0.0000000e+00 
0.0000000e+00 2.6462559e-04 0.0000000e+00 
0.0000000e+00 -2.6841097e-05 0.0000000e+00 
0.0000000e+00 -4.1317791e-04 0.0000000e+00 
0.0000000e+00 -8.9438487e-04 0.0000000e+00 
0.0000000e+00 -1.7681308e-04 0.0000000e+00 
0.0000000e+00 3.7825218e-04 0.0000000e+00 
0.0000000e+00 7.7081093e-04 0.0000000e+00 
0.0000000e+00 1.0008632e-03 0.0000000e+00 