# vtk DataFile Version 4.0
vtk output
ASCII
DATASET UNSTRUCTURED_GRID
POINTS 356 float
0.0000000e+00 0.0000000e+00 0.0000000e+00 
0.0000000e+00 0.0000000e+00 1.5000001e-01 
0.0000000e+00 0.0000000e+00 3.0000001e-01 
0.0000000e+00 0.0000000e+00 4.4999999e-01 
0.0000000e+00 0.0000000e+00 6.0000002e-01 
0.0000000e+00 0.0000000e+00 7.5000000e-01 
0.0000000e+00 0.0000000e+00 8.9999998e-01 
0.0000000e+00 0.0000000e+00 1.0500000e+00 
0.0000000e+00 0.0000000e+00 1.2000000e+00 
0.0000000e+00 0.0000000e+00 1.3500000e+00 
0.0000000e+00 0.0000000e+00 1.5000000e+00 
0.0000000e+00 0.0000000e+00 1.6500000e+00 
0.0000000e+00 0.0000000e+00 1.8000000e+00 
0.0000000e+00 0.0000000e+00 1.9500000e+00 
0.0000000e+00 0.0000000e+00 2.0999999e+00 
0.0000000e+00 0.0000000e+00 2.2500000e+00 
0.0000000e+00 0.0000000e+00 2.4000001e+00 
0.0000000e+00 0.0000000e+00 2.5500000e+00 
0.0000000e+00 0.0000000e+00 2.7000000e+00 
0.0000000e+00 0.0000000e+00 2.8499999e+00 
0.0000000e+00 0.0000000e+00 3.0000000e+00 
0.0000000e+00 0.0000000e+00 3.1500001e+00 
0.0000000e+00 0.0000000e+00 3.3000000e+00 
0.0000000e+00 0.0000000e+00 3.4500000e+00 
0.0000000e+00 0.0000000e+00 3.5999999e+00 
0.0000000e+00 0.0000000e+00 3.7500000e+00 
0.0000000e+00 0.0000000e+00 3.9000001e+00 
0.0000000e+00 0.0000000e+00 4.0500002e+00 
0.0000000e+00 0.0000000e+00 4.1999998e+00 
0.0000000e+00 0.0000000e+00 4.3499999e+00 
0.0000000e+00 0.0000000e+00 4.5000000e+00 
0.0000000e+00 0.0000000e+00 4.6500001e+00 
0.0000000e+00 0.0000000e+00 4.8000002e+00 
0.0000000e+00 0.0000000e+00 4.9499998e+00 
0.0000000e+00 0.0000000e+00 5.0999999e+00 
0.0000000e+00 0.0000000e+00 5.2500000e+00 
0.0000000e+00 0.0000000e+00 5.4000001e+00 
0.0000000e+00 0.0000000e+00 5.5500002e+00 
0.0000000e+00 0.0000000e+00 5.6999998e+00 
0.0000000e+00 0.0000000e+00 5.8499999e+00 
0.0000000e+00 0.0000000e+00 6.0000000e+00 
0.0000000e+00 0.0000000e+00 6.1500001e+00 
0.0000000e+00 0.0000000e+00 6.3000002e+00 
0.0000000e+00 0.0000000e+00 6.4499998e+00 
0.0000000e+00 0.0000000e+00 6.5999999e+00 
0.0000000e+00 0.0000000e+00 6.7500000e+00 
0.0000000e+00 0.0000000e+00 6.9000001e+00 
0.0000000e+00 0.0000000e+00 7.0500002e+00 
0.0000000e+00 0.0000000e+00 7.1999998e+00 
0.0000000e+00 0.0000000e+00 7.3499999e+00 
0.0000000e+00 0.0000000e+00 7.5000000e+00 
0.0000000e+00 0.0000000e+00 7.6500001e+00 
0.0000000e+00 0.0000000e+00 7.8000002e+00 
0.0000000e+00 0.0000000e+00 7.9499998e+00 
0.0000000e+00 0.0000000e+00 8.1000004e+00 
0.0000000e+00 0.0000000e+00 8.2500000e+00 
0.0000000e+00 0.0000000e+00 8.3999996e+00 
0.0000000e+00 0.0000000e+00 8.5500002e+00 
0.0000000e+00 0.0000000e+00 8.6999998e+00 
0.0000000e+00 0.0000000e+00 8.8500004e+00 
0.0000000e+00 0.0000000e+00 9.0000000e+00 
0.0000000e+00 0.0000000e+00 9.1499996e+00 
0.0000000e+00 0.0000000e+00 9.3000002e+00 
0.0000000e+00 0.0000000e+00 9.4499998e+00 
0.0000000e+00 0.0000000e+00 9.6000004e+00 
0.0000000e+00 0.0000000e+00 9.7500000e+00 
0.0000000e+00 0.0000000e+00 9.8999996e+00 
0.0000000e+00 0.0000000e+00 1.0050000e+01 
0.0000000e+00 0.0000000e+00 1.0200000e+01 
0.0000000e+00 0.0000000e+00 1.0350000e+01 
0.0000000e+00 0.0000000e+00 1.0500000e+01 
0.0000000e+00 0.0000000e+00 1.0650000e+01 
0.0000000e+00 0.0000000e+00 1.0800000e+01 
0.0000000e+00 0.0000000e+00 1.0950000e+01 
0.0000000e+00 0.0000000e+00 1.1100000e+01 
0.0000000e+00 0.0000000e+00 1.1250000e+01 
0.0000000e+00 0.0000000e+00 1.1400000e+01 
0.0000000e+00 0.0000000e+00 1.1550000e+01 
0.0000000e+00 0.0000000e+00 1.1700000e+01 
0.0000000e+00 0.0000000e+00 1.1850000e+01 
0.0000000e+00 0.0000000e+00 1.2000000e+01 
0.0000000e+00 0.0000000e+00 1.2150000e+01 
0.0000000e+00 0.0000000e+00 1.2300000e+01 
0.0000000e+00 0.0000000e+00 1.2450000e+01 
0.0000000e+00 0.0000000e+00 1.2600000e+01 
0.0000000e+00 0.0000000e+00 1.2750000e+01 
0.0000000e+00 0.0000000e+00 1.2900000e+01 
0.0000000e+00 0.0000000e+00 1.3050000e+01 
0.0000000e+00 0.0000000e+00 1.3200000e+01 
0.0000000e+00 0.0000000e+00 1.3350000e+01 
0.0000000e+00 0.0000000e+00 1.3500000e+01 
0.0000000e+00 0.0000000e+00 1.3650000e+01 
0.0000000e+00 0.0000000e+00 1.3800000e+01 
0.0000000e+00 0.0000000e+00 1.3950000e+01 
0.0000000e+00 0.0000000e+00 1.4100000e+01 
0.0000000e+00 0.0000000e+00 1.4250000e+01 
0.0000000e+00 0.0000000e+00 1.4400000e+01 
0.0000000e+00 0.0000000e+00 1.4550000e+01 
0.0000000e+00 0.0000000e+00 1.4700000e+01 
0.0000000e+00 0.0000000e+00 1.4850000e+01 
0.0000000e+00 0.0000000e+00 1.5000000e+01 
0.0000000e+00 0.0000000e+00 1.5150000e+01 
0.0000000e+00 0.0000000e+00 1.5300000e+01 
0.0000000e+00 0.0000000e+00 1.5450000e+01 
0.0000000e+00 0.0000000e+00 1.5600000e+01 
0.0000000e+00 0.0000000e+00 1.5750000e+01 
0.0000000e+00 0.0000000e+00 1.5900000e+01 
0.0000000e+00 0.0000000e+00 1.6049999e+01 
0.0000000e+00 0.0000000e+00 1.6200001e+01 
0.0000000e+00 0.0000000e+00 1.6350000e+01 
0.0000000e+00 0.0000000e+00 1.6500000e+01 
0.0000000e+00 0.0000000e+00 1.6650000e+01 
0.0000000e+00 0.0000000e+00 1.6799999e+01 
0.0000000e+00 0.0000000e+00 1.6950001e+01 
0.0000000e+00 0.0000000e+00 1.7100000e+01 
0.0000000e+00 0.0000000e+00 1.7250000e+01 
0.0000000e+00 0.0000000e+00 1.7400000e+01 
0.0000000e+00 0.0000000e+00 1.7549999e+01 
0.0000000e+00 0.0000000e+00 1.7700001e+01 
0.0000000e+00 0.0000000e+00 1.7850000e+01 
0.0000000e+00 0.0000000e+00 1.8000000e+01 
6.0000000e+00 0.0000000e+00 0.0000000e+00 
6.0000000e+00 0.0000000e+00 1.5000001e-01 
6.0000000e+00 0.0000000e+00 3.0000001e-01 
6.0000000e+00 0.0000000e+00 4.4999999e-01 
6.0000000e+00 0.0000000e+00 6.0000002e-01 
6.0000000e+00 0.0000000e+00 7.5000000e-01 
6.0000000e+00 0.0000000e+00 8.9999998e-01 
6.0000000e+00 0.0000000e+00 1.0500000e+00 
6.0000000e+00 0.0000000e+00 1.2000000e+00 
6.0000000e+00 0.0000000e+00 1.3500000e+00 
6.0000000e+00 0.0000000e+00 1.5000000e+00 
6.0000000e+00 0.0000000e+00 1.6500000e+00 
6.0000000e+00 0.0000000e+00 1.8000000e+00 
6.0000000e+00 0.0000000e+00 1.9500000e+00 
6.0000000e+00 0.0000000e+00 2.0999999e+00 
6.0000000e+00 0.0000000e+00 2.2500000e+00 
6.0000000e+00 0.0000000e+00 2.4000001e+00 
6.0000000e+00 0.0000000e+00 2.5500000e+00 
6.0000000e+00 0.0000000e+00 2.7000000e+00 
6.0000000e+00 0.0000000e+00 2.8499999e+00 
6.0000000e+00 0.0000000e+00 3.0000000e+00 
6.0000000e+00 0.0000000e+00 3.1500001e+00 
6.0000000e+00 0.0000000e+00 3.3000000e+00 
6.0000000e+00 0.0000000e+00 3.4500000e+00 
6.0000000e+00 0.0000000e+00 3.5999999e+00 
6.0000000e+00 0.0000000e+00 3.7500000e+00 
6.0000000e+00 0.0000000e+00 3.9000001e+00 
6.0000000e+00 0.0000000e+00 4.0500002e+00 
6.0000000e+00 0.0000000e+00 4.1999998e+00 
6.0000000e+00 0.0000000e+00 4.3499999e+00 
6.0000000e+00 0.0000000e+00 4.5000000e+00 
6.0000000e+00 0.0000000e+00 4.6500001e+00 
6.0000000e+00 0.0000000e+00 4.8000002e+00 
6.0000000e+00 0.0000000e+00 4.9499998e+00 
6.0000000e+00 0.0000000e+00 5.0999999e+00 
6.0000000e+00 0.0000000e+00 5.2500000e+00 
6.0000000e+00 0.0000000e+00 5.4000001e+00 
6.0000000e+00 0.0000000e+00 5.5500002e+00 
6.0000000e+00 0.0000000e+00 5.6999998e+00 
6.0000000e+00 0.0000000e+00 5.8499999e+00 
6.0000000e+00 0.0000000e+00 6.0000000e+00 
6.0000000e+00 0.0000000e+00 6.1500001e+00 
6.0000000e+00 0.0000000e+00 6.3000002e+00 
6.0000000e+00 0.0000000e+00 6.4499998e+00 
6.0000000e+00 0.0000000e+00 6.5999999e+00 
6.0000000e+00 0.0000000e+00 6.7500000e+00 
6.0000000e+00 0.0000000e+00 6.9000001e+00 
6.0000000e+00 0.0000000e+00 7.0500002e+00 
6.0000000e+00 0.0000000e+00 7.1999998e+00 
6.0000000e+00 0.0000000e+00 7.3499999e+00 
6.0000000e+00 0.0000000e+00 7.5000000e+00 
6.0000000e+00 0.0000000e+00 7.6500001e+00 
6.0000000e+00 0.0000000e+00 7.8000002e+00 
6.0000000e+00 0.0000000e+00 7.9499998e+00 
6.0000000e+00 0.0000000e+00 8.1000004e+00 
6.0000000e+00 0.0000000e+00 8.2500000e+00 
6.0000000e+00 0.0000000e+00 8.3999996e+00 
6.0000000e+00 0.0000000e+00 8.5500002e+00 
6.0000000e+00 0.0000000e+00 8.6999998e+00 
6.0000000e+00 0.0000000e+00 8.8500004e+00 
6.0000000e+00 0.0000000e+00 9.0000000e+00 
6.0000000e+00 0.0000000e+00 9.1499996e+00 
6.0000000e+00 0.0000000e+00 9.3000002e+00 
6.0000000e+00 0.0000000e+00 9.4499998e+00 
6.0000000e+00 0.0000000e+00 9.6000004e+00 
6.0000000e+00 0.0000000e+00 9.7500000e+00 
6.0000000e+00 0.0000000e+00 9.8999996e+00 
6.0000000e+00 0.0000000e+00 1.0050000e+01 
6.0000000e+00 0.0000000e+00 1.0200000e+01 
6.0000000e+00 0.0000000e+00 1.0350000e+01 
6.0000000e+00 0.0000000e+00 1.0500000e+01 
6.0000000e+00 0.0000000e+00 1.0650000e+01 
6.0000000e+00 0.0000000e+00 1.0800000e+01 
6.0000000e+00 0.0000000e+00 1.0950000e+01 
6.0000000e+00 0.0000000e+00 1.1100000e+01 
6.0000000e+00 0.0000000e+00 1.1250000e+01 
6.0000000e+00 0.0000000e+00 1.1400000e+01 
6.0000000e+00 0.0000000e+00 1.1550000e+01 
6.0000000e+00 0.0000000e+00 1.1700000e+01 
6.0000000e+00 0.0000000e+00 1.1850000e+01 
6.0000000e+00 0.0000000e+00 1.2000000e+01 
6.0000000e+00 0.0000000e+00 1.2150000e+01 
6.0000000e+00 0.0000000e+00 1.2300000e+01 
6.0000000e+00 0.0000000e+00 1.2450000e+01 
6.0000000e+00 0.0000000e+00 1.2600000e+01 
6.0000000e+00 0.0000000e+00 1.2750000e+01 
6.0000000e+00 0.0000000e+00 1.2900000e+01 
6.0000000e+00 0.0000000e+00 1.3050000e+01 
6.0000000e+00 0.0000000e+00 1.3200000e+01 
6.0000000e+00 0.0000000e+00 1.3350000e+01 
6.0000000e+00 0.0000000e+00 1.3500000e+01 
6.0000000e+00 0.0000000e+00 1.3650000e+01 
6.0000000e+00 0.0000000e+00 1.3800000e+01 
6.0000000e+00 0.0000000e+00 1.3950000e+01 
6.0000000e+00 0.0000000e+00 1.4100000e+01 
6.0000000e+00 0.0000000e+00 1.4250000e+01 
6.0000000e+00 0.0000000e+00 1.4400000e+01 
6.0000000e+00 0.0000000e+00 1.4550000e+01 
6.0000000e+00 0.0000000e+00 1.4700000e+01 
6.0000000e+00 0.0000000e+00 1.4850000e+01 
6.0000000e+00 0.0000000e+00 1.5000000e+01 
6.0000000e+00 0.0000000e+00 1.5150000e+01 
6.0000000e+00 0.0000000e+00 1.5300000e+01 
6.0000000e+00 0.0000000e+00 1.5450000e+01 
6.0000000e+00 0.0000000e+00 1.5600000e+01 
6.0000000e+00 0.0000000e+00 1.5750000e+01 
6.0000000e+00 0.0000000e+00 1.5900000e+01 
6.0000000e+00 0.0000000e+00 1.6049999e+01 
6.0000000e+00 0.0000000e+00 1.6200001e+01 
6.0000000e+00 0.0000000e+00 1.6350000e+01 
6.0000000e+00 0.0000000e+00 1.6500000e+01 
6.0000000e+00 0.0000000e+00 1.6650000e+01 
6.0000000e+00 0.0000000e+00 1.6799999e+01 
6.0000000e+00 0.0000000e+00 1.6950001e+01 
6.0000000e+00 0.0000000e+00 1.7100000e+01 
6.0000000e+00 0.0000000e+00 1.7250000e+01 
6.0000000e+00 0.0000000e+00 1.7400000e+01 
6.0000000e+00 0.0000000e+00 1.7549999e+01 
6.0000000e+00 0.0000000e+00 1.7700001e+01 
6.0000000e+00 0.0000000e+00 1.7850000e+01 
6.0000000e+00 0.0000000e+00 1.8000000e+01 
3.0000001e-01 0.0000000e+00 3.0000000e+00 
6.0000002e-01 0.0000000e+00 3.0000000e+00 
8.9999998e-01 0.0000000e+00 3.0000000e+00 
1.2000000e+00 0.0000000e+00 3.0000000e+00 
1.5000000e+00 0.0000000e+00 3.0000000e+00 
1.8000000e+00 0.0000000e+00 3.0000000e+00 
2.0999999e+00 0.0000000e+00 3.0000000e+00 
2.4000001e+00 0.0000000e+00 3.0000000e+00 
2.7000000e+00 0.0000000e+00 3.0000000e+00 
3.0000000e+00 0.0000000e+00 3.0000000e+00 
3.3000000e+00 0.0000000e+00 3.0000000e+00 
3.5999999e+00 0.0000000e+00 3.0000000e+00 
3.9000001e+00 0.0000000e+00 3.0000000e+00 
4.1999998e+00 0.0000000e+00 3.0000000e+00 
4.5000000e+00 0.0000000e+00 3.0000000e+00 
4.8000002e+00 0.0000000e+00 3.0000000e+00 
5.0999999e+00 0.0000000e+00 3.0000000e+00 
5.4000001e+00 0.0000000e+00 3.0000000e+00 
5.6999998e+00 0.0000000e+00 3.0000000e+00 
3.0000001e-01 0.0000000e+00 6.0000000e+00 
6.0000002e-01 0.0000000e+00 6.0000000e+00 
8.9999998e-01 0.0000000e+00 6.0000000e+00 
1.2000000e+00 0.0000000e+00 6.0000000e+00 
1.5000000e+00 0.0000000e+00 6.0000000e+00 
1.8000000e+00 0.0000000e+00 6.0000000e+00 
2.0999999e+00 0.0000000e+00 6.0000000e+00 
2.4000001e+00 0.0000000e+00 6.0000000e+00 
2.7000000e+00 0.0000000e+00 6.0000000e+00 
3.0000000e+00 0.0000000e+00 6.0000000e+00 
3.3000000e+00 0.0000000e+00 6.0000000e+00 
3.5999999e+00 0.0000000e+00 6.0000000e+00 
3.9000001e+00 0.0000000e+00 6.0000000e+00 
4.1999998e+00 0.0000000e+00 6.0000000e+00 
4.5000000e+00 0.0000000e+00 6.0000000e+00 
4.8000002e+00 0.0000000e+00 6.0000000e+00 
5.0999999e+00 0.0000000e+00 6.0000000e+00 
5.4000001e+00 0.0000000e+00 6.0000000e+00 
5.6999998e+00 0.0000000e+00 6.0000000e+00 
3.0000001e-01 0.0000000e+00 9.0000000e+00 
6.0000002e-01 0.0000000e+00 9.0000000e+00 
8.9999998e-01 0.0000000e+00 9.0000000e+00 
1.2000000e+00 0.0000000e+00 9.0000000e+00 
1.5000000e+00 0.0000000e+00 9.0000000e+00 
1.8000000e+00 0.0000000e+00 9.0000000e+00 
2.0999999e+00 0.0000000e+00 9.0000000e+00 
2.4000001e+00 0.0000000e+00 9.0000000e+00 
2.7000000e+00 0.0000000e+00 9.0000000e+00 
3.0000000e+00 0.0000000e+00 9.0000000e+00 
3.3000000e+00 0.0000000e+00 9.0000000e+00 
3.5999999e+00 0.0000000e+00 9.0000000e+00 
3.9000001e+00 0.0000000e+00 9.0000000e+00 
4.1999998e+00 0.0000000e+00 9.0000000e+00 
4.5000000e+00 0.0000000e+00 9.0000000e+00 
4.8000002e+00 0.0000000e+00 9.0000000e+00 
5.0999999e+00 0.0000000e+00 9.0000000e+00 
5.4000001e+00 0.0000000e+00 9.0000000e+00 
5.6999998e+00 0.0000000e+00 9.0000000e+00 
3.0000001e-01 0.0000000e+00 1.2000000e+01 
6.0000002e-01 0.0000000e+00 1.2000000e+01 
8.9999998e-01 0.0000000e+00 1.2000000e+01 
1.2000000e+00 0.0000000e+00 1.2000000e+01 
1.5000000e+00 0.0000000e+00 1.2000000e+01 
1.8000000e+00 0.0000000e+00 1.2000000e+01 
2.0999999e+00 0.0000000e+00 1.2000000e+01 
2.4000001e+00 0.0000000e+00 1.2000000e+01 
2.7000000e+00 0.0000000e+00 1.2000000e+01 
3.0000000e+00 0.0000000e+00 1.2000000e+01 
3.3000000e+00 0.0000000e+00 1.2000000e+01 
3.5999999e+00 0.0000000e+00 1.2000000e+01 
3.9000001e+00 0.0000000e+00 1.2000000e+01 
4.1999998e+00 0.0000000e+00 1.2000000e+01 
4.5000000e+00 0.0000000e+00 1.2000000e+01 
4.8000002e+00 0.0000000e+00 1.2000000e+01 
5.0999999e+00 0.0000000e+00 1.2000000e+01 
5.4000001e+00 0.0000000e+00 1.2000000e+01 
5.6999998e+00 0.0000000e+00 1.2000000e+01 
3.0000001e-01 0.0000000e+00 1.5000000e+01 
6.0000002e-01 0.0000000e+00 1.5000000e+01 
8.9999998e-01 0.0000000e+00 1.5000000e+01 
1.2000000e+00 0.0000000e+00 1.5000000e+01 
1.5000000e+00 0.0000000e+00 1.5000000e+01 
1.8000000e+00 0.0000000e+00 1.5000000e+01 
2.0999999e+00 0.0000000e+00 1.5000000e+01 
2.4000001e+00 0.0000000e+00 1.5000000e+01 
2.7000000e+00 0.0000000e+00 1.5000000e+01 
3.0000000e+00 0.0000000e+00 1.5000000e+01 
3.3000000e+00 0.0000000e+00 1.5000000e+01 
3.5999999e+00 0.0000000e+00 1.5000000e+01 
3.9000001e+00 0.0000000e+00 1.5000000e+01 
4.1999998e+00 0.0000000e+00 1.5000000e+01 
4.5000000e+00 0.0000000e+00 1.5000000e+01 
4.8000002e+00 0.0000000e+00 1.5000000e+01 
5.0999999e+00 0.0000000e+00 1.5000000e+01 
5.4000001e+00 0.0000000e+00 1.5000000e+01 
5.6999998e+00 0.0000000e+00 1.5000000e+01 
3.0000001e-01 0.0000000e+00 1.8000000e+01 
6.0000002e-01 0.0000000e+00 1.8000000e+01 
8.9999998e-01 0.0000000e+00 1.8000000e+01 
1.2000000e+00 0.0000000e+00 1.8000000e+01 
1.5000000e+00 0.0000000e+00 1.8000000e+01 
1.8000000e+00 0.0000000e+00 1.8000000e+01 
2.0999999e+00 0.0000000e+00 1.8000000e+01 
2.4000001e+00 0.0000000e+00 1.8000000e+01 
2.7000000e+00 0.0000000e+00 1.8000000e+01 
3.0000000e+00 0.0000000e+00 1.8000000e+01 
3.3000000e+00 0.0000000e+00 1.8000000e+01 
3.5999999e+00 0.0000000e+00 1.8000000e+01 
3.9000001e+00 0.0000000e+00 1.8000000e+01 
4.1999998e+00 0.0000000e+00 1.8000000e+01 
4.5000000e+00 0.0000000e+00 1.8000000e+01 
4.8000002e+00 0.0000000e+00 1.8000000e+01 
5.0999999e+00 0.0000000e+00 1.8000000e+01 
5.4000001e+00 0.0000000e+00 1.8000000e+01 
5.6999998e+00 0.0000000e+00 1.8000000e+01 

CELLS 360 1080
2 0 1
2 1 2
2 2 3
2 3 4
2 4 5
2 5 6
2 6 7
2 7 8
2 8 9
2 9 10
2 10 11
2 11 12
2 12 13
2 13 14
2 14 15
2 15 16
2 16 17
2 17 18
2 18 19
2 19 20
2 20 21
2 21 22
2 22 23
2 23 24
2 24 25
2 25 26
2 26 27
2 27 28
2 28 29
2 29 30
2 30 31
2 31 32
2 32 33
2 33 34
2 34 35
2 35 36
2 36 37
2 37 38
2 38 39
2 39 40
2 40 41
2 41 42
2 42 43
2 43 44
2 44 45
2 45 46
2 46 47
2 47 48
2 48 49
2 49 50
2 50 51
2 51 52
2 52 53
2 53 54
2 54 55
2 55 56
2 56 57
2 57 58
2 58 59
2 59 60
2 60 61
2 61 62
2 62 63
2 63 64
2 64 65
2 65 66
2 66 67
2 67 68
2 68 69
2 69 70
2 70 71
2 71 72
2 72 73
2 73 74
2 74 75
2 75 76
2 76 77
2 77 78
2 78 79
2 79 80
2 80 81
2 81 82
2 82 83
2 83 84
2 84 85
2 85 86
2 86 87
2 87 88
2 88 89
2 89 90
2 90 91
2 91 92
2 92 93
2 93 94
2 94 95
2 95 96
2 96 97
2 97 98
2 98 99
2 99 100
2 100 101
2 101 102
2 102 103
2 103 104
2 104 105
2 105 106
2 106 107
2 107 108
2 108 109
2 109 110
2 110 111
2 111 112
2 112 113
2 113 114
2 114 115
2 115 116
2 116 117
2 117 118
2 118 119
2 119 120
2 121 122
2 122 123
2 123 124
2 124 125
2 125 126
2 126 127
2 127 128
2 128 129
2 129 130
2 130 131
2 131 132
2 132 133
2 133 134
2 134 135
2 135 136
2 136 137
2 137 138
2 138 139
2 139 140
2 140 141
2 141 142
2 142 143
2 143 144
2 144 145
2 145 146
2 146 147
2 147 148
2 148 149
2 149 150
2 150 151
2 151 152
2 152 153
2 153 154
2 154 155
2 155 156
2 156 157
2 157 158
2 158 159
2 159 160
2 160 161
2 161 162
2 162 163
2 163 164
2 164 165
2 165 166
2 166 167
2 167 168
2 168 169
2 169 170
2 170 171
2 171 172
2 172 173
2 173 174
2 174 175
2 175 176
2 176 177
2 177 178
2 178 179
2 179 180
2 180 181
2 181 182
2 182 183
2 183 184
2 184 185
2 185 186
2 186 187
2 187 188
2 188 189
2 189 190
2 190 191
2 191 192
2 192 193
2 193 194
2 194 195
2 195 196
2 196 197
2 197 198
2 198 199
2 199 200
2 200 201
2 201 202
2 202 203
2 203 204
2 204 205
2 205 206
2 206 207
2 207 208
2 208 209
2 209 210
2 210 211
2 211 212
2 212 213
2 213 214
2 214 215
2 215 216
2 216 217
2 217 218
2 218 219
2 219 220
2 220 221
2 221 222
2 222 223
2 223 224
2 224 225
2 225 226
2 226 227
2 227 228
2 228 229
2 229 230
2 230 231
2 231 232
2 232 233
2 233 234
2 234 235
2 235 236
2 236 237
2 237 238
2 238 239
2 239 240
2 240 241
2 20 242
2 242 243
2 243 244
2 244 245
2 245 246
2 246 247
2 247 248
2 248 249
2 249 250
2 250 251
2 251 252
2 252 253
2 253 254
2 254 255
2 255 256
2 256 257
2 257 258
2 258 259
2 259 260
2 260 141
2 40 261
2 261 262
2 262 263
2 263 264
2 264 265
2 265 266
2 266 267
2 267 268
2 268 269
2 269 270
2 270 271
2 271 272
2 272 273
2 273 274
2 274 275
2 275 276
2 276 277
2 277 278
2 278 279
2 279 161
2 60 280
2 280 281
2 281 282
2 282 283
2 283 284
2 284 285
2 285 286
2 286 287
2 287 288
2 288 289
2 289 290
2 290 291
2 291 292
2 292 293
2 293 294
2 294 295
2 295 296
2 296 297
2 297 298
2 298 181
2 80 299
2 299 300
2 300 301
2 301 302
2 302 303
2 303 304
2 304 305
2 305 306
2 306 307
2 307 308
2 308 309
2 309 310
2 310 311
2 311 312
2 312 313
2 313 314
2 314 315
2 315 316
2 316 317
2 317 201
2 100 318
2 318 319
2 319 320
2 320 321
2 321 322
2 322 323
2 323 324
2 324 325
2 325 326
2 326 327
2 327 328
2 328 329
2 329 330
2 330 331
2 331 332
2 332 333
2 333 334
2 334 335
2 335 336
2 336 221
2 120 337
2 337 338
2 338 339
2 339 340
2 340 341
2 341 342
2 342 343
2 343 344
2 344 345
2 345 346
2 346 347
2 347 348
2 348 349
2 349 350
2 350 351
2 351 352
2 352 353
2 353 354
2 354 355
2 355 241

CELL_TYPES 360
3
3
3
3
3
3
3
3
3
3
3
3
3
3
3
3
3
3
3
3
3
3
3
3
3
3
3
3
3
3
3
3
3
3
3
3
3
3
3
3
3
3
3
3
3
3
3
3
3
3
3
3
3
3
3
3
3
3
3
3
3
3
3
3
3
3
3
3
3
3
3
3
3
3
3
3
3
3
3
3
3
3
3
3
3
3
3
3
3
3
3
3
3
3
3
3
3
3
3
3
3
3
3
3
3
3
3
3
3
3
3
3
3
3
3
3
3
3
3
3
3
3
3
3
3
3
3
3
3
3
3
3
3
3
3
3
3
3
3
3
3
3
3
3
3
3
3
3
3
3
3
3
3
3
3
3
3
3
3
3
3
3
3
3
3
3
3
3
3
3
3
3
3
3
3
3
3
3
3
3
3
3
3
3
3
3
3
3
3
3
3
3
3
3
3
3
3
3
3
3
3
3
3
3
3
3
3
3
3
3
3
3
3
3
3
3
3
3
3
3
3
3
3
3
3
3
3
3
3
3
3
3
3
3
3
3
3
3
3
3
3
3
3
3
3
3
3
3
3
3
3
3
3
3
3
3
3
3
3
3
3
3
3
3
3
3
3
3
3
3
3
3
3
3
3
3
3
3
3
3
3
3
3
3
3
3
3
3
3
3
3
3
3
3
3
3
3
3
3
3
3
3
3
3
3
3
3
3
3
3
3
3
3
3
3
3
3
3
3
3
3
3
3
3
3
3
3
3
3
3
3
3
3
3
3
3
3
3
3
3
3
3
3
3
3
3
3
3
3
3
3
3
3
3
3
3
3
3
3
3
POINT_DATA 356
FIELD FieldData 4
DISPLACEMENT 3 356  float
0.0000000e+00 0.0000000e+00 0.0000000e+00 
-1.1560986e-07 0.0000000e+00 -5.1428570e-11 
-4.3810056e-07 0.0000000e+00 -1.0285714e-10 
-9.3096372e-07 0.0000000e+00 -1.5428571e-10 
-1.5576910e-06 0.0000000e+00 -2.0571428e-10 
-2.2817740e-06 0.0000000e+00 -2.5714286e-10 
-3.0667045e-06 0.0000000e+00 -3.0857142e-10 
-3.8759740e-06 0.0000000e+00 -3.6000000e-10 
-4.6730738e-06 0.0000000e+00 -4.1142856e-10 
-5.4214966e-06 0.0000000e+00 -4.6285714e-10 
-6.0847328e-06 0.0000000e+00 -5.1428573e-10 
-6.6262746e-06 0.0000000e+00 -5.6571431e-10 
-7.0096139e-06 0.0000000e+00 -6.1714284e-10 
-7.1982417e-06 0.0000000e+00 -6.6857142e-10 
-7.1556506e-06 0.0000000e+00 -7.2000000e-10 
-6.8453314e-06 0.0000000e+00 -7.7142859e-10 
-6.2307759e-06 0.0000000e+00 -8.2285712e-10 
-5.2754758e-06 0.0000000e+00 -8.7428570e-10 
-3.9429228e-06 0.0000000e+00 -9.2571428e-10 
-2.1966089e-06 0.0000000e+00 -9.7714281e-10 
-2.4966583e-11 0.0000000e+00 -1.0285715e-09 
2.1076153e-06 0.0000000e+00 -1.0714286e-09 
3.6058238e-06 0.0000000e+00 -1.1142857e-09 
4.5591964e-06 0.0000000e+00 -1.1571428e-09 
5.0323288e-06 0.0000000e+00 -1.2000000e-09 
5.0898170e-06 0.0000000e+00 -1.2428572e-09 
4.7962571e-06 0.0000000e+00 -1.2857143e-09 
4.2162442e-06 0.0000000e+00 -1.3285715e-09 
3.4143750e-06 0.0000000e+00 -1.3714285e-09 
2.4552448e-06 0.0000000e+00 -1.4142857e-09 
1.4034496e-06 0.0000000e+00 -1.4571429e-09 
3.2358511e-07 0.0000000e+00 -1.5000000e-09 
-7.1975268e-07 0.0000000e+00 -1.5428572e-09 
-1.6619679e-06 0.0000000e+00 -1.5857143e-09 
-2.4384649e-06 0.0000000e+00 -1.6285714e-09 
-2.9846476e-06 0.0000000e+00 -1.6714286e-09 
-3.2359203e-06 0.0000000e+00 -1.7142857e-09 
-3.1276870e-06 0.0000000e+00 -1.7571429e-09 
-2.5953520e-06 0.0000000e+00 -1.8000000e-09 
-1.5743196e-06 0.0000000e+00 -1.8428571e-09 
6.2540346e-12 0.0000000e+00 -1.8857143e-09 
1.5966114e-06 0.0000000e+00 -1.9199999e-09 
2.6797914e-06 0.0000000e+00 -1.9542856e-09 
3.3071062e-06 0.0000000e+00 -1.9885715e-09 
3.5361163e-06 0.0000000e+00 -2.0228572e-09 
3.4243817e-06 0.0000000e+00 -2.0571429e-09 
3.0294632e-06 0.0000000e+00 -2.0914286e-09 
2.4089204e-06 0.0000000e+00 -2.1257143e-09 
1.6203140e-06 0.0000000e+00 -2.1600000e-09 
7.2120406e-07 0.0000000e+00 -2.1942856e-09 
-2.3084908e-07 0.0000000e+00 -2.2285713e-09 
-1.1782853e-06 0.0000000e+00 -2.2628572e-09 
-2.0635441e-06 0.0000000e+00 -2.2971429e-09 
-2.8290656e-06 0.0000000e+00 -2.3314286e-09 
-3.4172890e-06 0.0000000e+00 -2.3657143e-09 
-3.7706548e-06 0.0000000e+00 -2.4000000e-09 
-3.8316020e-06 0.0000000e+00 -2.4342857e-09 
-3.5425708e-06 0.0000000e+00 -2.4685713e-09 
-2.8460006e-06 0.0000000e+00 -2.5028570e-09 
-1.6843316e-06 0.0000000e+00 -2.5371429e-09 
-3.1755451e-12 0.0000000e+00 -2.5714286e-09 
1.6730113e-06 0.0000000e+00 -2.5971429e-09 
2.8031207e-06 0.0000000e+00 -2.6228570e-09 
3.4514580e-06 0.0000000e+00 -2.6485714e-09 
3.6791564e-06 0.0000000e+00 -2.6742857e-09 
3.5473488e-06 0.0000000e+00 -2.7000000e-09 
3.1171683e-06 0.0000000e+00 -2.7257143e-09 
2.4497479e-06 0.0000000e+00 -2.7514286e-09 
1.6062208e-06 0.0000000e+00 -2.7771430e-09 
6.4772013e-07 0.0000000e+00 -2.8028571e-09 
-3.6462117e-07 0.0000000e+00 -2.8285714e-09 
-1.3696700e-06 0.0000000e+00 -2.8542857e-09 
-2.3062933e-06 0.0000000e+00 -2.8800000e-09 
-3.1133579e-06 0.0000000e+00 -2.9057143e-09 
-3.7297309e-06 0.0000000e+00 -2.9314287e-09 
-4.0942791e-06 0.0000000e+00 -2.9571428e-09 
-4.1458698e-06 0.0000000e+00 -2.9828571e-09 
-3.8233693e-06 0.0000000e+00 -3.0085714e-09 
-3.0656449e-06 0.0000000e+00 -3.0342857e-09 
-1.8115635e-06 0.0000000e+00 -3.0600000e-09 
8.0378707e-12 0.0000000e+00 -3.0857144e-09 
1.8402130e-06 0.0000000e+00 -3.1028571e-09 
3.1741667e-06 0.0000000e+00 -3.1200000e-09 
4.0539599e-06 0.0000000e+00 -3.1371428e-09 
4.5316838e-06 0.0000000e+00 -3.1542857e-09 
4.6594291e-06 0.0000000e+00 -3.1714287e-09 
4.4892863e-06 0.0000000e+00 -3.1885714e-09 
4.0733471e-06 0.0000000e+00 -3.2057144e-09 
3.4637017e-06 0.0000000e+00 -3.2228571e-09 
2.7124411e-06 0.0000000e+00 -3.2400000e-09 
1.8716562e-06 0.0000000e+00 -3.2571428e-09 
9.9343799e-07 0.0000000e+00 -3.2742857e-09 
1.2987726e-07 0.0000000e+00 -3.2914285e-09 
-6.6693502e-07 0.0000000e+00 -3.3085714e-09 
-1.3449081e-06 0.0000000e+00 -3.3257144e-09 
-1.8519511e-06 0.0000000e+00 -3.3428571e-09 
-2.1359729e-06 0.0000000e+00 -3.3600001e-09 
-2.1448830e-06 0.0000000e+00 -3.3771428e-09 
-1.8265903e-06 0.0000000e+00 -3.3942857e-09 
-1.1290039e-06 0.0000000e+00 -3.4114285e-09 
-3.2992747e-11 0.0000000e+00 -3.4285714e-09 
1.0114002e-06 0.0000000e+00 -3.4371428e-09 
1.3811182e-06 0.0000000e+00 -3.4457144e-09 
1.1983294e-06 0.0000000e+00 -3.4542857e-09 
5.5224172e-07 0.0000000e+00 -3.4628571e-09 
-4.6793645e-07 0.0000000e+00 -3.4714285e-09 
-1.7729971e-06 0.0000000e+00 -3.4800001e-09 
-3.2737319e-06 0.0000000e+00 -3.4885714e-09 
-4.8809329e-06 0.0000000e+00 -3.4971428e-09 
-6.5053914e-06 0.0000000e+00 -3.5057144e-09 
-8.0579002e-06 0.0000000e+00 -3.5142858e-09 
-9.4492498e-06 0.0000000e+00 -3.5228571e-09 
-1.0590234e-05 0.0000000e+00 -3.5314285e-09 
-1.1391642e-05 0.0000000e+00 -3.5400001e-09 
-1.1764268e-05 0.0000000e+00 -3.5485714e-09 
-1.1618902e-05 0.0000000e+00 -3.5571428e-09 
-1.0866337e-05 0.0000000e+00 -3.5657144e-09 
-9.4173647e-06 0.0000000e+00 -3.5742858e-09 
-7.1827767e-06 0.0000000e+00 -3.5828571e-09 
-4.0733648e-06 0.0000000e+00 -3.5914285e-09 
7.9296569e-11 0.0000000e+00 -3.6000001e-09 
0.0000000e+00 0.0000000e+00 0.0000000e+00 
1.1560986e-07 0.0000000e+00 -5.1428570e-11 
4.3810056e-07 0.0000000e+00 -1.0285714e-10 
9.3096372e-07 0.0000000e+00 -1.5428571e-10 
1.5576910e-06 0.0000000e+00 -2.0571428e-10 
2.2817740e-06 0.0000000e+00 -2.5714286e-10 
3.0667045e-06 0.0000000e+00 -3.0857142e-10 
3.8759740e-06 0.0000000e+00 -3.6000000e-10 
4.6730738e-06 0.0000000e+00 -4.1142856e-10 
5.4214966e-06 0.0000000e+00 -4.6285714e-10 
6.0847328e-06 0.0000000e+00 -5.1428573e-10 
6.6262746e-06 0.0000000e+00 -5.6571431e-10 
7.0096139e-06 0.0000000e+00 -6.1714284e-10 
7.1982417e-06 0.0000000e+00 -6.6857142e-10 
7.1556506e-06 0.0000000e+00 -7.2000000e-10 
6.8453314e-06 0.0000000e+00 -7.7142859e-10 
6.2307759e-06 0.0000000e+00 -8.2285712e-10 
5.2754758e-06 0.0000000e+00 -8.7428570e-10 
3.9429228e-06 0.0000000e+00 -9.2571428e-10 
2.1966089e-06 0.0000000e+00 -9.7714281e-10 
2.4966721e-11 0.0000000e+00 -1.0285715e-09 
-2.1076153e-06 0.0000000e+00 -1.0714286e-09 
-3.6058238e-06 0.0000000e+00 -1.1142857e-09 
-4.5591964e-06 0.0000000e+00 -1.1571428e-09 
-5.0323288e-06 0.0000000e+00 -1.2000000e-09 
-5.0898170e-06 0.0000000e+00 -1.2428572e-09 
-4.7962571e-06 0.0000000e+00 -1.2857143e-09 
-4.2162442e-06 0.0000000e+00 -1.3285715e-09 
-3.4143750e-06 0.0000000e+00 -1.3714285e-09 
-2.4552448e-06 0.0000000e+00 -1.4142857e-09 
-1.4034496e-06 0.0000000e+00 -1.4571429e-09 
-3.2358511e-07 0.0000000e+00 -1.5000000e-09 
7.1975268e-07 0.0000000e+00 -1.5428572e-09 
1.6619679e-06 0.0000000e+00 -1.5857143e-09 
2.4384649e-06 0.0000000e+00 -1.6285714e-09 
2.9846476e-06 0.0000000e+00 -1.6714286e-09 
3.2359203e-06 0.0000000e+00 -1.7142857e-09 
3.1276870e-06 0.0000000e+00 -1.7571429e-09 
2.5953520e-06 0.0000000e+00 -1.8000000e-09 
1.5743196e-06 0.0000000e+00 -1.8428571e-09 
-6.2536786e-12 0.0000000e+00 -1.8857143e-09 
-1.5966114e-06 0.0000000e+00 -1.9199999e-09 
-2.6797914e-06 0.0000000e+00 -1.9542856e-09 
-3.3071062e-06 0.0000000e+00 -1.9885715e-09 
-3.5361163e-06 0.0000000e+00 -2.0228572e-09 
-3.4243817e-06 0.0000000e+00 -2.0571429e-09 
-3.0294632e-06 0.0000000e+00 -2.0914286e-09 
-2.4089204e-06 0.0000000e+00 -2.1257143e-09 
-1.6203140e-06 0.0000000e+00 -2.1600000e-09 
-7.2120406e-07 0.0000000e+00 -2.1942856e-09 
2.3084908e-07 0.0000000e+00 -2.2285713e-09 
1.1782853e-06 0.0000000e+00 -2.2628572e-09 
2.0635441e-06 0.0000000e+00 -2.2971429e-09 
2.8290656e-06 0.0000000e+00 -2.3314286e-09 
3.4172890e-06 0.0000000e+00 -2.3657143e-09 
3.7706548e-06 0.0000000e+00 -2.4000000e-09 
3.8316020e-06 0.0000000e+00 -2.4342857e-09 
3.5425708e-06 0.0000000e+00 -2.4685713e-09 
2.8460006e-06 0.0000000e+00 -2.5028570e-09 
1.6843316e-06 0.0000000e+00 -2.5371429e-09 
3.1761247e-12 0.0000000e+00 -2.5714286e-09 
-1.6730113e-06 0.0000000e+00 -2.5971429e-09 
-2.8031207e-06 0.0000000e+00 -2.6228570e-09 
-3.4514580e-06 0.0000000e+00 -2.6485714e-09 
-3.6791564e-06 0.0000000e+00 -2.6742857e-09 
-3.5473488e-06 0.0000000e+00 -2.7000000e-09 
-3.1171683e-06 0.0000000e+00 -2.7257143e-09 
-2.4497479e-06 0.0000000e+00 -2.7514286e-09 
-1.6062208e-06 0.0000000e+00 -2.7771430e-09 
-6.4772013e-07 0.0000000e+00 -2.8028571e-09 
3.6462117e-07 0.0000000e+00 -2.8285714e-09 
1.3696700e-06 0.0000000e+00 -2.8542857e-09 
2.3062933e-06 0.0000000e+00 -2.8800000e-09 
3.1133579e-06 0.0000000e+00 -2.9057143e-09 
3.7297309e-06 0.0000000e+00 -2.9314287e-09 
4.0942791e-06 0.0000000e+00 -2.9571428e-09 
4.1458698e-06 0.0000000e+00 -2.9828571e-09 
3.8233693e-06 0.0000000e+00 -3.0085714e-09 
3.0656449e-06 0.0000000e+00 -3.0342857e-09 
1.8115635e-06 0.0000000e+00 -3.0600000e-09 
-8.0371378e-12 0.0000000e+00 -3.0857144e-09 
-1.8402130e-06 0.0000000e+00 -3.1028571e-09 
-3.1741667e-06 0.0000000e+00 -3.1200000e-09 
-4.0539599e-06 0.0000000e+00 -3.1371428e-09 
-4.5316838e-06 0.0000000e+00 -3.1542857e-09 
-4.6594291e-06 0.0000000e+00 -3.1714287e-09 
-4.4892863e-06 0.0000000e+00 -3.1885714e-09 
-4.0733471e-06 0.0000000e+00 -3.2057144e-09 
-3.4637017e-06 0.0000000e+00 -3.2228571e-09 
-2.7124411e-06 0.0000000e+00 -3.2400000e-09 
-1.8716562e-06 0.0000000e+00 -3.2571428e-09 
-9.9343799e-07 0.0000000e+00 -3.2742857e-09 
-1.2987726e-07 0.0000000e+00 -3.2914285e-09 
6.6693502e-07 0.0000000e+00 -3.3085714e-09 
1.3449081e-06 0.0000000e+00 -3.3257144e-09 
1.8519511e-06 0.0000000e+00 -3.3428571e-09 
2.1359729e-06 0.0000000e+00 -3.3600001e-09 
2.1448830e-06 0.0000000e+00 -3.3771428e-09 
1.8265903e-06 0.0000000e+00 -3.3942857e-09 
1.1290039e-06 0.0000000e+00 -3.4114285e-09 
3.2993559e-11 0.0000000e+00 -3.4285714e-09 
-1.0114002e-06 0.0000000e+00 -3.4371428e-09 
-1.3811182e-06 0.0000000e+00 -3.4457144e-09 
-1.1983293e-06 0.0000000e+00 -3.4542857e-09 
-5.5224172e-07 0.0000000e+00 -3.4628571e-09 
4.6793645e-07 0.0000000e+00 -3.4714285e-09 
1.7729971e-06 0.0000000e+00 -3.4800001e-09 
3.2737319e-06 0.0000000e+00 -3.4885714e-09 
4.8809329e-06 0.0000000e+00 -3.4971428e-09 
6.5053914e-06 0.0000000e+00 -3.5057144e-09 
8.0579002e-06 0.0000000e+00 -3.5142858e-09 
9.4492498e-06 0.0000000e+00 -3.5228571e-09 
1.0590234e-05 0.0000000e+00 -3.5314285e-09 