# vtk DataFile Version 4.0
vtk output
ASCII
DATASET UNSTRUCTURED_GRID
POINTS 176 float
0.0000000e+00 0.0000000e+00 0.0000000e+00 
0.0000000e+00 0.0000000e+00 3.0000001e-01 
0.0000000e+00 0.0000000e+00 6.0000002e-01 
0.0000000e+00 0.0000000e+00 8.9999998e-01 
0.0000000e+00 0.0000000e+00 1.2000000e+00 
0.0000000e+00 0.0000000e+00 1.5000000e+00 
0.0000000e+00 0.0000000e+00 1.8000000e+00 
0.0000000e+00 0.0000000e+00 2.0999999e+00 
0.0000000e+00 0.0000000e+00 2.4000001e+00 
0.0000000e+00 0.0000000e+00 2.7000000e+00 
0.0000000e+00 0.0000000e+00 3.0000000e+00 
0.0000000e+00 0.0000000e+00 3.3000000e+00 
0.0000000e+00 0.0000000e+00 3.5999999e+00 
0.0000000e+00 0.0000000e+00 3.9000001e+00 
0.0000000e+00 0.0000000e+00 4.1999998e+00 
0.0000000e+00 0.0000000e+00 4.5000000e+00 
0.0000000e+00 0.0000000e+00 4.8000002e+00 
0.0000000e+00 0.0000000e+00 5.0999999e+00 
0.0000000e+00 0.0000000e+00 5.4000001e+00 
0.0000000e+00 0.0000000e+00 5.6999998e+00 
0.0000000e+00 0.0000000e+00 6.0000000e+00 
0.0000000e+00 0.0000000e+00 6.3000002e+00 
0.0000000e+00 0.0000000e+00 6.5999999e+00 
0.0000000e+00 0.0000000e+00 6.9000001e+00 
0.0000000e+00 0.0000000e+00 7.1999998e+00 
0.0000000e+00 0.0000000e+00 7.5000000e+00 
0.0000000e+00 0.0000000e+00 7.8000002e+00 
0.0000000e+00 0.0000000e+00 8.1000004e+00 
0.0000000e+00 0.0000000e+00 8.3999996e+00 
0.0000000e+00 0.0000000e+00 8.6999998e+00 
0.0000000e+00 0.0000000e+00 9.0000000e+00 
0.0000000e+00 0.0000000e+00 9.3000002e+00 
0.0000000e+00 0.0000000e+00 9.6000004e+00 
0.0000000e+00 0.0000000e+00 9.8999996e+00 
0.0000000e+00 0.0000000e+00 1.0200000e+01 
0.0000000e+00 0.0000000e+00 1.0500000e+01 
0.0000000e+00 0.0000000e+00 1.0800000e+01 
0.0000000e+00 0.0000000e+00 1.1100000e+01 
0.0000000e+00 0.0000000e+00 1.1400000e+01 
0.0000000e+00 0.0000000e+00 1.1700000e+01 
0.0000000e+00 0.0000000e+00 1.2000000e+01 
0.0000000e+00 0.0000000e+00 1.2300000e+01 
0.0000000e+00 0.0000000e+00 1.2600000e+01 
0.0000000e+00 0.0000000e+00 1.2900000e+01 
0.0000000e+00 0.0000000e+00 1.3200000e+01 
0.0000000e+00 0.0000000e+00 1.3500000e+01 
0.0000000e+00 0.0000000e+00 1.3800000e+01 
0.0000000e+00 0.0000000e+00 1.4100000e+01 
0.0000000e+00 0.0000000e+00 1.4400000e+01 
0.0000000e+00 0.0000000e+00 1.4700000e+01 
0.0000000e+00 0.0000000e+00 1.5000000e+01 
0.0000000e+00 0.0000000e+00 1.5300000e+01 
0.0000000e+00 0.0000000e+00 1.5600000e+01 
0.0000000e+00 0.0000000e+00 1.5900000e+01 
0.0000000e+00 0.0000000e+00 1.6200001e+01 
0.0000000e+00 0.0000000e+00 1.6500000e+01 
0.0000000e+00 0.0000000e+00 1.6799999e+01 
0.0000000e+00 0.0000000e+00 1.7100000e+01 
0.0000000e+00 0.0000000e+00 1.7400000e+01 
0.0000000e+00 0.0000000e+00 1.7700001e+01 
0.0000000e+00 0.0000000e+00 1.8000000e+01 
6.0000000e+00 0.0000000e+00 0.0000000e+00 
6.0000000e+00 0.0000000e+00 3.0000001e-01 
6.0000000e+00 0.0000000e+00 6.0000002e-01 
6.0000000e+00 0.0000000e+00 8.9999998e-01 
6.0000000e+00 0.0000000e+00 1.2000000e+00 
6.0000000e+00 0.0000000e+00 1.5000000e+00 
6.0000000e+00 0.0000000e+00 1.8000000e+00 
6.0000000e+00 0.0000000e+00 2.0999999e+00 
6.0000000e+00 0.0000000e+00 2.4000001e+00 
6.0000000e+00 0.0000000e+00 2.7000000e+00 
6.0000000e+00 0.0000000e+00 3.0000000e+00 
6.0000000e+00 0.0000000e+00 3.3000000e+00 
6.0000000e+00 0.0000000e+00 3.5999999e+00 
6.0000000e+00 0.0000000e+00 3.9000001e+00 
6.0000000e+00 0.0000000e+00 4.1999998e+00 
6.0000000e+00 0.0000000e+00 4.5000000e+00 
6.0000000e+00 0.0000000e+00 4.8000002e+00 
6.0000000e+00 0.0000000e+00 5.0999999e+00 
6.0000000e+00 0.0000000e+00 5.4000001e+00 
6.0000000e+00 0.0000000e+00 5.6999998e+00 
6.0000000e+00 0.0000000e+00 6.0000000e+00 
6.0000000e+00 0.0000000e+00 6.3000002e+00 
6.0000000e+00 0.0000000e+00 6.5999999e+00 
6.0000000e+00 0.0000000e+00 6.9000001e+00 
6.0000000e+00 0.0000000e+00 7.1999998e+00 
6.0000000e+00 0.0000000e+00 7.5000000e+00 
6.0000000e+00 0.0000000e+00 7.8000002e+00 
6.0000000e+00 0.0000000e+00 8.1000004e+00 
6.0000000e+00 0.0000000e+00 8.3999996e+00 
6.0000000e+00 0.0000000e+00 8.6999998e+00 
6.0000000e+00 0.0000000e+00 9.0000000e+00 
6.0000000e+00 0.0000000e+00 9.3000002e+00 
6.0000000e+00 0.0000000e+00 9.6000004e+00 
6.0000000e+00 0.0000000e+00 9.8999996e+00 
6.0000000e+00 0.0000000e+00 1.0200000e+01 
6.0000000e+00 0.0000000e+00 1.0500000e+01 
6.0000000e+00 0.0000000e+00 1.0800000e+01 
6.0000000e+00 0.0000000e+00 1.1100000e+01 
6.0000000e+00 0.0000000e+00 1.1400000e+01 
6.0000000e+00 0.0000000e+00 1.1700000e+01 
6.0000000e+00 0.0000000e+00 1.2000000e+01 
6.0000000e+00 0.0000000e+00 1.2300000e+01 
6.0000000e+00 0.0000000e+00 1.2600000e+01 
6.0000000e+00 0.0000000e+00 1.2900000e+01 
6.0000000e+00 0.0000000e+00 1.3200000e+01 
6.0000000e+00 0.0000000e+00 1.3500000e+01 
6.0000000e+00 0.0000000e+00 1.3800000e+01 
6.0000000e+00 0.0000000e+00 1.4100000e+01 
6.0000000e+00 0.0000000e+00 1.4400000e+01 
6.0000000e+00 0.0000000e+00 1.4700000e+01 
6.0000000e+00 0.0000000e+00 1.5000000e+01 
6.0000000e+00 0.0000000e+00 1.5300000e+01 
6.0000000e+00 0.0000000e+00 1.5600000e+01 
6.0000000e+00 0.0000000e+00 1.5900000e+01 
6.0000000e+00 0.0000000e+00 1.6200001e+01 
6.0000000e+00 0.0000000e+00 1.6500000e+01 
6.0000000e+00 0.0000000e+00 1.6799999e+01 
6.0000000e+00 0.0000000e+00 1.7100000e+01 
6.0000000e+00 0.0000000e+00 1.7400000e+01 
6.0000000e+00 0.0000000e+00 1.7700001e+01 
6.0000000e+00 0.0000000e+00 1.8000000e+01 
6.0000002e-01 0.0000000e+00 3.0000000e+00 
1.2000000e+00 0.0000000e+00 3.0000000e+00 
1.8000000e+00 0.0000000e+00 3.0000000e+00 
2.4000001e+00 0.0000000e+00 3.0000000e+00 
3.0000000e+00 0.0000000e+00 3.0000000e+00 
3.5999999e+00 0.0000000e+00 3.0000000e+00 
4.1999998e+00 0.0000000e+00 3.0000000e+00 
4.8000002e+00 0.0000000e+00 3.0000000e+00 
5.4000001e+00 0.0000000e+00 3.0000000e+00 
6.0000002e-01 0.0000000e+00 6.0000000e+00 
1.2000000e+00 0.0000000e+00 6.0000000e+00 
1.8000000e+00 0.0000000e+00 6.0000000e+00 
2.4000001e+00 0.0000000e+00 6.0000000e+00 
3.0000000e+00 0.0000000e+00 6.0000000e+00 
3.5999999e+00 0.0000000e+00 6.0000000e+00 
4.1999998e+00 0.0000000e+00 6.0000000e+00 
4.8000002e+00 0.0000000e+00 6.0000000e+00 
5.4000001e+00 0.0000000e+00 6.0000000e+00 
6.0000002e-01 0.0000000e+00 9.0000000e+00 
1.2000000e+00 0.0000000e+00 9.0000000e+00 
1.8000000e+00 0.0000000e+00 9.0000000e+00 
2.4000001e+00 0.0000000e+00 9.0000000e+00 
3.0000000e+00 0.0000000e+00 9.0000000e+00 
3.5999999e+00 0.0000000e+00 9.0000000e+00 
4.1999998e+00 0.0000000e+00 9.0000000e+00 
4.8000002e+00 0.0000000e+00 9.0000000e+00 
5.4000001e+00 0.0000000e+00 9.0000000e+00 
6.0000002e-01 0.0000000e+00 1.2000000e+01 
1.2000000e+00 0.0000000e+00 1.2000000e+01 
1.8000000e+00 0.0000000e+00 1.2000000e+01 
2.4000001e+00 0.0000000e+00 1.2000000e+01 
3.0000000e+00 0.0000000e+00 1.2000000e+01 
3.5999999e+00 0.0000000e+00 1.2000000e+01 
4.1999998e+00 0.0000000e+00 1.2000000e+01 
4.8000002e+00 0.0000000e+00 1.2000000e+01 
5.4000001e+00 0.0000000e+00 1.2000000e+01 
6.0000002e-01 0.0000000e+00 1.5000000e+01 
1.2000000e+00 0.0000000e+00 1.5000000e+01 
1.8000000e+00 0.0000000e+00 1.5000000e+01 
2.4000001e+00 0.0000000e+00 1.5000000e+01 
3.0000000e+00 0.0000000e+00 1.5000000e+01 
3.5999999e+00 0.0000000e+00 1.5000000e+01 
4.1999998e+00 0.0000000e+00 1.5000000e+01 
4.8000002e+00 0.0000000e+00 1.5000000e+01 
5.4000001e+00 0.0000000e+00 1.5000000e+01 
6.0000002e-01 0.0000000e+00 1.8000000e+01 
1.2000000e+00 0.0000000e+00 1.8000000e+01 
1.8000000e+00 0.0000000e+00 1.8000000e+01 
2.4000001e+00 0.0000000e+00 1.8000000e+01 
3.0000000e+00 0.0000000e+00 1.8000000e+01 
3.5999999e+00 0.0000000e+00 1.8000000e+01 
4.1999998e+00 0.0000000e+00 1.8000000e+01 
4.8000002e+00 0.0000000e+00 1.8000000e+01 
5.4000001e+00 0.0000000e+00 1.8000000e+01 

CELLS 180 540
2 0 1
2 1 2
2 2 3
2 3 4
2 4 5
2 5 6
2 6 7
2 7 8
2 8 9
2 9 10
2 10 11
2 11 12
2 12 13
2 13 14
2 14 15
2 15 16
2 16 17
2 17 18
2 18 19
2 19 20
2 20 21
2 21 22
2 22 23
2 23 24
2 24 25
2 25 26
2 26 27
2 27 28
2 28 29
2 29 30
2 30 31
2 31 32
2 32 33
2 33 34
2 34 35
2 35 36
2 36 37
2 37 38
2 38 39
2 39 40
2 40 41
2 41 42
2 42 43
2 43 44
2 44 45
2 45 46
2 46 47
2 47 48
2 48 49
2 49 50
2 50 51
2 51 52
2 52 53
2 53 54
2 54 55
2 55 56
2 56 57
2 57 58
2 58 59
2 59 60
2 61 62
2 62 63
2 63 64
2 64 65
2 65 66
2 66 67
2 67 68
2 68 69
2 69 70
2 70 71
2 71 72
2 72 73
2 73 74
2 74 75
2 75 76
2 76 77
2 77 78
2 78 79
2 79 80
2 80 81
2 81 82
2 82 83
2 83 84
2 84 85
2 85 86
2 86 87
2 87 88
2 88 89
2 89 90
2 90 91
2 91 92
2 92 93
2 93 94
2 94 95
2 95 96
2 96 97
2 97 98
2 98 99
2 99 100
2 100 101
2 101 102
2 102 103
2 103 104
2 104 105
2 105 106
2 106 107
2 107 108
2 108 109
2 109 110
2 110 111
2 111 112
2 112 113
2 113 114
2 114 115
2 115 116
2 116 117
2 117 118
2 118 119
2 119 120
2 120 121
2 10 122
2 122 123
2 123 124
2 124 125
2 125 126
2 126 127
2 127 128
2 128 129
2 129 130
2 130 71
2 20 131
2 131 132
2 132 133
2 133 134
2 134 135
2 135 136
2 136 137
2 137 138
2 138 139
2 139 81
2 30 140
2 140 141
2 141 142
2 142 143
2 143 144
2 144 145
2 145 146
2 146 147
2 147 148
2 148 91
2 40 149
2 149 150
2 150 151
2 151 152
2 152 153
2 153 154
2 154 155
2 155 156
2 156 157
2 157 101
2 50 158
2 158 159
2 159 160
2 160 161
2 161 162
2 162 163
2 163 164
2 164 165
2 165 166
2 166 111
2 60 167
2 167 168
2 168 169
2 169 170
2 170 171
2 171 172
2 172 173
2 173 174
2 174 175
2 175 121

CELL_TYPES 180
3
3
3
3
3
3
3
3
3
3
3
3
3
3
3
3
3
3
3
3
3
3
3
3
3
3
3
3
3
3
3
3
3
3
3
3
3
3
3
3
3
3
3
3
3
3
3
3
3
3
3
3
3
3
3
3
3
3
3
3
3
3
3
3
3
3
3
3
3
3
3
3
3
3
3
3
3
3
3
3
3
3
3
3
3
3
3
3
3
3
3
3
3
3
3
3
3
3
3
3
3
3
3
3
3
3
3
3
3
3
3
3
3
3
3
3
3
3
3
3
3
3
3
3
3
3
3
3
3
3
3
3
3
3
3
3
3
3
3
3
3
3
3
3
3
3
3
3
3
3
3
3
3
3
3
3
3
3
3
3
3
3
3
3
3
3
3
3
3
3
3
3
3
3
3
3
3
3
3
3
POINT_DATA 176
FIELD FieldData 6
DISPLACEMENT 3 176  float
0.0000000e+00 0.0000000e+00 0.0000000e+00 
-1.2676842e+01 0.0000000e+00 -2.1600000e+02 
-2.4865047e+01 0.0000000e+00 -4.3200000e+02 
-3.6075985e+01 0.0000000e+00 -6.4800000e+02 
-4.5821014e+01 0.0000000e+00 -8.6400000e+02 
-5.3611504e+01 0.0000000e+00 -1.0800000e+03 
-5.8958817e+01 0.0000000e+00 -1.2960000e+03 
-6.1374321e+01 0.0000000e+00 -1.5120000e+03 
-6.0369377e+01 0.0000000e+00 -1.7280000e+03 
-5.5455353e+01 0.0000000e+00 -1.9440000e+03 
-4.6143612e+01 0.0000000e+00 -2.1600000e+03 
-3.6638630e+01 0.0000000e+00 -2.3400000e+03 
-3.0868021e+01 0.0000000e+00 -2.5200000e+03 
-2.7927856e+01 0.0000000e+00 -2.7000000e+03 
-2.6914211e+01 0.0000000e+00 -2.8800000e+03 
-2.6923153e+01 0.0000000e+00 -3.0600000e+03 
-2.7050758e+01 0.0000000e+00 -3.2400000e+03 
-2.6393099e+01 0.0000000e+00 -3.4200000e+03 
-2.4046246e+01 0.0000000e+00 -3.6000000e+03 
-1.9106272e+01 0.0000000e+00 -3.7800000e+03 
-1.0669249e+01 0.0000000e+00 -3.9600000e+03 
-2.6369023e+00 0.0000000e+00 -4.1040000e+03 
1.1530564e+00 0.0000000e+00 -4.2480000e+03 
1.7005788e+00 0.0000000e+00 -4.3920000e+03 
5.6158602e-03 0.0000000e+00 -4.5360000e+03 
-2.9318814e+00 0.0000000e+00 -4.6800000e+03 
-6.1119623e+00 0.0000000e+00 -4.8240000e+03 
-8.5346756e+00 0.0000000e+00 -4.9680000e+03 
-9.2000713e+00 0.0000000e+00 -5.1120000e+03 
-7.1081972e+00 0.0000000e+00 -5.2560000e+03 
-1.2591031e+00 0.0000000e+00 -5.4000000e+03 
4.4061017e+00 0.0000000e+00 -5.5080000e+03 
5.9538627e+00 0.0000000e+00 -5.6160000e+03 
4.3954625e+00 0.0000000e+00 -5.7240000e+03 
7.4218386e-01 0.0000000e+00 -5.8320000e+03 
-3.9946902e+00 0.0000000e+00 -5.9400000e+03 
-8.8038769e+00 0.0000000e+00 -6.0480000e+03 
-1.2674093e+01 0.0000000e+00 -6.1560000e+03 
-1.4594057e+01 0.0000000e+00 -6.2640000e+03 
-1.3552485e+01 0.0000000e+00 -6.3720000e+03 
-8.5380936e+00 0.0000000e+00 -6.4800000e+03 
-3.5058987e+00 0.0000000e+00 -6.5520000e+03 
-2.3596876e+00 0.0000000e+00 -6.6240000e+03 
-4.0113339e+00 0.0000000e+00 -6.6960000e+03 
-7.3727121e+00 0.0000000e+00 -6.7680000e+03 
-1.1355697e+01 0.0000000e+00 -6.8400000e+03 
-1.4872162e+01 0.0000000e+00 -6.9120000e+03 
-1.6833981e+01 0.0000000e+00 -6.9840000e+03 
-1.6153030e+01 0.0000000e+00 -7.0560000e+03 
-1.1741183e+01 0.0000000e+00 -7.1280000e+03 
-2.5103137e+00 0.0000000e+00 -7.2000000e+03 
7.8856235e+00 0.0000000e+00 -7.2360000e+03 
1.5807736e+01 0.0000000e+00 -7.2720000e+03 
2.2366743e+01 0.0000000e+00 -7.3080000e+03 
2.8673361e+01 0.0000000e+00 -7.3440000e+03 
3.5838310e+01 0.0000000e+00 -7.3800000e+03 
4.4972309e+01 0.0000000e+00 -7.4160000e+03 
5.7186077e+01 0.0000000e+00 -7.4520000e+03 
7.3590332e+01 0.0000000e+00 -7.4880000e+03 
9.5295784e+01 0.0000000e+00 -7.5240000e+03 
1.2341317e+02 0.0000000e+00 -7.5600000e+03 
0.0000000e+00 0.0000000e+00 0.0000000e+00 
1.2676842e+01 0.0000000e+00 -2.1600000e+02 
2.4865047e+01 0.0000000e+00 -4.3200000e+02 
3.6075985e+01 0.0000000e+00 -6.4800000e+02 
4.5821014e+01 0.0000000e+00 -8.6400000e+02 
5.3611504e+01 0.0000000e+00 -1.0800000e+03 
5.8958817e+01 0.0000000e+00 -1.2960000e+03 
6.1374321e+01 0.0000000e+00 -1.5120000e+03 
6.0369377e+01 0.0000000e+00 -1.7280000e+03 
5.5455353e+01 0.0000000e+00 -1.9440000e+03 
4.6143612e+01 0.0000000e+00 -2.1600000e+03 
3.6638630e+01 0.0000000e+00 -2.3400000e+03 
3.0868021e+01 0.0000000e+00 -2.5200000e+03 
2.7927856e+01 0.0000000e+00 -2.7000000e+03 
2.6914211e+01 0.0000000e+00 -2.8800000e+03 
2.6923153e+01 0.0000000e+00 -3.0600000e+03 
2.7050758e+01 0.0000000e+00 -3.2400000e+03 
2.6393099e+01 0.0000000e+00 -3.4200000e+03 
2.4046246e+01 0.0000000e+00 -3.6000000e+03 
1.9106272e+01 0.0000000e+00 -3.7800000e+03 
1.0669249e+01 0.0000000e+00 -3.9600000e+03 
2.6369023e+00 0.0000000e+00 -4.1040000e+03 
-1.1530564e+00 0.0000000e+00 -4.2480000e+03 
-1.7005788e+00 0.0000000e+00 -4.3920000e+03 
-5.6158598e-03 0.0000000e+00 -4.5360000e+03 
2.9318814e+00 0.0000000e+00 -4.6800000e+03 
6.1119623e+00 0.0000000e+00 -4.8240000e+03 
8.5346756e+00 0.0000000e+00 -4.9680000e+03 
9.2000713e+00 0.0000000e+00 -5.1120000e+03 
7.1081972e+00 0.0000000e+00 -5.2560000e+03 
1.2591031e+00 0.0000000e+00 -5.4000000e+03 
-4.4061017e+00 0.0000000e+00 -5.5080000e+03 
-5.9538627e+00 0.0000000e+00 -5.6160000e+03 
-4.3954625e+00 0.0000000e+00 -5.7240000e+03 
-7.4218386e-01 0.0000000e+00 -5.8320000e+03 
3.9946902e+00 0.0000000e+00 -5.9400000e+03 
8.8038769e+00 0.0000000e+00 -6.0480000e+03 
1.2674093e+01 0.0000000e+00 -6.1560000e+03 
1.4594057e+01 0.0000000e+00 -6.2640000e+03 
1.3552485e+01 0.0000000e+00 -6.3720000e+03 
8.5380936e+00 0.0000000e+00 -6.4800000e+03 
3.5058987e+00 0.0000000e+00 -6.5520000e+03 
2.3596876e+00 0.0000000e+00 -6.6240000e+03 
4.0113339e+00 0.0000000e+00 -6.6960000e+03 
7.3727121e+00 0.0000000e+00 -6.7680000e+03 
1.1355697e+01 0.0000000e+00 -6.8400000e+03 
1.4872162e+01 0.0000000e+00 -6.9120000e+03 
1.6833981e+01 0.0000000e+00 -6.9840000e+03 
1.6153030e+01 0.0000000e+00 -7.0560000e+03 
1.1741183e+01 0.0000000e+00 -7.1280000e+03 
2.5103137e+00 0.0000000e+00 -7.2000000e+03 
-7.8856235e+00 0.0000000e+00 -7.2360000e+03 
-1.5807736e+01 0.0000000e+00 -7.2720000e+03 
-2.2366743e+01 0.0000000e+00 -7.3080000e+03 
-2.8673361e+01 0.0000000e+00 -7.3440000e+03 
-3.5838310e+01 0.0000000e+00 -7.3800000e+03 
-4.4972309e+01 0.0000000e+00 -7.4160000e+03 
-5.7186077e+01 0.0000000e+00 -7.4520000e+03 
-7.3590332e+01 0.0000000e+00 -7.4880000e+03 
-9.5295784e+01 0.0000000e+00 -7.5240000e+03 
-1.2341317e+02 0.0000000e+00 -7.5600000e+03 
-3.6914890e+01 0.0000000e+00 -2.1985083e+03 
-2.7686167e+01 0.0000000e+00 -2.2526511e+03 
-1.8457445e+01 0.0000000e+00 -2.3042847e+03 
-9.2287226e+00 0.0000000e+00 -2.3404487e+03 
9.0082823e-11 0.0000000e+00 -2.3533674e+03 
9.2287226e+00 0.0000000e+00 -2.3404487e+03 
1.8457445e+01 0.0000000e+00 -2.3042847e+03 
2.7686167e+01 0.0000000e+00 -2.2526511e+03 
3.6914890e+01 0.0000000e+00 -2.1985083e+03 
-8.5353985e+00 0.0000000e+00 -3.9963723e+03 
-6.4015489e+00 0.0000000e+00 -4.0488540e+03 
-4.2676992e+00 0.0000000e+00 -4.0993008e+03 
-2.1338496e+00 0.0000000e+00 -4.1347529e+03 
2.5512353e-10 0.0000000e+00 -4.1474341e+03 
2.1338496e+00 0.0000000e+00 -4.1347529e+03 
4.2676992e+00 0.0000000e+00 -4.0993008e+03 
6.4015489e+00 0.0000000e+00 -4.0488540e+03 
8.5353985e+00 0.0000000e+00 -3.9963723e+03 
-1.0072824e+00 0.0000000e+00 -5.4320059e+03 
-7.5546181e-01 0.0000000e+00 -5.4810913e+03 
-5.0364119e-01 0.0000000e+00 -5.5291123e+03 
-2.5182059e-01 0.0000000e+00 -5.5631089e+03 
4.6727228e-10 0.0000000e+00 -5.5753052e+03 
2.5182059e-01 0.0000000e+00 -5.5631089e+03 
5.0364119e-01 0.0000000e+00 -5.5291123e+03 
7.5546181e-01 0.0000000e+00 -5.4810913e+03 
1.0072824e+00 0.0000000e+00 -5.4320059e+03 
-6.8304749e+00 0.0000000e+00 -6.5107041e+03 
-5.1228561e+00 0.0000000e+00 -6.5587773e+03 
-3.4152374e+00 0.0000000e+00 -6.6060752e+03 
-1.7076187e+00 0.0000000e+00 -6.6396377e+03 
6.4707251e-10 0.0000000e+00 -6.6516895e+03 
1.7076187e+00 0.0000000e+00 -6.6396377e+03 
3.4152374e+00 0.0000000e+00 -6.6060752e+03 
5.1228561e+00 0.0000000e+00 -6.5587773e+03 
6.8304749e+00 0.0000000e+00 -6.5107041e+03 
-2.0082510e+00 0.0000000e+00 -7.2391016e+03 
-1.5061882e+00 0.0000000e+00 -7.2937061e+03 
-1.0041255e+00 0.0000000e+00 -7.3456689e+03 
-5.0206274e-01 0.0000000e+00 -7.3820308e+03 
8.7710250e-10 0.0000000e+00 -7.3950156e+03 
5.0206274e-01 0.0000000e+00 -7.3820308e+03 
1.0041255e+00 0.0000000e+00 -7.3456689e+03 
1.5061882e+00 0.0000000e+00 -7.2937061e+03 
2.0082510e+00 0.0000000e+00 -7.2391016e+03 
9.8730537e+01 0.0000000e+00 -7.6345444e+03 
7.4047897e+01 0.0000000e+00 -7.7167153e+03 
4.9365269e+01 0.0000000e+00 -7.7883691e+03 
2.4682634e+01 0.0000000e+00 -7.8365454e+03 
1.2765916e-09 0.0000000e+00 -7.8534678e+03 
-2.4682634e+01 0.0000000e+00 -7.8365454e+03 
-4.9365269e+01 0.0000000e+00 -7.7883691e+03 
-7.4047897e+01 0.0000000e+00 -7.7167153e+03 
-9.8730537e+01 0.0000000e+00 -7.6345444e+03 
ROTATION 3 176  float
0.0000000e+00 -4.2527603e+01 0.0000000e+00 
0.0000000e+00 -4.1713211e+01 0.0000000e+00 
0.0000000e+00 -3.9270035e+01 0.0000000e+00 
0.0000000e+00 -3.5198074e+01 0.0000000e+00 
0.0000000e+00 -2.9497332e+01 0.0000000e+00 
0.0000000e+00 -2.2167803e+01 0.0000000e+00 
0.0000000e+00 -1.3209493e+01 0.0000000e+00 
0.0000000e+00 -2.6223969e+00 0.0000000e+00 
0.0000000e+00 9.5934820e+00 0.0000000e+00 
0.0000000e+00 2.3438145e+01 0.0000000e+00 
0.0000000e+00 3.8911594e+01 0.0000000e+00 
0.0000000e+00 2.4957136e+01 0.0000000e+00 
0.0000000e+00 1.4015774e+01 0.0000000e+00 
0.0000000e+00 6.0875025e+00 0.0000000e+00 
0.0000000e+00 1.1723235e+00 0.0000000e+00 
0.0000000e+00 -7.2976303e-01 0.0000000e+00 
0.0000000e+00 3.8124263e-01 0.0000000e+00 
0.0000000e+00 4.5053406e+00 0.0000000e+00 
0.0000000e+00 1.1642530e+01 0.0000000e+00 
0.0000000e+00 2.1792812e+01 0.0000000e+00 
0.0000000e+00 3.4956188e+01 0.0000000e+00 
0.0000000e+00 1.9148314e+01 0.0000000e+00 
0.0000000e+00 6.6736069e+00 0.0000000e+00 
0.0000000e+00 -2.4679291e+00 0.0000000e+00 
0.0000000e+00 -8.2762957e+00 0.0000000e+00 
0.0000000e+00 -1.0751493e+01 0.0000000e+00 
0.0000000e+00 -9.8935194e+00 0.0000000e+00 
0.0000000e+00 -5.7023764e+00 0.0000000e+00 
0.0000000e+00 1.8219364e+00 0.0000000e+00 
0.0000000e+00 1.2679419e+01 0.0000000e+00 
0.0000000e+00 2.6870071e+01 0.0000000e+00 
0.0000000e+00 1.1459785e+01 0.0000000e+00 
0.0000000e+00 -5.7955611e-01 0.0000000e+00 
0.0000000e+00 -9.2479553e+00 0.0000000e+00 
0.0000000e+00 -1.4545412e+01 0.0000000e+00 
0.0000000e+00 -1.6471926e+01 0.0000000e+00 
0.0000000e+00 -1.5027495e+01 0.0000000e+00 
0.0000000e+00 -1.0212124e+01 0.0000000e+00 
0.0000000e+00 -2.0258088e+00 0.0000000e+00 
0.0000000e+00 9.5314484e+00 0.0000000e+00 
0.0000000e+00 2.4459650e+01 0.0000000e+00 
0.0000000e+00 9.6928291e+00 0.0000000e+00 
0.0000000e+00 -1.4469060e+00 0.0000000e+00 
0.0000000e+00 -8.9595556e+00 0.0000000e+00 
0.0000000e+00 -1.2845119e+01 0.0000000e+00 
0.0000000e+00 -1.3103597e+01 0.0000000e+00 
0.0000000e+00 -9.7349892e+00 0.0000000e+00 
0.0000000e+00 -2.7392960e+00 0.0000000e+00 
0.0000000e+00 7.8834829e+00 0.0000000e+00 
0.0000000e+00 2.2133347e+01 0.0000000e+00 
0.0000000e+00 4.0010296e+01 0.0000000e+00 
0.0000000e+00 2.9913017e+01 0.0000000e+00 
0.0000000e+00 2.3518133e+01 0.0000000e+00 
0.0000000e+00 2.0825642e+01 0.0000000e+00 
0.0000000e+00 2.1835548e+01 0.0000000e+00 
0.0000000e+00 2.6547848e+01 0.0000000e+00 
0.0000000e+00 3.4962543e+01 0.0000000e+00 
0.0000000e+00 4.7079632e+01 0.0000000e+00 
0.0000000e+00 6.2899117e+01 0.0000000e+00 
0.0000000e+00 8.2420998e+01 0.0000000e+00 
0.0000000e+00 1.0564527e+02 0.0000000e+00 
0.0000000e+00 4.2527603e+01 0.0000000e+00 
0.0000000e+00 4.1713211e+01 0.0000000e+00 
0.0000000e+00 3.9270035e+01 0.0000000e+00 
0.0000000e+00 3.5198074e+01 0.0000000e+00 
0.0000000e+00 2.9497332e+01 0.0000000e+00 
0.0000000e+00 2.2167803e+01 0.0000000e+00 
0.0000000e+00 1.3209493e+01 0.0000000e+00 
0.0000000e+00 2.6223969e+00 0.0000000e+00 
0.0000000e+00 -9.5934820e+00 0.0000000e+00 
0.0000000e+00 -2.3438145e+01 0.0000000e+00 
0.0000000e+00 -3.8911594e+01 0.0000000e+00 
0.0000000e+00 -2.4957136e+01 0.0000000e+00 
0.0000000e+00 -1.4015774e+01 0.0000000e+00 
0.0000000e+00 -6.0875025e+00 0.0000000e+00 
0.0000000e+00 -1.1723235e+00 0.0000000e+00 
0.0000000e+00 7.2976309e-01 0.0000000e+00 
0.0000000e+00 -3.8124263e-01 0.0000000e+00 
0.0000000e+00 -4.5053406e+00 0.0000000e+00 
0.0000000e+00 -1.1642530e+01 0.0000000e+00 
0.0000000e+00 -2.1792812e+01 0.0000000e+00 
0.0000000e+00 -3.4956188e+01 0.0000000e+00 
0.0000000e+00 -1.9148314e+01 0.0000000e+00 
0.0000000e+00 -6.6736069e+00 0.0000000e+00 
0.0000000e+00 2.4679291e+00 0.0000000e+00 
0.0000000e+00 8.2762957e+00 0.0000000e+00 
0.0000000e+00 1.0751493e+01 0.0000000e+00 
0.0000000e+00 9.8935194e+00 0.0000000e+00 
0.0000000e+00 5.7023764e+00 0.0000000e+00 
0.0000000e+00 -1.8219364e+00 0.0000000e+00 
0.0000000e+00 -1.2679419e+01 0.0000000e+00 
0.0000000e+00 -2.6870071e+01 0.0000000e+00 
0.0000000e+00 -1.1459785e+01 0.0000000e+00 
0.0000000e+00 5.7955611e-01 0.0000000e+00 
0.0000000e+00 9.2479553e+00 0.0000000e+00 
0.0000000e+00 1.4545412e+01 0.0000000e+00 
0.0000000e+00 1.6471926e+01 0.0000000e+00 
0.0000000e+00 1.5027495e+01 0.0000000e+00 
0.0000000e+00 1.0212124e+01 0.0000000e+00 
0.0000000e+00 2.0258088e+00 0.0000000e+00 
0.0000000e+00 -9.5314484e+00 0.0000000e+00 
0.0000000e+00 -2.4459650e+01 0.0000000e+00 
0.0000000e+00 -9.6928291e+00 0.0000000e+00 
0.0000000e+00 1.4469060e+00 0.0000000e+00 
0.0000000e+00 8.9595556e+00 0.0000000e+00 
0.0000000e+00 1.2845119e+01 0.0000000e+00 
0.0000000e+00 1.3103597e+01 0.0000000e+00 
0.0000000e+00 9.7349892e+00 0.0000000e+00 
0.0000000e+00 2.7392960e+00 0.0000000e+00 
0.0000000e+00 -7.8834829e+00 0.0000000e+00 
0.0000000e+00 -2.2133347e+01 0.0000000e+00 
0.0000000e+00 -4.0010296e+01 0.0000000e+00 
0.0000000e+00 -2.9913017e+01 0.0000000e+00 
0.0000000e+00 -2.3518133e+01 0.0000000e+00 
0.0000000e+00 -2.0825642e+01 0.0000000e+00 
0.0000000e+00 -2.1835548e+01 0.0000000e+00 
0.0000000e+00 -2.6547848e+01 0.0000000e+00 
0.0000000e+00 -3.4962543e+01 0.0000000e+00 
0.0000000e+00 -4.7079632e+01 0.0000000e+00 
0.0000000e+00 -6.2899117e+01 0.0000000e+00 
0.0000000e+00 -8.2420998e+01 0.0000000e+00 
0.0000000e+00 -1.0564527e+02 0.0000000e+00 
0.0000000e+00 8.2969276e+01 0.0000000e+00 
0.0000000e+00 9.2466957e+01 0.0000000e+00 
0.0000000e+00 7.6044640e+01 0.0000000e+00 
0.0000000e+00 4.2342319e+01 0.0000000e+00 
0.0000000e+00 3.4924596e-12 0.0000000e+00 
0.0000000e+00 -4.2342319e+01 0.0000000e+00 
0.0000000e+00 -7.6044640e+01 0.0000000e+00 
0.0000000e+00 -9.2466957e+01 0.0000000e+00 
0.0000000e+00 -8.2969276e+01 0.0000000e+00 
0.0000000e+00 7.9804947e+01 0.0000000e+00 
0.0000000e+00 9.0093712e+01 0.0000000e+00 
0.0000000e+00 7.4462479e+01 0.0000000e+00 
0.0000000e+00 4.1551239e+01 0.0000000e+00 
0.0000000e+00 1.6252919e-11 0.0000000e+00 
0.0000000e+00 -4.1551239e+01 0.0000000e+00 
0.0000000e+00 -7.4462479e+01 0.0000000e+00 
0.0000000e+00 -9.0093712e+01 0.0000000e+00 
0.0000000e+00 -7.9804947e+01 0.0000000e+00 
0.0000000e+00 7.3336060e+01 0.0000000e+00 
0.0000000e+00 8.5242043e+01 0.0000000e+00 
0.0000000e+00 7.1228027e+01 0.0000000e+00 
0.0000000e+00 3.9934013e+01 0.0000000e+00 
0.0000000e+00 9.9771219e-11 0.0000000e+00 
0.0000000e+00 -3.9934013e+01 0.0000000e+00 
0.0000000e+00 -7.1228027e+01 0.0000000e+00 
0.0000000e+00 -8.5242043e+01 0.0000000e+00 
0.0000000e+00 -7.3336060e+01 0.0000000e+00 
0.0000000e+00 7.1407722e+01 0.0000000e+00 
0.0000000e+00 8.3795792e+01 0.0000000e+00 
0.0000000e+00 7.0263863e+01 0.0000000e+00 
0.0000000e+00 3.9451931e+01 0.0000000e+00 
0.0000000e+00 1.0613329e-10 0.0000000e+00 
0.0000000e+00 -3.9451931e+01 0.0000000e+00 
0.0000000e+00 -7.0263863e+01 0.0000000e+00 
0.0000000e+00 -8.3795792e+01 0.0000000e+00 
0.0000000e+00 -7.1407722e+01 0.0000000e+00 
0.0000000e+00 8.3848236e+01 0.0000000e+00 
0.0000000e+00 9.3126175e+01 0.0000000e+00 
0.0000000e+00 7.6484116e+01 0.0000000e+00 
0.0000000e+00 4.2562061e+01 0.0000000e+00 
0.0000000e+00 8.3819035e-11 0.0000000e+00 
0.0000000e+00 -4.2562061e+01 0.0000000e+00 
0.0000000e+00 -7.6484116e+01 0.0000000e+00 
0.0000000e+00 -9.3126175e+01 0.0000000e+00 
0.0000000e+00 -8.3848236e+01 0.0000000e+00 
0.0000000e+00 1.3635622e+02 0.0000000e+00 
0.0000000e+00 1.3250717e+02 0.0000000e+00 
0.0000000e+00 1.0273811e+02 0.0000000e+00 
0.0000000e+00 5.5689056e+01 0.0000000e+00 
0.0000000e+00 1.3501622e-10 0.0000000e+00 
0.0000000e+00 -5.5689056e+01 0.0000000e+00 
0.0000000e+00 -1.0273811e+02 0.0000000e+00 
0.0000000e+00 -1.3250717e+02 0.0000000e+00 
0.0000000e+00 -1.3635622e+02 0.0000000e+00 
REACTION 3 176  float
1.8097599e+01 -0.0000000e+00 7.2000000e+02 
4.5474735e-13 -0.0000000e+00 -0.0000000e+00 
-2.2737368e-12 -0.0000000e+00 -2.2737368e-13 
2.0463631e-12 -0.0000000e+00 -2.2737368e-13 
9.0949470e-12 -0.0000000e+00 -0.0000000e+00 
1.2505552e-12 -0.0000000e+00 -4.5474735e-13 
-1.2221335e-12 -0.0000000e+00 -4.5474735e-13 
-1.0146550e-11 -0.0000000e+00 -9.0949470e-13 
1.4779289e-12 -0.0000000e+00 9.0949470e-13 
3.8653525e-12 -0.0000000e+00 -9.0949470e-13 
-7.0841111e-12 -0.0000000e+00 7.8285596e+02 
-4.5474735e-13 -0.0000000e+00 1.0004442e-11 
2.8421709e-13 -0.0000000e+00 3.6379788e-12 
7.9580786e-13 -0.0000000e+00 -0.0000000e+00 
1.6484591e-12 -0.0000000e+00 3.6379788e-12 
2.8848035e-12 -0.0000000e+00 -1.8189894e-12 
7.5317530e-13 -0.0000000e+00 -1.8189894e-12 
-2.0463631e-12 -0.0000000e+00 -0.0000000e+00 
-1.5916157e-12 -0.0000000e+00 1.8189894e-12 
4.5474735e-13 -0.0000000e+00 1.8189894e-12 
1.8829382e-13 -0.0000000e+00 7.1749878e+02 
3.4106051e-13 -0.0000000e+00 9.0949470e-12 
-2.5579538e-13 -0.0000000e+00 9.0949470e-12 
3.6948222e-13 -0.0000000e+00 -0.0000000e+00 
-1.1368684e-13 -0.0000000e+00 -1.8189894e-12 
-1.7053026e-12 -0.0000000e+00 5.4569682e-12 
2.2737368e-13 -0.0000000e+00 -5.4569682e-12 
-8.6686214e-13 -0.0000000e+00 -5.4569682e-12 
5.2580162e-13 -0.0000000e+00 3.6379788e-12 
3.4106051e-13 -0.0000000e+00 7.2759576e-12 
-9.9253938e-14 -0.0000000e+00 6.2834344e+02 
1.2789769e-12 -0.0000000e+00 1.0913936e-11 
-2.8421709e-14 -0.0000000e+00 -2.1827873e-11 
-1.0231815e-12 -0.0000000e+00 1.0913936e-11 
-0.0000000e+00 -0.0000000e+00 -3.6379788e-12 
2.2737368e-12 -0.0000000e+00 7.2759576e-12 
-1.1368684e-13 -0.0000000e+00 7.2759576e-12 
-0.0000000e+00 -0.0000000e+00 -3.6379788e-12 
1.1368684e-13 -0.0000000e+00 7.2759576e-12 
-4.5474735e-13 -0.0000000e+00 -0.0000000e+00 
4.1744386e-13 -0.0000000e+00 6.0381610e+02 
2.2595259e-12 -0.0000000e+00 -3.6379788e-12 
-9.9475983e-14 -0.0000000e+00 -1.8189894e-11 
2.2737368e-12 -0.0000000e+00 -3.6379788e-12 
5.6843419e-13 -0.0000000e+00 -1.4551915e-11 
-6.8212103e-13 -0.0000000e+00 -0.0000000e+00 
3.1263880e-13 -0.0000000e+00 7.2759576e-12 
-2.0179414e-12 -0.0000000e+00 -0.0000000e+00 
1.1368684e-13 -0.0000000e+00 -0.0000000e+00 
4.5474735e-13 -0.0000000e+00 -3.6379788e-12 
1.0969003e-13 -0.0000000e+00 7.7034174e+02 
-4.5474735e-12 -0.0000000e+00 3.6379788e-12 
2.2737368e-13 -0.0000000e+00 1.4551915e-11 
9.0949470e-13 -0.0000000e+00 -0.0000000e+00 
1.1368684e-12 -0.0000000e+00 -7.2759576e-12 
-4.5474735e-13 -0.0000000e+00 3.6379788e-12 
1.8189894e-12 -0.0000000e+00 -7.2759576e-12 
8.6401997e-12 -0.0000000e+00 1.0913936e-11 
9.0949470e-13 -0.0000000e+00 3.6379788e-12 
9.0949470e-12 -0.0000000e+00 -7.2759576e-12 
-9.2370556e-12 -0.0000000e+00 1.5547607e+03 
-1.8097599e+01 -0.0000000e+00 7.2000000e+02 
9.0949470e-13 -0.0000000e+00 2.2737368e-13 
-2.2737368e-12 -0.0000000e+00 -2.2737368e-13 
-1.3642421e-12 -0.0000000e+00 -0.0000000e+00 
-4.0927262e-12 -0.0000000e+00 4.5474735e-13 
4.5474735e-13 -0.0000000e+00 9.0949470e-13 
4.8885340e-12 -0.0000000e+00 -0.0000000e+00 
-1.2505552e-12 -0.0000000e+00 -0.0000000e+00 
-4.3200998e-12 -0.0000000e+00 3.6379788e-12 
6.8212103e-13 -0.0000000e+00 -9.0949470e-13 
-4.9809046e-12 -0.0000000e+00 7.8285596e+02 
2.2737368e-12 -0.0000000e+00 -0.0000000e+00 
-1.0800250e-12 -0.0000000e+00 1.8189894e-12 
2.2168933e-12 -0.0000000e+00 3.6379788e-12 
-1.8758328e-12 -0.0000000e+00 5.4569682e-12 
-1.7053026e-13 -0.0000000e+00 -3.6379788e-12 
2.6716407e-12 -0.0000000e+00 1.8189894e-12 
-1.7621460e-12 -0.0000000e+00 -0.0000000e+00 
-5.2295945e-12 -0.0000000e+00 3.6379788e-12 
2.2737368e-13 -0.0000000e+00 -5.4569682e-12 
1.0800250e-12 -0.0000000e+00 7.1749878e+02 
5.6843419e-14 -0.0000000e+00 -0.0000000e+00 
-1.7053026e-13 -0.0000000e+00 -1.8189894e-12 
1.1368684e-13 -0.0000000e+00 1.8189894e-12 
-2.2737368e-13 -0.0000000e+00 -1.8189894e-12 
-0.0000000e+00 -0.0000000e+00 -1.8189894e-12 
-5.1159077e-13 -0.0000000e+00 -0.0000000e+00 
1.4210855e-13 -0.0000000e+00 1.8189894e-12 
7.1054274e-13 -0.0000000e+00 -3.6379788e-12 
5.6843419e-13 -0.0000000e+00 3.6379788e-12 
-1.4914736e-12 -0.0000000e+00 6.2834344e+02 
1.2079227e-13 -0.0000000e+00 3.6379788e-12 
2.2026825e-13 -0.0000000e+00 -3.6379788e-12 
1.1368684e-13 -0.0000000e+00 -3.6379788e-12 
5.6843419e-13 -0.0000000e+00 3.6379788e-12 
-1.1368684e-13 -0.0000000e+00 -3.6379788e-12 
-1.1368684e-12 -0.0000000e+00 3.6379788e-12 
1.1368684e-13 -0.0000000e+00 -3.6379788e-12 
5.6843419e-13 -0.0000000e+00 -3.6379788e-12 
1.4779289e-12 -0.0000000e+00 3.6379788e-12 
-2.4584779e-12 -0.0000000e+00 6.0381610e+02 
-2.1316282e-13 -0.0000000e+00 -3.6379788e-12 
9.9475983e-14 -0.0000000e+00 -3.6379788e-12 
-3.4106051e-13 -0.0000000e+00 3.6379788e-12 
1.7053026e-12 -0.0000000e+00 -0.0000000e+00 