# vtk DataFile Version 4.0
vtk output
ASCII
DATASET UNSTRUCTURED_GRID
POINTS 30 float
0.0000000e+00 0.0000000e+00 0.0000000e+00 
0.0000000e+00 0.0000000e+00 8.0000001e-01 
0.0000000e+00 0.0000000e+00 1.6000000e+00 
0.0000000e+00 0.0000000e+00 2.4000001e+00 
0.0000000e+00 0.0000000e+00 3.2000000e+00 
0.0000000e+00 0.0000000e+00 4.0000000e+00 
0.0000000e+00 0.0000000e+00 4.8000002e+00 
0.0000000e+00 0.0000000e+00 5.5999999e+00 
0.0000000e+00 0.0000000e+00 6.4000001e+00 
0.0000000e+00 0.0000000e+00 7.1999998e+00 
0.0000000e+00 0.0000000e+00 8.0000000e+00 
1.0000000e+01 0.0000000e+00 0.0000000e+00 
1.0000000e+01 0.0000000e+00 8.0000001e-01 
1.0000000e+01 0.0000000e+00 1.6000000e+00 
1.0000000e+01 0.0000000e+00 2.4000001e+00 
1.0000000e+01 0.0000000e+00 3.2000000e+00 
1.0000000e+01 0.0000000e+00 4.0000000e+00 
1.0000000e+01 0.0000000e+00 4.8000002e+00 
1.0000000e+01 0.0000000e+00 5.5999999e+00 
1.0000000e+01 0.0000000e+00 6.4000001e+00 
1.0000000e+01 0.0000000e+00 7.1999998e+00 
1.0000000e+01 0.0000000e+00 8.0000000e+00 
2.0000000e+00 0.0000000e+00 4.0000000e+00 
4.0000000e+00 0.0000000e+00 4.0000000e+00 
6.0000000e+00 0.0000000e+00 4.0000000e+00 
8.0000000e+00 0.0000000e+00 4.0000000e+00 
2.0000000e+00 0.0000000e+00 8.0000000e+00 
4.0000000e+00 0.0000000e+00 8.0000000e+00 
6.0000000e+00 0.0000000e+00 8.0000000e+00 
8.0000000e+00 0.0000000e+00 8.0000000e+00 

CELLS 30 90
2 0 1
2 1 2
2 2 3
2 3 4
2 4 5
2 5 6
2 6 7
2 7 8
2 8 9
2 9 10
2 11 12
2 12 13
2 13 14
2 14 15
2 15 16
2 16 17
2 17 18
2 18 19
2 19 20
2 20 21
2 5 22
2 22 23
2 23 24
2 24 25
2 25 16
2 10 26
2 26 27
2 27 28
2 28 29
2 29 21

CELL_TYPES 30
3
3
3
3
3
3
3
3
3
3
3
3
3
3
3
3
3
3
3
3
3
3
3
3
3
3
3
3
3
3
POINT_DATA 30
FIELD FieldData 7
DISPLACEMENT 3 30  float
0.0000000e+00 0.0000000e+00 0.0000000e+00 
-2.3906403e-03 0.0000000e+00 -7.0386436e-06 
-4.7387816e-03 0.0000000e+00 -1.4077287e-05 
-6.9782641e-03 0.0000000e+00 -1.8059287e-05 
-8.9420844e-03 0.0000000e+00 -1.9918310e-05 
-1.0434618e-02 0.0000000e+00 -2.1786778e-05 
-1.1514521e-02 0.0000000e+00 -2.6287114e-05 
-1.2342572e-02 0.0000000e+00 -3.0787451e-05 
-1.2939529e-02 0.0000000e+00 -3.5287787e-05 
-1.3326153e-02 0.0000000e+00 -3.9788127e-05 
-1.3533548e-02 0.0000000e+00 -4.1257084e-05 
0.0000000e+00 0.0000000e+00 0.0000000e+00 
-2.8649520e-03 0.0000000e+00 -2.4035933e-07 
-5.4911315e-03 0.0000000e+00 -2.4337234e-07 
-7.6763281e-03 0.0000000e+00 2.3720965e-07 
-9.3241492e-03 0.0000000e+00 -8.6257199e-07 
-1.0424915e-02 0.0000000e+00 -1.9623535e-06 
-1.1211203e-02 0.0000000e+00 -5.8227596e-07 
-1.1942874e-02 0.0000000e+00 -1.5299202e-06 
-1.2606934e-02 0.0000000e+00 -2.4775643e-06 
-1.3162109e-02 0.0000000e+00 -3.8113558e-06 
-1.3540896e-02 0.0000000e+00 -3.1723466e-06 
-1.0435761e-02 0.0000000e+00 1.8931443e-03 
-1.0429121e-02 0.0000000e+00 1.5355444e-03 
-1.0423352e-02 0.0000000e+00 1.7891717e-04 
-1.0420001e-02 0.0000000e+00 -8.3817082e-04 
-1.3528694e-02 0.0000000e+00 1.3896843e-04 
-1.3524679e-02 0.0000000e+00 3.0425595e-04 
-1.3530085e-02 0.0000000e+00 6.3303785e-05 
-1.3535490e-02 0.0000000e+00 -2.4164509e-04 
ROTATION 3 30  float
0.0000000e+00 -2.9971544e-03 0.0000000e+00 
0.0000000e+00 -2.9705926e-03 0.0000000e+00 
0.0000000e+00 -2.8909070e-03 0.0000000e+00 
0.0000000e+00 -2.6693682e-03 0.0000000e+00 
0.0000000e+00 -2.1940065e-03 0.0000000e+00 
0.0000000e+00 -1.5159345e-03 0.0000000e+00 
0.0000000e+00 -1.1881463e-03 0.0000000e+00 
0.0000000e+00 -8.8630605e-04 0.0000000e+00 
0.0000000e+00 -6.1041390e-04 0.0000000e+00 
0.0000000e+00 -3.6046965e-04 0.0000000e+00 
0.0000000e+00 -1.7527578e-04 0.0000000e+00 
0.0000000e+00 -3.6317224e-03 0.0000000e+00 
0.0000000e+00 -3.4801250e-03 0.0000000e+00 
0.0000000e+00 -3.0395205e-03 0.0000000e+00 
0.0000000e+00 -2.4044532e-03 0.0000000e+00 
0.0000000e+00 -1.7164835e-03 0.0000000e+00 
0.0000000e+00 -1.0368149e-03 0.0000000e+00 
0.0000000e+00 -9.4422180e-04 0.0000000e+00 
0.0000000e+00 -8.7864324e-04 0.0000000e+00 
0.0000000e+00 -7.7519519e-04 0.0000000e+00 
0.0000000e+00 -5.9270801e-04 0.0000000e+00 
0.0000000e+00 -3.5632815e-04 0.0000000e+00 
0.0000000e+00 -3.4238971e-04 0.0000000e+00 
0.0000000e+00 5.4949644e-04 0.0000000e+00 
0.0000000e+00 7.1574480e-04 0.0000000e+00 
0.0000000e+00 1.4809734e-04 0.0000000e+00 
0.0000000e+00 -8.6558575e-05 0.0000000e+00 
0.0000000e+00 3.2405239e-06 0.0000000e+00 
0.0000000e+00 1.8709345e-04 0.0000000e+00 
0.0000000e+00 6.7237226e-05 0.0000000e+00 
REACTION 3 30  float
2.6146833e+03 -0.0000000e+00 1.8476439e+04 
-0.0000000e+00 -0.0000000e+00 -0.0000000e+00 
3.8016879e-10 -0.0000000e+00 -1.8189894e-12 
-6.2755134e-10 -0.0000000e+00 -4.5474735e-12 
-2.8585418e-09 -0.0000000e+00 1.4551915e-11 
4.3273758e-09 -0.0000000e+00 5.2750693e-11 
-5.8207661e-11 -0.0000000e+00 9.4587449e-11 
1.3969839e-09 -0.0000000e+00 -4.3655746e-11 
-1.6007107e-09 -0.0000000e+00 -4.3655746e-11 
9.6406438e-11 -0.0000000e+00 -1.1823431e-11 
1.6370905e-09 -0.0000000e+00 2.2737368e-12 
1.4922864e+04 -0.0000000e+00 6.3094324e+02 
-1.0913936e-09 -0.0000000e+00 1.5916157e-12 
-1.2896635e-09 -0.0000000e+00 -9.5496944e-11 
1.9090294e-09 -0.0000000e+00 -8.1854523e-11 
2.6193447e-09 -0.0000000e+00 1.6370905e-10 
2.1482265e-09 -0.0000000e+00 1.9963409e-09 
3.3569449e-09 -0.0000000e+00 -4.5474735e-13 
-3.2014214e-09 -0.0000000e+00 9.0949470e-13 
2.6720954e-09 -0.0000000e+00 5.9890226e-10 
1.0595613e-09 -0.0000000e+00 -0.0000000e+00 
-3.3633114e-09 -0.0000000e+00 -1.9972504e-09 
-8.7129592e-10 -0.0000000e+00 -1.6734703e-10 
-8.2764018e-10 -0.0000000e+00 -6.1845640e-11 
5.9844751e-10 -0.0000000e+00 1.3460522e-10 
-6.0281309e-09 -0.0000000e+00 -6.0026650e-11 
-2.5775080e-09 -0.0000000e+00 -5.0022209e-12 
1.4224497e-09 -0.0000000e+00 3.6379788e-12 
-0.0000000e+00 -0.0000000e+00 2.0713742e-09 
-0.0000000e+00 -0.0000000e+00 -1.3642421e-12 
REACTION_MOMENT 3 30  float
-0.0000000e+00 -2.3283064e-10 -0.0000000e+00 
-0.0000000e+00 5.8207661e-11 -0.0000000e+00 
-0.0000000e+00 1.3387762e-09 -0.0000000e+00 
-0.0000000e+00 6.1118044e-10 -0.0000000e+00 
-0.0000000e+00 -3.0850060e-09 -0.0000000e+00 
-0.0000000e+00 -1.0422809e-09 -0.0000000e+00 
-0.0000000e+00 -5.8207661e-09 -0.0000000e+00 
-0.0000000e+00 -7.6397555e-10 -0.0000000e+00 
-0.0000000e+00 1.2369128e-10 -0.0000000e+00 
-0.0000000e+00 1.1459633e-09 -0.0000000e+00 
-0.0000000e+00 6.4937922e-10 -0.0000000e+00 
-0.0000000e+00 2.3283064e-10 -0.0000000e+00 
-0.0000000e+00 2.3283064e-10 -0.0000000e+00 
-0.0000000e+00 3.2014214e-10 -0.0000000e+00 
-0.0000000e+00 5.5297278e-10 -0.0000000e+00 
-0.0000000e+00 -1.4551915e-10 -0.0000000e+00 
-0.0000000e+00 3.7834980e-10 -0.0000000e+00 
-0.0000000e+00 2.9103830e-11 -0.0000000e+00 
-0.0000000e+00 -8.2218321e-10 -0.0000000e+00 
-0.0000000e+00 1.2732926e-09 -0.0000000e+00 
-0.0000000e+00 -2.2919266e-10 -0.0000000e+00 
-0.0000000e+00 7.6215656e-10 -0.0000000e+00 
-0.0000000e+00 -4.0017767e-11 -0.0000000e+00 
-0.0000000e+00 5.0931703e-11 -0.0000000e+00 
-0.0000000e+00 9.3677954e-11 -0.0000000e+00 
-0.0000000e+00 2.3646862e-11 -0.0000000e+00 
-0.0000000e+00 5.4569682e-12 -0.0000000e+00 
-0.0000000e+00 8.1854523e-12 -0.0000000e+00 
-0.0000000e+00 -4.0927262e-12 -0.0000000e+00 
-0.0000000e+00 -4.5474735e-12 -0.0000000e+00 
VOLUME_ACCELERATION 3 30  float
0.0000000e+00 0.0000000e+00 0.0000000e+00 
0.0000000e+00 0.0000000e+00 0.0000000e+00 
0.0000000e+00 0.0000000e+00 0.0000000e+00 
0.0000000e+00 0.0000000e+00 0.0000000e+00 
0.0000000e+00 0.0000000e+00 0.0000000e+00 
0.0000000e+00 0.0000000e+00 0.0000000e+00 
0.0000000e+00 0.0000000e+00 0.0000000e+00 
0.0000000e+00 0.0000000e+00 0.0000000e+00 
0.0000000e+00 0.0000000e+00 0.0000000e+00 
0.0000000e+00 0.0000000e+00 0.0000000e+00 
0.0000000e+00 0.0000000e+00 0.0000000e+00 
0.0000000e+00 0.0000000e+00 0.0000000e+00 
0.0000000e+00 0.0000000e+00 0.0000000e+00 
0.0000000e+00 0.0000000e+00 0.0000000e+00 
0.0000000e+00 0.0000000e+00 0.0000000e+00 
0.0000000e+00 0.0000000e+00 0.0000000e+00 
0.0000000e+00 0.0000000e+00 0.0000000e+00 
0.0000000e+00 0.0000000e+00 0.0000000e+00 
0.0000000e+00 0.0000000e+00 0.0000000e+00 
0.0000000e+00 0.0000000e+00 0.0000000e+00 
0.0000000e+00 0.0000000e+00 0.0000000e+00 
0.0000000e+00 0.0000000e+00 0.0000000e+00 
0.0000000e+00 0.0000000e+00 0.0000000e+00 
0.0000000e+00 0.0000000e+00 0.0000000e+00 
0.0000000e+00 0.0000000e+00 0.0000000e+00 
0.0000000e+00 0.0000000e+00 0.0000000e+00 
0.0000000e+00 0.0000000e+00 0.0000000e+00 
0.0000000e+00 0.0000000e+00 0.0000000e+00 
0.0000000e+00 0.0000000e+00 0.0000000e+00 
0.0000000e+00 0.0000000e+00 0.0000000e+00 
POINT_LOAD 3 30  float
0.0000000e+00 0.0000000e+00 0.0000000e+00 
0.0000000e+00 0.0000000e+00 0.0000000e+00 
8.7343193e+03 0.0000000e+00 -8.0236899e+03 
2.2876567e+03 0.0000000e+00 -5.5728125e+03 
-7.3189888e+03 0.0000000e+00 2.4790514e+01 
-6.3947544e+03 0.0000000e+00 4.2339771e+03 
0.0000000e+00 0.0000000e+00 0.0000000e+00 
0.0000000e+00 0.0000000e+00 0.0000000e+00 
0.0000000e+00 0.0000000e+00 0.0000000e+00 
-3.8196096e+03 0.0000000e+00 -7.9573667e+03 
0.0000000e+00 0.0000000e+00 0.0000000e+00 
0.0000000e+00 0.0000000e+00 0.0000000e+00 
-1.3965793e+03 0.0000000e+00 -6.2303406e+02 
-7.9101479e+03 0.0000000e+00 -1.2694369e+03 
-6.0246992e+03 0.0000000e+00 4.1484546e+03 
0.0000000e+00 0.0000000e+00 0.0000000e+00 
-9.2745146e+03 0.0000000e+00 -8.9906846e+03 
6.3870171e+03 0.0000000e+00 6.1102695e+03 
0.0000000e+00 0.0000000e+00 0.0000000e+00 
4.0526499e+03 0.0000000e+00 1.0136368e+03 
-6.5280166e+03 0.0000000e+00 -5.1786021e+03 
-5.0641943e+03 0.0000000e+00 -7.1431049e+02 
-8.1723462e+03 0.0000000e+00 9.7854824e+03 
9.1478900e+02 0.0000000e+00 -2.7928110e+03 
2.5389695e+03 0.0000000e+00 2.9228750e+03 
8.6784912e+03 0.0000000e+00 -4.7598130e+03 
8.8096655e+02 0.0000000e+00 -7.7290752e+03 
9.8914453e+03 0.0000000e+00 6.2647671e+03 
0.0000000e+00 0.0000000e+00 0.0000000e+00 
0.0000000e+00 0.0000000e+00 0.0000000e+00 
POINT_MOMENT 3 30  float
0.0000000e+00 0.0000000e+00 0.0000000e+00 
0.0000000e+00 0.0000000e+00 0.0000000e+00 
0.0000000e+00 0.0000000e+00 0.0000000e+00 
0.0000000e+00 0.0000000e+00 0.0000000e+00 
0.0000000e+00 0.0000000e+00 0.0000000e+00 
0.0000000e+00 0.0000000e+00 0.0000000e+00 
0.0000000e+00 0.0000000e+00 0.0000000e+00 
0.0000000e+00 0.0000000e+00 0.0000000e+00 
0.0000000e+00 0.0000000e+00 0.0000000e+00 
0.0000000e+00 0.0000000e+00 0.0000000e+00 
0.0000000e+00 0.0000000e+00 0.0000000e+00 
0.0000000e+00 0.0000000e+00 0.0000000e+00 
0.0000000e+00 0.0000000e+00 0.0000000e+00 
0.0000000e+00 0.0000000e+00 0.0000000e+00 
0.0000000e+00 0.0000000e+00 0.0000000e+00 
0.0000000e+00 0.0000000e+00 0.0000000e+00 
0.0000000e+00 0.0000000e+00 0.0000000e+00 
0.0000000e+00 0.0000000e+00 0.0000000e+00 
0.0000000e+00 0.0000000e+00 0.0000000e+00 
0.0000000e+00 0.0000000e+00 0.0000000e+00 
0.0000000e+00 0.0000000e+00 0.0000000e+00 
0.0000000e+00 0.0000000e+00 0.0000000e+00 
0.0000000e+00 0.0000000e+00 0.0000000e+00 
0.0000000e+00 0.0000000e+00 0.0000000e+00 
0.0000000e+00 0.0000000e+00 0.0000000e+00 
0.0000000e+00 0.0000000e+00 0.0000000e+00 
0.0000000e+00 0.0000000e+00 0.0000000e+00 
0.0000000e+00 0.0000000e+00 0.0000000e+00 
0.0000000e+00 0.0000000e+00 0.0000000e+00 
0.0000000e+00 0.0000000e+00 0.0000000e+00 
CELL_DATA 30
FIELD FieldData 9
YOUNG_MODULUS 1 30  float
2.1000000e+11
2.1000000e+11
2.1000000e+11
2.1000000e+11
2.1000000e+11
2.1000000e+11
2.1000000e+11
2.1000000e+11
2.1000000e+11
2.1000000e+11
2.1000000e+11
2.1000000e+11
2.1000000e+11
2.1000000e+11
2.1000000e+11
2.1000000e+11
2.1000000e+11
2.1000000e+11
2.1000000e+11
2.1000000e+11
2.1000000e+11
2.1000000e+11
2.1000000e+11
2.1000000e+11
2.1000000e+11
2.1000000e+11
2.1000000e+11
2.1000000e+11
2.1000000e+11
2.1000000e+11
DENSITY 1 30  float
7.8500000e+03
7.8500000e+03
7.8500000e+03
7.8500000e+03
7.8500000e+03
7.8500000e+03
7.8500000e+03
7.8500000e+03
7.8500000e+03
7.8500000e+03
7.8500000e+03
7.8500000e+03
7.8500000e+03
7.8500000e+03
7.8500000e+03
7.8500000e+03
7.8500000e+03
7.8500000e+03
7.8500000e+03
7.8500000e+03
7.8500000e+03
7.8500000e+03
7.8500000e+03
7.8500000e+03
7.8500000e+03
7.8500000e+03
7.8500000e+03
7.8500000e+03
7.8500000e+03
7.8500000e+03
CROSS_AREA 1 30  float
9.9999998e-03
9.9999998e-03
9.9999998e-03
9.9999998e-03
9.9999998e-03
9.9999998e-03
9.9999998e-03
9.9999998e-03
9.9999998e-03
9.9999998e-03
9.9999998e-03
9.9999998e-03
9.9999998e-03
9.9999998e-03
9.9999998e-03
9.9999998e-03
9.9999998e-03
9.9999998e-03
9.9999998e-03
9.9999998e-03
9.9999998e-03
9.9999998e-03
9.9999998e-03
9.9999998e-03
9.9999998e-03
9.9999998e-03
9.9999998e-03
9.9999998e-03
9.9999998e-03
9.9999998e-03
I22 1 30  float
1.5000001e-04
1.5000001e-04
1.5000001e-04
1.5000001e-04
1.5000001e-04
1.5000001e-04
1.5000001e-04
1.5000001e-04
1.5000001e-04
1.5000001e-04
1.5000001e-04
1.5000001e-04
1.5000001e-04
1.5000001e-04
1.5000001e-04
1.5000001e-04
1.5000001e-04
1.5000001e-04
1.5000001e-04
1.5000001e-04
1.5000001e-04
1.5000001e-04
1.5000001e-04
1.5000001e-04
1.5000001e-04
1.5000001e-04
1.5000001e-04
1.5000001e-04
1.5000001e-04
1.5000001e-04
I33 1 30  float
1.5000001e-04
1.5000001e-04
1.5000001e-04
1.5000001e-04
1.5000001e-04
1.5000001e-04
1.5000001e-04
1.5000001e-04
1.5000001e-04
1.5000001e-04
1.5000001e-04
1.5000001e-04
1.5000001e-04
1.5000001e-04
1.5000001e-04
1.5000001e-04
1.5000001e-04
1.5000001e-04
1.5000001e-04
1.5000001e-04
1.5000001e-04
1.5000001e-04
1.5000001e-04
1.5000001e-04
1.5000001e-04
1.5000001e-04
1.5000001e-04
1.5000001e-04
1.5000001e-04
1.5000001e-04
TORSIONAL_INERTIA 1 30  float
3.0000001e-04
3.0000001e-04
3.0000001e-04
3.0000001e-04
3.0000001e-04
3.0000001e-04
3.0000001e-04
3.0000001e-04
3.0000001e-04
3.0000001e-04
3.0000001e-04
3.0000001e-04
3.0000001e-04
3.0000001e-04
3.0000001e-04
3.0000001e-04
3.0000001e-04
3.0000001e-04
3.0000001e-04
3.0000001e-04
3.0000001e-04
3.0000001e-04
3.0000001e-04
3.0000001e-04
3.0000001e-04
3.0000001e-04
3.0000001e-04
3.0000001e-04
3.0000001e-04
3.0000001e-04
POISSON_RATIO 1 30  float
3.0000001e-01
3.0000001e-01
3.0000001e-01
3.0000001e-01
3.0000001e-01
3.0000001e-01
3.0000001e-01
3.0000001e-01
3.0000001e-01
3.0000001e-01
3.0000001e-01
3.0000001e-01
3.0000001e-01
3.0000001e-01
3.0000001e-01
3.0000001e-01
3.0000001e-01
3.0000001e-01
3.0000001e-01
3.0000001e-01
3.0000001e-01
3.0000001e-01
3.0000001e-01
3.0000001e-01
3.0000001e-01
3.0000001e-01
3.0000001e-01
3.0000001e-01
3.0000001e-01
3.0000001e-01
MOMENT 3 30  float
0.0000000e+00 1.0458733e+03 0.0000000e+00 
0.0000000e+00 3.1376201e+03 0.0000000e+00 
0.0000000e+00 8.7230947e+03 0.0000000e+00 
0.0000000e+00 1.8717359e+04 0.0000000e+00 
0.0000000e+00 2.6699092e+04 0.0000000e+00 
0.0000000e+00 1.2906659e+04 0.0000000e+00 
0.0000000e+00 1.1884957e+04 0.0000000e+00 
0.0000000e+00 1.0863256e+04 0.0000000e+00 
0.0000000e+00 9.8415537e+03 0.0000000e+00 
0.0000000e+00 7.2920083e+03 0.0000000e+00 
0.0000000e+00 5.9691455e+03 0.0000000e+00 
0.0000000e+00 1.7348805e+04 0.0000000e+00 
0.0000000e+00 2.5005773e+04 0.0000000e+00 
0.0000000e+00 2.7088803e+04 0.0000000e+00 
0.0000000e+00 2.6761953e+04 0.0000000e+00 
0.0000000e+00 3.6458538e+03 0.0000000e+00 
0.0000000e+00 2.5821560e+03 0.0000000e+00 
0.0000000e+00 4.0732651e+03 0.0000000e+00 
0.0000000e+00 7.1854341e+03 0.0000000e+00 
0.0000000e+00 9.3074561e+03 0.0000000e+00 
0.0000000e+00 1.8483330e+04 0.0000000e+00 
0.0000000e+00 1.4047206e+04 0.0000000e+00 
0.0000000e+00 2.6184116e+03 0.0000000e+00 
0.0000000e+00 -8.9404473e+03 0.0000000e+00 
0.0000000e+00 -1.8662367e+04 0.0000000e+00 
0.0000000e+00 1.3972960e+03 0.0000000e+00 
0.0000000e+00 1.4143358e+03 0.0000000e+00 
0.0000000e+00 2.8956836e+03 0.0000000e+00 
0.0000000e+00 -1.8877356e+03 0.0000000e+00 
0.0000000e+00 -6.6711548e+03 0.0000000e+00 
FORCE 3 30  float
-1.8476439e+04 0.0000000e+00 2.6146833e+03 
-1.8476439e+04 0.0000000e+00 2.6146833e+03 
-1.0452749e+04 0.0000000e+00 1.1349003e+04 
-4.8799365e+03 0.0000000e+00 1.3636659e+04 
-4.9047271e+03 0.0000000e+00 6.3176704e+03 
-1.1813385e+04 0.0000000e+00 -1.2771271e+03 
-1.1813385e+04 0.0000000e+00 -1.2771271e+03 
-1.1813385e+04 0.0000000e+00 -1.2771271e+03 
-1.1813385e+04 0.0000000e+00 -1.2771271e+03 
-3.8560176e+03 0.0000000e+00 -5.0967368e+03 
-6.3094324e+02 0.0000000e+00 1.4922864e+04 
-7.9091816e+00 0.0000000e+00 1.3526284e+04 
1.2615277e+03 0.0000000e+00 5.6161367e+03 
-2.8869268e+03 0.0000000e+00 -4.0856250e+02 
-2.8869268e+03 0.0000000e+00 -4.0856250e+02 
3.6227039e+03 0.0000000e+00 -4.5231309e+03 
-2.4875659e+03 0.0000000e+00 1.8638862e+03 
-2.4875659e+03 0.0000000e+00 1.8638862e+03 
-3.5012026e+03 0.0000000e+00 5.9165361e+03 
1.6773992e+03 0.0000000e+00 -6.1148029e+02 
-1.2000433e+03 0.0000000e+00 2.6746799e+03 
6.9723027e+03 0.0000000e+00 -7.1108027e+03 
6.0575137e+03 0.0000000e+00 -4.3179917e+03 
3.5185442e+03 0.0000000e+00 -7.2408667e+03 
-5.1599468e+03 0.0000000e+00 -2.4810542e+03 
5.0967368e+03 0.0000000e+00 -3.8560176e+03 
4.2157700e+03 0.0000000e+00 3.8730574e+03 
-5.6756748e+03 0.0000000e+00 -2.3917095e+03 
-5.6756748e+03 0.0000000e+00 -2.3917095e+03 
-5.6756748e+03 0.0000000e+00 -2.3917095e+03 
