# vtk DataFile Version 4.0
vtk output
ASCII
DATASET UNSTRUCTURED_GRID
POINTS 212 float
0.0000000e+00 0.0000000e+00 0.0000000e+00 
0.0000000e+00 0.0000000e+00 2.5000000e-01 
0.0000000e+00 0.0000000e+00 5.0000000e-01 
0.0000000e+00 0.0000000e+00 7.5000000e-01 
0.0000000e+00 0.0000000e+00 1.0000000e+00 
0.0000000e+00 0.0000000e+00 1.2500000e+00 
0.0000000e+00 0.0000000e+00 1.5000000e+00 
0.0000000e+00 0.0000000e+00 1.7500000e+00 
0.0000000e+00 0.0000000e+00 2.0000000e+00 
0.0000000e+00 0.0000000e+00 2.2500000e+00 
0.0000000e+00 0.0000000e+00 2.5000000e+00 
0.0000000e+00 0.0000000e+00 2.7500000e+00 
0.0000000e+00 0.0000000e+00 3.0000000e+00 
0.0000000e+00 0.0000000e+00 3.2500000e+00 
0.0000000e+00 0.0000000e+00 3.5000000e+00 
0.0000000e+00 0.0000000e+00 3.7500000e+00 
0.0000000e+00 0.0000000e+00 4.0000000e+00 
0.0000000e+00 0.0000000e+00 4.2500000e+00 
0.0000000e+00 0.0000000e+00 4.5000000e+00 
0.0000000e+00 0.0000000e+00 4.7500000e+00 
0.0000000e+00 0.0000000e+00 5.0000000e+00 
0.0000000e+00 0.0000000e+00 5.2500000e+00 
0.0000000e+00 0.0000000e+00 5.5000000e+00 
0.0000000e+00 0.0000000e+00 5.7500000e+00 
0.0000000e+00 0.0000000e+00 6.0000000e+00 
0.0000000e+00 0.0000000e+00 6.2500000e+00 
0.0000000e+00 0.0000000e+00 6.5000000e+00 
0.0000000e+00 0.0000000e+00 6.7500000e+00 
0.0000000e+00 0.0000000e+00 7.0000000e+00 
0.0000000e+00 0.0000000e+00 7.2500000e+00 
0.0000000e+00 0.0000000e+00 7.5000000e+00 
0.0000000e+00 0.0000000e+00 7.7500000e+00 
0.0000000e+00 0.0000000e+00 8.0000000e+00 
0.0000000e+00 0.0000000e+00 8.2500000e+00 
0.0000000e+00 0.0000000e+00 8.5000000e+00 
0.0000000e+00 0.0000000e+00 8.7500000e+00 
0.0000000e+00 0.0000000e+00 9.0000000e+00 
0.0000000e+00 0.0000000e+00 9.2500000e+00 
0.0000000e+00 0.0000000e+00 9.5000000e+00 
0.0000000e+00 0.0000000e+00 9.7500000e+00 
0.0000000e+00 0.0000000e+00 1.0000000e+01 
0.0000000e+00 0.0000000e+00 1.0250000e+01 
0.0000000e+00 0.0000000e+00 1.0500000e+01 
0.0000000e+00 0.0000000e+00 1.0750000e+01 
0.0000000e+00 0.0000000e+00 1.1000000e+01 
0.0000000e+00 0.0000000e+00 1.1250000e+01 
0.0000000e+00 0.0000000e+00 1.1500000e+01 
0.0000000e+00 0.0000000e+00 1.1750000e+01 
0.0000000e+00 0.0000000e+00 1.2000000e+01 
0.0000000e+00 0.0000000e+00 1.2250000e+01 
0.0000000e+00 0.0000000e+00 1.2500000e+01 
0.0000000e+00 0.0000000e+00 1.2750000e+01 
0.0000000e+00 0.0000000e+00 1.3000000e+01 
0.0000000e+00 0.0000000e+00 1.3250000e+01 
0.0000000e+00 0.0000000e+00 1.3500000e+01 
0.0000000e+00 0.0000000e+00 1.3750000e+01 
0.0000000e+00 0.0000000e+00 1.4000000e+01 
0.0000000e+00 0.0000000e+00 1.4250000e+01 
0.0000000e+00 0.0000000e+00 1.4500000e+01 
0.0000000e+00 0.0000000e+00 1.4750000e+01 
0.0000000e+00 0.0000000e+00 1.5000000e+01 
0.0000000e+00 0.0000000e+00 1.5250000e+01 
0.0000000e+00 0.0000000e+00 1.5500000e+01 
0.0000000e+00 0.0000000e+00 1.5750000e+01 
0.0000000e+00 0.0000000e+00 1.6000000e+01 
0.0000000e+00 0.0000000e+00 1.6250000e+01 
0.0000000e+00 0.0000000e+00 1.6500000e+01 
0.0000000e+00 0.0000000e+00 1.6750000e+01 
0.0000000e+00 0.0000000e+00 1.7000000e+01 
0.0000000e+00 0.0000000e+00 1.7250000e+01 
0.0000000e+00 0.0000000e+00 1.7500000e+01 
0.0000000e+00 0.0000000e+00 1.7750000e+01 
0.0000000e+00 0.0000000e+00 1.8000000e+01 
5.0000000e-01 0.0000000e+00 3.0000000e+00 
5.0000000e-01 0.0000000e+00 6.0000000e+00 
5.0000000e-01 0.0000000e+00 9.0000000e+00 
5.0000000e-01 0.0000000e+00 1.2000000e+01 
5.0000000e-01 0.0000000e+00 1.5000000e+01 
5.0000000e-01 0.0000000e+00 1.8000000e+01 
1.0000000e+00 0.0000000e+00 3.0000000e+00 
1.0000000e+00 0.0000000e+00 6.0000000e+00 
1.0000000e+00 0.0000000e+00 9.0000000e+00 
1.0000000e+00 0.0000000e+00 1.2000000e+01 
1.0000000e+00 0.0000000e+00 1.5000000e+01 
1.0000000e+00 0.0000000e+00 1.8000000e+01 
1.5000000e+00 0.0000000e+00 3.0000000e+00 
1.5000000e+00 0.0000000e+00 6.0000000e+00 
1.5000000e+00 0.0000000e+00 9.0000000e+00 
1.5000000e+00 0.0000000e+00 1.2000000e+01 
1.5000000e+00 0.0000000e+00 1.5000000e+01 
1.5000000e+00 0.0000000e+00 1.8000000e+01 
2.0000000e+00 0.0000000e+00 3.0000000e+00 
2.0000000e+00 0.0000000e+00 6.0000000e+00 
2.0000000e+00 0.0000000e+00 9.0000000e+00 
2.0000000e+00 0.0000000e+00 1.2000000e+01 
2.0000000e+00 0.0000000e+00 1.5000000e+01 
2.0000000e+00 0.0000000e+00 1.8000000e+01 
2.5000000e+00 0.0000000e+00 3.0000000e+00 
2.5000000e+00 0.0000000e+00 6.0000000e+00 
2.5000000e+00 0.0000000e+00 9.0000000e+00 
2.5000000e+00 0.0000000e+00 1.2000000e+01 
2.5000000e+00 0.0000000e+00 1.5000000e+01 
2.5000000e+00 0.0000000e+00 1.8000000e+01 
3.0000000e+00 0.0000000e+00 3.0000000e+00 
3.0000000e+00 0.0000000e+00 6.0000000e+00 
3.0000000e+00 0.0000000e+00 9.0000000e+00 
3.0000000e+00 0.0000000e+00 1.2000000e+01 
3.0000000e+00 0.0000000e+00 1.5000000e+01 
3.0000000e+00 0.0000000e+00 1.8000000e+01 
3.5000000e+00 0.0000000e+00 3.0000000e+00 
3.5000000e+00 0.0000000e+00 6.0000000e+00 
3.5000000e+00 0.0000000e+00 9.0000000e+00 
3.5000000e+00 0.0000000e+00 1.2000000e+01 
3.5000000e+00 0.0000000e+00 1.5000000e+01 
3.5000000e+00 0.0000000e+00 1.8000000e+01 
4.0000000e+00 0.0000000e+00 3.0000000e+00 
4.0000000e+00 0.0000000e+00 6.0000000e+00 
4.0000000e+00 0.0000000e+00 9.0000000e+00 
4.0000000e+00 0.0000000e+00 1.2000000e+01 
4.0000000e+00 0.0000000e+00 1.5000000e+01 
4.0000000e+00 0.0000000e+00 1.8000000e+01 
4.5000000e+00 0.0000000e+00 3.0000000e+00 
4.5000000e+00 0.0000000e+00 6.0000000e+00 
4.5000000e+00 0.0000000e+00 9.0000000e+00 
4.5000000e+00 0.0000000e+00 1.2000000e+01 
4.5000000e+00 0.0000000e+00 1.5000000e+01 
4.5000000e+00 0.0000000e+00 1.8000000e+01 
5.0000000e+00 0.0000000e+00 3.0000000e+00 
5.0000000e+00 0.0000000e+00 6.0000000e+00 
5.0000000e+00 0.0000000e+00 9.0000000e+00 
5.0000000e+00 0.0000000e+00 1.2000000e+01 
5.0000000e+00 0.0000000e+00 1.5000000e+01 
5.0000000e+00 0.0000000e+00 1.8000000e+01 
5.5000000e+00 0.0000000e+00 3.0000000e+00 
5.5000000e+00 0.0000000e+00 6.0000000e+00 
5.5000000e+00 0.0000000e+00 9.0000000e+00 
5.5000000e+00 0.0000000e+00 1.2000000e+01 
5.5000000e+00 0.0000000e+00 1.5000000e+01 
5.5000000e+00 0.0000000e+00 1.8000000e+01 
6.0000000e+00 0.0000000e+00 0.0000000e+00 
6.0000000e+00 0.0000000e+00 2.5000000e-01 
6.0000000e+00 0.0000000e+00 5.0000000e-01 
6.0000000e+00 0.0000000e+00 7.5000000e-01 
6.0000000e+00 0.0000000e+00 1.0000000e+00 
6.0000000e+00 0.0000000e+00 1.2500000e+00 
6.0000000e+00 0.0000000e+00 1.5000000e+00 
6.0000000e+00 0.0000000e+00 1.7500000e+00 
6.0000000e+00 0.0000000e+00 2.0000000e+00 
6.0000000e+00 0.0000000e+00 2.2500000e+00 
6.0000000e+00 0.0000000e+00 2.5000000e+00 
6.0000000e+00 0.0000000e+00 2.7500000e+00 
6.0000000e+00 0.0000000e+00 3.0000000e+00 
6.0000000e+00 0.0000000e+00 3.2500000e+00 
6.0000000e+00 0.0000000e+00 3.5000000e+00 
6.0000000e+00 0.0000000e+00 3.7500000e+00 
6.0000000e+00 0.0000000e+00 4.0000000e+00 
6.0000000e+00 0.0000000e+00 4.2500000e+00 
6.0000000e+00 0.0000000e+00 4.5000000e+00 
6.0000000e+00 0.0000000e+00 4.7500000e+00 
6.0000000e+00 0.0000000e+00 5.0000000e+00 
6.0000000e+00 0.0000000e+00 5.2500000e+00 
6.0000000e+00 0.0000000e+00 5.5000000e+00 
6.0000000e+00 0.0000000e+00 5.7500000e+00 
6.0000000e+00 0.0000000e+00 6.0000000e+00 
6.0000000e+00 0.0000000e+00 6.2500000e+00 
6.0000000e+00 0.0000000e+00 6.5000000e+00 
6.0000000e+00 0.0000000e+00 6.7500000e+00 
6.0000000e+00 0.0000000e+00 7.0000000e+00 
6.0000000e+00 0.0000000e+00 7.2500000e+00 
6.0000000e+00 0.0000000e+00 7.5000000e+00 
6.0000000e+00 0.0000000e+00 7.7500000e+00 
6.0000000e+00 0.0000000e+00 8.0000000e+00 
6.0000000e+00 0.0000000e+00 8.2500000e+00 
6.0000000e+00 0.0000000e+00 8.5000000e+00 
6.0000000e+00 0.0000000e+00 8.7500000e+00 
6.0000000e+00 0.0000000e+00 9.0000000e+00 
6.0000000e+00 0.0000000e+00 9.2500000e+00 
6.0000000e+00 0.0000000e+00 9.5000000e+00 
6.0000000e+00 0.0000000e+00 9.7500000e+00 
6.0000000e+00 0.0000000e+00 1.0000000e+01 
6.0000000e+00 0.0000000e+00 1.0250000e+01 
6.0000000e+00 0.0000000e+00 1.0500000e+01 
6.0000000e+00 0.0000000e+00 1.0750000e+01 
6.0000000e+00 0.0000000e+00 1.1000000e+01 
6.0000000e+00 0.0000000e+00 1.1250000e+01 
6.0000000e+00 0.0000000e+00 1.1500000e+01 
6.0000000e+00 0.0000000e+00 1.1750000e+01 
6.0000000e+00 0.0000000e+00 1.2000000e+01 
6.0000000e+00 0.0000000e+00 1.2250000e+01 
6.0000000e+00 0.0000000e+00 1.2500000e+01 
6.0000000e+00 0.0000000e+00 1.2750000e+01 
6.0000000e+00 0.0000000e+00 1.3000000e+01 
6.0000000e+00 0.0000000e+00 1.3250000e+01 
6.0000000e+00 0.0000000e+00 1.3500000e+01 
6.0000000e+00 0.0000000e+00 1.3750000e+01 
6.0000000e+00 0.0000000e+00 1.4000000e+01 
6.0000000e+00 0.0000000e+00 1.4250000e+01 
6.0000000e+00 0.0000000e+00 1.4500000e+01 
6.0000000e+00 0.0000000e+00 1.4750000e+01 
6.0000000e+00 0.0000000e+00 1.5000000e+01 
6.0000000e+00 0.0000000e+00 1.5250000e+01 
6.0000000e+00 0.0000000e+00 1.5500000e+01 
6.0000000e+00 0.0000000e+00 1.5750000e+01 
6.0000000e+00 0.0000000e+00 1.6000000e+01 
6.0000000e+00 0.0000000e+00 1.6250000e+01 
6.0000000e+00 0.0000000e+00 1.6500000e+01 
6.0000000e+00 0.0000000e+00 1.6750000e+01 
6.0000000e+00 0.0000000e+00 1.7000000e+01 
6.0000000e+00 0.0000000e+00 1.7250000e+01 
6.0000000e+00 0.0000000e+00 1.7500000e+01 
6.0000000e+00 0.0000000e+00 1.7750000e+01 
6.0000000e+00 0.0000000e+00 1.8000000e+01 

CELLS 216 648
2 0 1
2 1 2
2 2 3
2 3 4
2 4 5
2 5 6
2 6 7
2 7 8
2 8 9
2 9 10
2 10 11
2 11 12
2 12 13
2 13 14
2 14 15
2 15 16
2 16 17
2 17 18
2 18 19
2 19 20
2 20 21
2 21 22
2 22 23
2 23 24
2 24 25
2 25 26
2 26 27
2 27 28
2 28 29
2 29 30
2 30 31
2 31 32
2 32 33
2 33 34
2 34 35
2 35 36
2 36 37
2 37 38
2 38 39
2 39 40
2 40 41
2 41 42
2 42 43
2 43 44
2 44 45
2 45 46
2 46 47
2 47 48
2 48 49
2 49 50
2 50 51
2 51 52
2 52 53
2 53 54
2 54 55
2 55 56
2 56 57
2 57 58
2 58 59
2 59 60
2 60 61
2 61 62
2 62 63
2 63 64
2 64 65
2 65 66
2 66 67
2 67 68
2 68 69
2 69 70
2 70 71
2 71 72
2 139 140
2 140 141
2 141 142
2 142 143
2 143 144
2 144 145
2 145 146
2 146 147
2 147 148
2 148 149
2 149 150
2 150 151
2 151 152
2 152 153
2 153 154
2 154 155
2 155 156
2 156 157
2 157 158
2 158 159
2 159 160
2 160 161
2 161 162
2 162 163
2 163 164
2 164 165
2 165 166
2 166 167
2 167 168
2 168 169
2 169 170
2 170 171
2 171 172
2 172 173
2 173 174
2 174 175
2 175 176
2 176 177
2 177 178
2 178 179
2 179 180
2 180 181
2 181 182
2 182 183
2 183 184
2 184 185
2 185 186
2 186 187
2 187 188
2 188 189
2 189 190
2 190 191
2 191 192
2 192 193
2 193 194
2 194 195
2 195 196
2 196 197
2 197 198
2 198 199
2 199 200
2 200 201
2 201 202
2 202 203
2 203 204
2 204 205
2 205 206
2 206 207
2 207 208
2 208 209
2 209 210
2 210 211
2 12 73
2 73 79
2 79 85
2 85 91
2 91 97
2 97 103
2 103 109
2 109 115
2 115 121
2 121 127
2 127 133
2 133 151
2 24 74
2 74 80
2 80 86
2 86 92
2 92 98
2 98 104
2 104 110
2 110 116
2 116 122
2 122 128
2 128 134
2 134 163
2 36 75
2 75 81
2 81 87
2 87 93
2 93 99
2 99 105
2 105 111
2 111 117
2 117 123
2 123 129
2 129 135
2 135 175
2 48 76
2 76 82
2 82 88
2 88 94
2 94 100
2 100 106
2 106 112
2 112 118
2 118 124
2 124 130
2 130 136
2 136 187
2 60 77
2 77 83
2 83 89
2 89 95
2 95 101
2 101 107
2 107 113
2 113 119
2 119 125
2 125 131
2 131 137
2 137 199
2 72 78
2 78 84
2 84 90
2 90 96
2 96 102
2 102 108
2 108 114
2 114 120
2 120 126
2 126 132
2 132 138
2 138 211

CELL_TYPES 216
3
3
3
3
3
3
3
3
3
3
3
3
3
3
3
3
3
3
3
3
3
3
3
3
3
3
3
3
3
3
3
3
3
3
3
3
3
3
3
3
3
3
3
3
3
3
3
3
3
3
3
3
3
3
3
3
3
3
3
3
3
3
3
3
3
3
3
3
3
3
3
3
3
3
3
3
3
3
3
3
3
3
3
3
3
3
3
3
3
3
3
3
3
3
3
3
3
3
3
3
3
3
3
3
3
3
3
3
3
3
3
3
3
3
3
3
3
3
3
3
3
3
3
3
3
3
3
3
3
3
3
3
3
3
3
3
3
3
3
3
3
3
3
3
3
3
3
3
3
3
3
3
3
3
3
3
3
3
3
3
3
3
3
3
3
3
3
3
3
3
3
3
3
3
3
3
3
3
3
3
3
3
3
3
3
3
3
3
3
3
3
3
3
3
3
3
3
3
3
3
3
3
3
3
3
3
3
3
3
3
3
3
3
3
3
3
POINT_DATA 212
FIELD FieldData 8
DISPLACEMENT 3 212  float
0.0000000e+00 0.0000000e+00 0.0000000e+00 
-8.7237779e-05 0.0000000e+00 -3.4260897e-06 
-1.7081821e-04 0.0000000e+00 -6.8284025e-06 
-2.4708395e-04 0.0000000e+00 -1.0206938e-05 
-3.1237770e-04 0.0000000e+00 -1.3561697e-05 
-3.6304205e-04 0.0000000e+00 -1.6892678e-05 
-3.9541975e-04 0.0000000e+00 -2.0199881e-05 
-4.0585335e-04 0.0000000e+00 -2.3483310e-05 
-3.9068560e-04 0.0000000e+00 -2.6742959e-05 
-3.4625913e-04 0.0000000e+00 -2.9978832e-05 
-2.6891657e-04 0.0000000e+00 -3.3190925e-05 
-1.5500064e-04 0.0000000e+00 -3.6379246e-05 
-8.5394453e-07 0.0000000e+00 -3.9543786e-05 
1.3788290e-04 0.0000000e+00 -4.2396881e-05 
2.1117774e-04 0.0000000e+00 -4.5226196e-05 
2.3110054e-04 0.0000000e+00 -4.8031736e-05 
2.0972124e-04 0.0000000e+00 -5.0813498e-05 
1.5910983e-04 0.0000000e+00 -5.3571483e-05 
9.1336260e-05 0.0000000e+00 -5.6305689e-05 
1.8470504e-05 0.0000000e+00 -5.9016122e-05 
-4.7417478e-05 0.0000000e+00 -6.1702776e-05 
-9.4257724e-05 0.0000000e+00 -6.4365653e-05 
-1.0998026e-04 0.0000000e+00 -6.7004752e-05 
-8.2515136e-05 0.0000000e+00 -6.9620073e-05 
2.0762646e-07 0.0000000e+00 -7.2211616e-05 
8.6670952e-05 0.0000000e+00 -7.4491712e-05 
1.2399416e-04 0.0000000e+00 -7.6748031e-05 
1.2220177e-04 0.0000000e+00 -7.8980578e-05 
9.1318354e-05 0.0000000e+00 -8.1189341e-05 
4.1368410e-05 0.0000000e+00 -8.3374332e-05 
-1.7623515e-05 0.0000000e+00 -8.5535539e-05 
-7.5632881e-05 0.0000000e+00 -8.7672975e-05 
-1.2263516e-04 0.0000000e+00 -8.9786634e-05 
-1.4860582e-04 0.0000000e+00 -9.1876514e-05 
-1.4352030e-04 0.0000000e+00 -9.3942617e-05 
-9.7354103e-05 0.0000000e+00 -9.5984942e-05 
-8.2668954e-08 0.0000000e+00 -9.8003489e-05 
9.5699419e-05 0.0000000e+00 -9.9710589e-05 
1.3794051e-04 0.0000000e+00 -1.0139391e-04 
1.3747958e-04 0.0000000e+00 -1.0305345e-04 
1.0515556e-04 0.0000000e+00 -1.0468923e-04 
5.1807394e-05 0.0000000e+00 -1.0630122e-04 
-1.1725969e-05 0.0000000e+00 -1.0788943e-04 
-7.4605581e-05 0.0000000e+00 -1.0945387e-04 
-1.2599249e-04 0.0000000e+00 -1.1099453e-04 
-1.5504775e-04 0.0000000e+00 -1.1251141e-04 
-1.5093242e-04 0.0000000e+00 -1.1400452e-04 
-1.0280755e-04 0.0000000e+00 -1.1547385e-04 
1.6581073e-07 0.0000000e+00 -1.1691940e-04 
1.0612639e-04 0.0000000e+00 -1.1805351e-04 
1.6212392e-04 0.0000000e+00 -1.1916384e-04 
1.7736388e-04 0.0000000e+00 -1.2025038e-04 
1.6105171e-04 0.0000000e+00 -1.2131315e-04 
1.2239290e-04 0.0000000e+00 -1.2235215e-04 
7.0592912e-05 0.0000000e+00 -1.2336737e-04 
1.4857194e-05 0.0000000e+00 -1.2435882e-04 
-3.5608773e-05 0.0000000e+00 -1.2532648e-04 
-7.1599534e-05 0.0000000e+00 -1.2627036e-04 
-8.3909617e-05 0.0000000e+00 -1.2719048e-04 
-6.3333566e-05 0.0000000e+00 -1.2808680e-04 
-6.6590331e-07 0.0000000e+00 -1.2895936e-04 
4.9996350e-05 0.0000000e+00 -1.2952047e-04 
3.8929611e-05 0.0000000e+00 -1.3005780e-04 
-1.8100516e-05 0.0000000e+00 -1.3057135e-04 
-1.0532843e-04 0.0000000e+00 -1.3106113e-04 
-2.0698852e-04 0.0000000e+00 -1.3152714e-04 
-3.0731520e-04 0.0000000e+00 -1.3196935e-04 
-3.9054285e-04 0.0000000e+00 -1.3238780e-04 
-4.4090589e-04 0.0000000e+00 -1.3278246e-04 
-4.4263867e-04 0.0000000e+00 -1.3315336e-04 
-3.7997565e-04 0.0000000e+00 -1.3350046e-04 
-2.3715118e-04 0.0000000e+00 -1.3382381e-04 
1.6003271e-06 0.0000000e+00 -1.3412336e-04 
-7.1162043e-07 0.0000000e+00 -5.8986724e-04 
1.7302204e-07 0.0000000e+00 -5.1050691e-04 
-6.8890792e-08 0.0000000e+00 -5.5791502e-04 
1.3817562e-07 0.0000000e+00 -5.9121347e-04 
-5.5491938e-07 0.0000000e+00 -5.1666755e-04 
1.3336060e-06 0.0000000e+00 -8.9801010e-04 
-5.6929633e-07 0.0000000e+00 -1.3802099e-03 
1.3841763e-07 0.0000000e+00 -1.2091901e-03 
-5.5112633e-08 0.0000000e+00 -1.2742842e-03 
1.1054049e-07 0.0000000e+00 -1.3193502e-03 
-4.4393553e-07 0.0000000e+00 -1.1739613e-03 
1.0668847e-06 0.0000000e+00 -1.8630864e-03 
-4.2697226e-07 0.0000000e+00 -2.2065248e-03 
1.0381323e-07 0.0000000e+00 -1.9642145e-03 
-4.1334474e-08 0.0000000e+00 -2.0430645e-03 
8.2905373e-08 0.0000000e+00 -2.0972828e-03 
-3.3295163e-07 0.0000000e+00 -1.8967940e-03 
8.0016355e-07 0.0000000e+00 -2.8253053e-03 
-2.8464817e-07 0.0000000e+00 -2.9101092e-03 
6.9208816e-08 0.0000000e+00 -2.6168770e-03 
-2.7556315e-08 0.0000000e+00 -2.7055524e-03 
5.5270249e-08 0.0000000e+00 -2.7663084e-03 
-2.2196777e-07 0.0000000e+00 -2.5264623e-03 
5.3344235e-07 0.0000000e+00 -3.6259638e-03 
-1.4232408e-07 0.0000000e+00 -3.3776036e-03 
3.4604412e-08 0.0000000e+00 -3.0538181e-03 
-1.3778156e-08 0.0000000e+00 -3.1483888e-03 
2.7635126e-08 0.0000000e+00 -3.2130675e-03 
-1.1098388e-07 0.0000000e+00 -2.9496071e-03 
2.6672120e-07 0.0000000e+00 -4.1517029e-03 
1.0374341e-15 0.0000000e+00 -3.5409923e-03 
2.2210898e-15 0.0000000e+00 -3.2070226e-03 
3.3033768e-15 0.0000000e+00 -3.3035583e-03 
4.0293137e-15 0.0000000e+00 -3.3695444e-03 
4.2690588e-15 0.0000000e+00 -3.0982126e-03 
4.1696196e-15 0.0000000e+00 -4.3345061e-03 
1.4232408e-07 0.0000000e+00 -3.3776036e-03 
-3.4604405e-08 0.0000000e+00 -3.0538181e-03 
1.3778163e-08 0.0000000e+00 -3.1483888e-03 
-2.7635117e-08 0.0000000e+00 -3.2130675e-03 
1.1098388e-07 0.0000000e+00 -2.9496071e-03 
-2.6672117e-07 0.0000000e+00 -4.1517029e-03 
2.8464817e-07 0.0000000e+00 -2.9101092e-03 
-6.9208816e-08 0.0000000e+00 -2.6168770e-03 
2.7556322e-08 0.0000000e+00 -2.7055524e-03 
-5.5270242e-08 0.0000000e+00 -2.7663084e-03 
2.2196777e-07 0.0000000e+00 -2.5264623e-03 
-5.3344235e-07 0.0000000e+00 -3.6259638e-03 
4.2697226e-07 0.0000000e+00 -2.2065248e-03 
-1.0381322e-07 0.0000000e+00 -1.9642145e-03 
4.1334481e-08 0.0000000e+00 -2.0430645e-03 
-8.2905359e-08 0.0000000e+00 -2.0972828e-03 
3.3295166e-07 0.0000000e+00 -1.8967940e-03 
-8.0016355e-07 0.0000000e+00 -2.8253053e-03 
5.6929633e-07 0.0000000e+00 -1.3802099e-03 
-1.3841763e-07 0.0000000e+00 -1.2091901e-03 
5.5112640e-08 0.0000000e+00 -1.2742842e-03 
-1.1054048e-07 0.0000000e+00 -1.3193502e-03 
4.4393553e-07 0.0000000e+00 -1.1739613e-03 
-1.0668847e-06 0.0000000e+00 -1.8630864e-03 
7.1162043e-07 0.0000000e+00 -5.8986724e-04 
-1.7302204e-07 0.0000000e+00 -5.1050691e-04 
6.8890799e-08 0.0000000e+00 -5.5791502e-04 
-1.3817561e-07 0.0000000e+00 -5.9121347e-04 
5.5491944e-07 0.0000000e+00 -5.1666755e-04 
-1.3336060e-06 0.0000000e+00 -8.9801010e-04 
0.0000000e+00 0.0000000e+00 0.0000000e+00 
8.7237779e-05 0.0000000e+00 -3.4260897e-06 
1.7081821e-04 0.0000000e+00 -6.8284025e-06 
2.4708395e-04 0.0000000e+00 -1.0206938e-05 
3.1237770e-04 0.0000000e+00 -1.3561697e-05 
3.6304205e-04 0.0000000e+00 -1.6892678e-05 
3.9541975e-04 0.0000000e+00 -2.0199881e-05 
4.0585335e-04 0.0000000e+00 -2.3483310e-05 
3.9068560e-04 0.0000000e+00 -2.6742959e-05 
3.4625913e-04 0.0000000e+00 -2.9978832e-05 
2.6891657e-04 0.0000000e+00 -3.3190925e-05 
1.5500064e-04 0.0000000e+00 -3.6379246e-05 
8.5394453e-07 0.0000000e+00 -3.9543786e-05 
-1.3788290e-04 0.0000000e+00 -4.2396881e-05 
-2.1117774e-04 0.0000000e+00 -4.5226196e-05 
-2.3110054e-04 0.0000000e+00 -4.8031736e-05 
-2.0972124e-04 0.0000000e+00 -5.0813498e-05 
-1.5910983e-04 0.0000000e+00 -5.3571483e-05 
-9.1336260e-05 0.0000000e+00 -5.6305689e-05 
-1.8470504e-05 0.0000000e+00 -5.9016122e-05 
4.7417478e-05 0.0000000e+00 -6.1702776e-05 
9.4257724e-05 0.0000000e+00 -6.4365653e-05 
1.0998026e-04 0.0000000e+00 -6.7004752e-05 
8.2515136e-05 0.0000000e+00 -6.9620073e-05 
-2.0762644e-07 0.0000000e+00 -7.2211616e-05 
-8.6670952e-05 0.0000000e+00 -7.4491712e-05 
-1.2399416e-04 0.0000000e+00 -7.6748031e-05 
-1.2220177e-04 0.0000000e+00 -7.8980578e-05 
-9.1318354e-05 0.0000000e+00 -8.1189341e-05 
-4.1368410e-05 0.0000000e+00 -8.3374332e-05 
1.7623515e-05 0.0000000e+00 -8.5535539e-05 
7.5632881e-05 0.0000000e+00 -8.7672975e-05 
1.2263516e-04 0.0000000e+00 -8.9786634e-05 
1.4860582e-04 0.0000000e+00 -9.1876514e-05 
1.4352030e-04 0.0000000e+00 -9.3942617e-05 
9.7354103e-05 0.0000000e+00 -9.5984942e-05 
8.2668961e-08 0.0000000e+00 -9.8003489e-05 
-9.5699419e-05 0.0000000e+00 -9.9710589e-05 
-1.3794051e-04 0.0000000e+00 -1.0139391e-04 
-1.3747958e-04 0.0000000e+00 -1.0305345e-04 
-1.0515556e-04 0.0000000e+00 -1.0468923e-04 
-5.1807394e-05 0.0000000e+00 -1.0630122e-04 
1.1725969e-05 0.0000000e+00 -1.0788943e-04 
7.4605581e-05 0.0000000e+00 -1.0945387e-04 
1.2599249e-04 0.0000000e+00 -1.1099453e-04 
1.5504775e-04 0.0000000e+00 -1.1251141e-04 
1.5093242e-04 0.0000000e+00 -1.1400452e-04 
1.0280755e-04 0.0000000e+00 -1.1547385e-04 
-1.6581073e-07 0.0000000e+00 -1.1691940e-04 
-1.0612639e-04 0.0000000e+00 -1.1805351e-04 
-1.6212392e-04 0.0000000e+00 -1.1916384e-04 
-1.7736388e-04 0.0000000e+00 -1.2025038e-04 
-1.6105171e-04 0.0000000e+00 -1.2131315e-04 
-1.2239290e-04 0.0000000e+00 -1.2235215e-04 
-7.0592912e-05 0.0000000e+00 -1.2336737e-04 
-1.4857194e-05 0.0000000e+00 -1.2435882e-04 
3.5608773e-05 0.0000000e+00 -1.2532648e-04 
7.1599534e-05 0.0000000e+00 -1.2627036e-04 
8.3909617e-05 0.0000000e+00 -1.2719048e-04 
6.3333566e-05 0.0000000e+00 -1.2808680e-04 
6.6590331e-07 0.0000000e+00 -1.2895936e-04 
-4.9996350e-05 0.0000000e+00 -1.2952047e-04 
-3.8929611e-05 0.0000000e+00 -1.3005780e-04 
1.8100516e-05 0.0000000e+00 -1.3057135e-04 
1.0532843e-04 0.0000000e+00 -1.3106113e-04 
2.0698852e-04 0.0000000e+00 -1.3152714e-04 
3.0731520e-04 0.0000000e+00 -1.3196935e-04 
3.9054285e-04 0.0000000e+00 -1.3238780e-04 
4.4090589e-04 0.0000000e+00 -1.3278246e-04 
4.4263867e-04 0.0000000e+00 -1.3315336e-04 
3.7997565e-04 0.0000000e+00 -1.3350046e-04 
2.3715118e-04 0.0000000e+00 -1.3382381e-04 
-1.6003271e-06 0.0000000e+00 -1.3412336e-04 
ROTATION 3 212  float
0.0000000e+00 -3.5138932e-04 0.0000000e+00 
0.0000000e+00 -3.4407465e-04 0.0000000e+00 
0.0000000e+00 -3.2213060e-04 0.0000000e+00 
0.0000000e+00 -2.8555721e-04 0.0000000e+00 
0.0000000e+00 -2.3435443e-04 0.0000000e+00 
0.0000000e+00 -1.6852231e-04 0.0000000e+00 
0.0000000e+00 -8.8060820e-05 0.0000000e+00 
0.0000000e+00 7.0300325e-06 0.0000000e+00 
0.0000000e+00 1.1675025e-04 0.0000000e+00 
0.0000000e+00 2.4109981e-04 0.0000000e+00 
0.0000000e+00 3.8007877e-04 0.0000000e+00 
0.0000000e+00 5.3368707e-04 0.0000000e+00 
0.0000000e+00 7.0192473e-04 0.0000000e+00 
0.0000000e+00 4.1601673e-04 0.0000000e+00 
0.0000000e+00 1.7838861e-04 0.0000000e+00 
0.0000000e+00 -1.0959649e-05 0.0000000e+00 
0.0000000e+00 -1.5202805e-04 0.0000000e+00 
0.0000000e+00 -2.4481659e-04 0.0000000e+00 
0.0000000e+00 -2.8932528e-04 0.0000000e+00 
0.0000000e+00 -2.8555412e-04 0.0000000e+00 
0.0000000e+00 -2.3350310e-04 0.0000000e+00 
0.0000000e+00 -1.3317222e-04 0.0000000e+00 
0.0000000e+00 1.5438533e-05 0.0000000e+00 
0.0000000e+00 2.1232913e-04 0.0000000e+00 
0.0000000e+00 4.5749958e-04 0.0000000e+00 
0.0000000e+00 2.4089005e-04 0.0000000e+00 
0.0000000e+00 6.4378633e-05 0.0000000e+00 
0.0000000e+00 -7.2034636e-05 0.0000000e+00 
0.0000000e+00 -1.6834977e-04 0.0000000e+00 
0.0000000e+00 -2.2456676e-04 0.0000000e+00 
0.0000000e+00 -2.4068561e-04 0.0000000e+00 
0.0000000e+00 -2.1670632e-04 0.0000000e+00 
0.0000000e+00 -1.5262888e-04 0.0000000e+00 
0.0000000e+00 -4.8453312e-05 0.0000000e+00 
0.0000000e+00 9.5820396e-05 0.0000000e+00 
0.0000000e+00 2.8019224e-04 0.0000000e+00 
0.0000000e+00 5.0466222e-04 0.0000000e+00 
0.0000000e+00 2.6882041e-04 0.0000000e+00 
0.0000000e+00 7.6334371e-05 0.0000000e+00 
0.0000000e+00 -7.2795883e-05 0.0000000e+00 
0.0000000e+00 -1.7857035e-04 0.0000000e+00 
0.0000000e+00 -2.4098901e-04 0.0000000e+00 
0.0000000e+00 -2.6005192e-04 0.0000000e+00 
0.0000000e+00 -2.3575900e-04 0.0000000e+00 
0.0000000e+00 -1.6811032e-04 0.0000000e+00 
0.0000000e+00 -5.7105830e-05 0.0000000e+00 
0.0000000e+00 9.7254437e-05 0.0000000e+00 
0.0000000e+00 2.9497049e-04 0.0000000e+00 
0.0000000e+00 5.3604232e-04 0.0000000e+00 
0.0000000e+00 3.1777925e-04 0.0000000e+00 
0.0000000e+00 1.3633800e-04 0.0000000e+00 
0.0000000e+00 -8.2813904e-06 0.0000000e+00 
0.0000000e+00 -1.1607892e-04 0.0000000e+00 
0.0000000e+00 -1.8705458e-04 0.0000000e+00 
0.0000000e+00 -2.2120839e-04 0.0000000e+00 
0.0000000e+00 -2.1854034e-04 0.0000000e+00 
0.0000000e+00 -1.7905043e-04 0.0000000e+00 
0.0000000e+00 -1.0273866e-04 0.0000000e+00 
0.0000000e+00 1.0394965e-05 0.0000000e+00 
0.0000000e+00 1.6035045e-04 0.0000000e+00 
0.0000000e+00 3.4712779e-04 0.0000000e+00 
0.0000000e+00 6.8680623e-05 0.0000000e+00 
0.0000000e+00 -1.4670413e-04 0.0000000e+00 
0.0000000e+00 -2.9902649e-04 0.0000000e+00 
0.0000000e+00 -3.8828643e-04 0.0000000e+00 
0.0000000e+00 -4.1448395e-04 0.0000000e+00 
0.0000000e+00 -3.7761906e-04 0.0000000e+00 
0.0000000e+00 -2.7769175e-04 0.0000000e+00 
0.0000000e+00 -1.1470205e-04 0.0000000e+00 
0.0000000e+00 1.1135007e-04 0.0000000e+00 
0.0000000e+00 4.0046460e-04 0.0000000e+00 
0.0000000e+00 7.5264153e-04 0.0000000e+00 
0.0000000e+00 1.1678810e-03 0.0000000e+00 
0.0000000e+00 1.4162390e-03 0.0000000e+00 
0.0000000e+00 1.2125514e-03 0.0000000e+00 
0.0000000e+00 1.2518537e-03 0.0000000e+00 
0.0000000e+00 1.2780037e-03 0.0000000e+00 
0.0000000e+00 1.1205749e-03 0.0000000e+00 
0.0000000e+00 1.8045359e-03 0.0000000e+00 
0.0000000e+00 1.6771159e-03 0.0000000e+00 
0.0000000e+00 1.5141659e-03 0.0000000e+00 
0.0000000e+00 1.5456077e-03 0.0000000e+00 
0.0000000e+00 1.5665278e-03 0.0000000e+00 
0.0000000e+00 1.4405847e-03 0.0000000e+00 
0.0000000e+00 1.9877534e-03 0.0000000e+00 
0.0000000e+00 1.5752431e-03 0.0000000e+00 
0.0000000e+00 1.4530305e-03 0.0000000e+00 
0.0000000e+00 1.4766118e-03 0.0000000e+00 
0.0000000e+00 1.4923019e-03 0.0000000e+00 
0.0000000e+00 1.3978446e-03 0.0000000e+00 
0.0000000e+00 1.8082212e-03 0.0000000e+00 
0.0000000e+00 1.2013079e-03 0.0000000e+00 
0.0000000e+00 1.1198327e-03 0.0000000e+00 
0.0000000e+00 1.1355537e-03 0.0000000e+00 
0.0000000e+00 1.1460137e-03 0.0000000e+00 
0.0000000e+00 1.0830422e-03 0.0000000e+00 
0.0000000e+00 1.3566265e-03 0.0000000e+00 
0.0000000e+00 6.4599764e-04 0.0000000e+00 
0.0000000e+00 6.0526014e-04 0.0000000e+00 
0.0000000e+00 6.1312056e-04 0.0000000e+00 
0.0000000e+00 6.1835058e-04 0.0000000e+00 
0.0000000e+00 5.8686483e-04 0.0000000e+00 
0.0000000e+00 7.2365702e-04 0.0000000e+00 
0.0000000e+00 -1.5925539e-16 0.0000000e+00 
0.0000000e+00 -1.8751037e-16 0.0000000e+00 
0.0000000e+00 -1.3356904e-16 0.0000000e+00 
0.0000000e+00 -6.6784518e-17 0.0000000e+00 
0.0000000e+00 -5.1372705e-18 0.0000000e+00 
0.0000000e+00 -2.3826619e-18 0.0000000e+00 
0.0000000e+00 -6.4599764e-04 0.0000000e+00 
0.0000000e+00 -6.0526014e-04 0.0000000e+00 
0.0000000e+00 -6.1312056e-04 0.0000000e+00 
0.0000000e+00 -6.1835058e-04 0.0000000e+00 
0.0000000e+00 -5.8686483e-04 0.0000000e+00 
0.0000000e+00 -7.2365702e-04 0.0000000e+00 
0.0000000e+00 -1.2013079e-03 0.0000000e+00 
0.0000000e+00 -1.1198327e-03 0.0000000e+00 
0.0000000e+00 -1.1355537e-03 0.0000000e+00 
0.0000000e+00 -1.1460137e-03 0.0000000e+00 
0.0000000e+00 -1.0830422e-03 0.0000000e+00 
0.0000000e+00 -1.3566265e-03 0.0000000e+00 
0.0000000e+00 -1.5752431e-03 0.0000000e+00 
0.0000000e+00 -1.4530305e-03 0.0000000e+00 
0.0000000e+00 -1.4766118e-03 0.0000000e+00 
0.0000000e+00 -1.4923019e-03 0.0000000e+00 
0.0000000e+00 -1.3978446e-03 0.0000000e+00 
0.0000000e+00 -1.8082212e-03 0.0000000e+00 
0.0000000e+00 -1.6771159e-03 0.0000000e+00 
0.0000000e+00 -1.5141659e-03 0.0000000e+00 
0.0000000e+00 -1.5456077e-03 0.0000000e+00 
0.0000000e+00 -1.5665278e-03 0.0000000e+00 
0.0000000e+00 -1.4405847e-03 0.0000000e+00 
0.0000000e+00 -1.9877534e-03 0.0000000e+00 
0.0000000e+00 -1.4162390e-03 0.0000000e+00 
0.0000000e+00 -1.2125514e-03 0.0000000e+00 
0.0000000e+00 -1.2518537e-03 0.0000000e+00 
0.0000000e+00 -1.2780037e-03 0.0000000e+00 
0.0000000e+00 -1.1205749e-03 0.0000000e+00 
0.0000000e+00 -1.8045359e-03 0.0000000e+00 
0.0000000e+00 3.5138932e-04 0.0000000e+00 
0.0000000e+00 3.4407465e-04 0.0000000e+00 
0.0000000e+00 3.2213060e-04 0.0000000e+00 
0.0000000e+00 2.8555721e-04 0.0000000e+00 
0.0000000e+00 2.3435443e-04 0.0000000e+00 
0.0000000e+00 1.6852231e-04 0.0000000e+00 
0.0000000e+00 8.8060820e-05 0.0000000e+00 
0.0000000e+00 -7.0300325e-06 0.0000000e+00 
0.0000000e+00 -1.1675025e-04 0.0000000e+00 
0.0000000e+00 -2.4109981e-04 0.0000000e+00 
0.0000000e+00 -3.8007877e-04 0.0000000e+00 
0.0000000e+00 -5.3368707e-04 0.0000000e+00 
0.0000000e+00 -7.0192473e-04 0.0000000e+00 
0.0000000e+00 -4.1601673e-04 0.0000000e+00 
0.0000000e+00 -1.7838861e-04 0.0000000e+00 
0.0000000e+00 1.0959649e-05 0.0000000e+00 
0.0000000e+00 1.5202805e-04 0.0000000e+00 
0.0000000e+00 2.4481659e-04 0.0000000e+00 
0.0000000e+00 2.8932528e-04 0.0000000e+00 
0.0000000e+00 2.8555412e-04 0.0000000e+00 
0.0000000e+00 2.3350310e-04 0.0000000e+00 
0.0000000e+00 1.3317222e-04 0.0000000e+00 
0.0000000e+00 -1.5438533e-05 0.0000000e+00 
0.0000000e+00 -2.1232913e-04 0.0000000e+00 
0.0000000e+00 -4.5749958e-04 0.0000000e+00 
0.0000000e+00 -2.4089005e-04 0.0000000e+00 
0.0000000e+00 -6.4378633e-05 0.0000000e+00 
0.0000000e+00 7.2034636e-05 0.0000000e+00 
0.0000000e+00 1.6834977e-04 0.0000000e+00 
0.0000000e+00 2.2456676e-04 0.0000000e+00 
0.0000000e+00 2.4068561e-04 0.0000000e+00 
0.0000000e+00 2.1670632e-04 0.0000000e+00 
0.0000000e+00 1.5262888e-04 0.0000000e+00 
0.0000000e+00 4.8453312e-05 0.0000000e+00 
0.0000000e+00 -9.5820396e-05 0.0000000e+00 
0.0000000e+00 -2.8019224e-04 0.0000000e+00 
0.0000000e+00 -5.0466222e-04 0.0000000e+00 
0.0000000e+00 -2.6882041e-04 0.0000000e+00 
0.0000000e+00 -7.6334371e-05 0.0000000e+00 
0.0000000e+00 7.2795883e-05 0.0000000e+00 
0.0000000e+00 1.7857035e-04 0.0000000e+00 
0.0000000e+00 2.4098901e-04 0.0000000e+00 
0.0000000e+00 2.6005192e-04 0.0000000e+00 
0.0000000e+00 2.3575900e-04 0.0000000e+00 
0.0000000e+00 1.6811032e-04 0.0000000e+00 
0.0000000e+00 5.7105830e-05 0.0000000e+00 
0.0000000e+00 -9.7254437e-05 0.0000000e+00 
0.0000000e+00 -2.9497049e-04 0.0000000e+00 
0.0000000e+00 -5.3604232e-04 0.0000000e+00 
0.0000000e+00 -3.1777925e-04 0.0000000e+00 
0.0000000e+00 -1.3633800e-04 0.0000000e+00 
0.0000000e+00 8.2813904e-06 0.0000000e+00 
0.0000000e+00 1.1607892e-04 0.0000000e+00 
0.0000000e+00 1.8705458e-04 0.0000000e+00 
0.0000000e+00 2.2120839e-04 0.0000000e+00 
0.0000000e+00 2.1854034e-04 0.0000000e+00 
0.0000000e+00 1.7905043e-04 0.0000000e+00 
0.0000000e+00 1.0273866e-04 0.0000000e+00 
0.0000000e+00 -1.0394965e-05 0.0000000e+00 
0.0000000e+00 -1.6035045e-04 0.0000000e+00 
0.0000000e+00 -3.4712779e-04 0.0000000e+00 
0.0000000e+00 -6.8680623e-05 0.0000000e+00 
0.0000000e+00 1.4670413e-04 0.0000000e+00 
0.0000000e+00 2.9902649e-04 0.0000000e+00 
0.0000000e+00 3.8828643e-04 0.0000000e+00 