# vtk DataFile Version 4.0
vtk output
ASCII
DATASET UNSTRUCTURED_GRID
POINTS 30 float
0.0000000e+00 0.0000000e+00 0.0000000e+00 
0.0000000e+00 0.0000000e+00 8.0000001e-01 
0.0000000e+00 0.0000000e+00 1.6000000e+00 
0.0000000e+00 0.0000000e+00 2.4000001e+00 
0.0000000e+00 0.0000000e+00 3.2000000e+00 
0.0000000e+00 0.0000000e+00 4.0000000e+00 
0.0000000e+00 0.0000000e+00 4.8000002e+00 
0.0000000e+00 0.0000000e+00 5.5999999e+00 
0.0000000e+00 0.0000000e+00 6.4000001e+00 
0.0000000e+00 0.0000000e+00 7.1999998e+00 
0.0000000e+00 0.0000000e+00 8.0000000e+00 
1.0000000e+01 0.0000000e+00 0.0000000e+00 
1.0000000e+01 0.0000000e+00 8.0000001e-01 
1.0000000e+01 0.0000000e+00 1.6000000e+00 
1.0000000e+01 0.0000000e+00 2.4000001e+00 
1.0000000e+01 0.0000000e+00 3.2000000e+00 
1.0000000e+01 0.0000000e+00 4.0000000e+00 
1.0000000e+01 0.0000000e+00 4.8000002e+00 
1.0000000e+01 0.0000000e+00 5.5999999e+00 
1.0000000e+01 0.0000000e+00 6.4000001e+00 
1.0000000e+01 0.0000000e+00 7.1999998e+00 
1.0000000e+01 0.0000000e+00 8.0000000e+00 
2.0000000e+00 0.0000000e+00 4.0000000e+00 
4.0000000e+00 0.0000000e+00 4.0000000e+00 
6.0000000e+00 0.0000000e+00 4.0000000e+00 
8.0000000e+00 0.0000000e+00 4.0000000e+00 
2.0000000e+00 0.0000000e+00 8.0000000e+00 
4.0000000e+00 0.0000000e+00 8.0000000e+00 
6.0000000e+00 0.0000000e+00 8.0000000e+00 
8.0000000e+00 0.0000000e+00 8.0000000e+00 

CELLS 30 90
2 0 1
2 1 2
2 2 3
2 3 4
2 4 5
2 5 6
2 6 7
2 7 8
2 8 9
2 9 10
2 11 12
2 12 13
2 13 14
2 14 15
2 15 16
2 16 17
2 17 18
2 18 19
2 19 20
2 20 21
2 5 22
2 22 23
2 23 24
2 24 25
2 25 16
2 10 26
2 26 27
2 27 28
2 28 29
2 29 21

CELL_TYPES 30
3
3
3
3
3
3
3
3
3
3
3
3
3
3
3
3
3
3
3
3
3
3
3
3
3
3
3
3
3
3
POINT_DATA 30
FIELD FieldData 7
DISPLACEMENT 3 30  float
0.0000000e+00 0.0000000e+00 0.0000000e+00 
-2.0647002e-03 0.0000000e+00 -2.5772371e-07 
-3.9080842e-03 0.0000000e+00 -6.0805485e-07 
-5.3892662e-03 0.0000000e+00 -4.0166601e-06 
-6.4327992e-03 0.0000000e+00 -9.3169101e-06 
-7.0537147e-03 0.0000000e+00 -1.1839372e-05 
-7.5363135e-03 0.0000000e+00 -1.0867807e-05 
-8.1826542e-03 0.0000000e+00 -9.8962428e-06 
-8.9988774e-03 0.0000000e+00 -7.4087579e-06 
-9.9004330e-03 0.0000000e+00 -7.9030924e-06 
-1.0784843e-02 0.0000000e+00 -7.5827229e-06 
0.0000000e+00 0.0000000e+00 0.0000000e+00 
-1.3444589e-03 0.0000000e+00 -3.3820104e-06 
-2.7421589e-03 0.0000000e+00 -6.7640208e-06 
-4.2205583e-03 0.0000000e+00 -1.1579281e-05 
-5.7039810e-03 0.0000000e+00 -1.6394541e-05 
-7.0664999e-03 0.0000000e+00 -1.8939752e-05 
-8.2661379e-03 0.0000000e+00 -2.0984991e-05 
-9.3073929e-03 0.0000000e+00 -2.1945501e-05 
-1.0113595e-02 0.0000000e+00 -2.5064001e-05 
-1.0618770e-02 0.0000000e+00 -2.5414904e-05 
-1.0853313e-02 0.0000000e+00 -2.3123695e-05 
-7.0561487e-03 0.0000000e+00 -3.3646083e-04 
-7.0585823e-03 0.0000000e+00 -1.8119976e-03 
-7.0652557e-03 0.0000000e+00 -2.5292607e-03 
-7.0687355e-03 0.0000000e+00 -2.1057364e-03 
-1.0796729e-02 0.0000000e+00 1.3838661e-03 
-1.0812586e-02 0.0000000e+00 1.4735301e-03 
-1.0828444e-02 0.0000000e+00 8.1034657e-04 
-1.0844302e-02 0.0000000e+00 9.5755982e-05 
ROTATION 3 30  float
0.0000000e+00 -2.6308710e-03 0.0000000e+00 
0.0000000e+00 -2.4808841e-03 0.0000000e+00 
0.0000000e+00 -2.1009087e-03 0.0000000e+00 
0.0000000e+00 -1.5826032e-03 0.0000000e+00 
0.0000000e+00 -1.0363589e-03 0.0000000e+00 
0.0000000e+00 -5.1364326e-04 0.0000000e+00 
0.0000000e+00 -6.9922028e-04 0.0000000e+00 
0.0000000e+00 -9.2299830e-04 0.0000000e+00 
0.0000000e+00 -1.0934012e-03 0.0000000e+00 
0.0000000e+00 -1.1450677e-03 0.0000000e+00 
0.0000000e+00 -1.0236998e-03 0.0000000e+00 
0.0000000e+00 -1.6694817e-03 0.0000000e+00 
0.0000000e+00 -1.7027574e-03 0.0000000e+00 
0.0000000e+00 -1.8025849e-03 0.0000000e+00 
0.0000000e+00 -1.8722761e-03 0.0000000e+00 
0.0000000e+00 -1.8151433e-03 0.0000000e+00 
0.0000000e+00 -1.5394312e-03 0.0000000e+00 
0.0000000e+00 -1.4235517e-03 0.0000000e+00 
0.0000000e+00 -1.1697118e-03 0.0000000e+00 
0.0000000e+00 -8.2556705e-04 0.0000000e+00 
0.0000000e+00 -4.4568069e-04 0.0000000e+00 
0.0000000e+00 -1.6565277e-04 0.0000000e+00 
0.0000000e+00 6.4415211e-04 0.0000000e+00 
0.0000000e+00 6.3727202e-04 0.0000000e+00 
0.0000000e+00 9.5959658e-05 0.0000000e+00 
0.0000000e+00 -5.8050256e-04 0.0000000e+00 
0.0000000e+00 -3.4995066e-04 0.0000000e+00 
0.0000000e+00 2.0183323e-04 0.0000000e+00 
0.0000000e+00 4.0289690e-04 0.0000000e+00 
0.0000000e+00 2.5324032e-04 0.0000000e+00 
REACTION 3 30  float
1.4764346e+04 -0.0000000e+00 6.7652472e+02 
2.4738256e-10 -0.0000000e+00 -0.0000000e+00 
-3.9835868e-10 -0.0000000e+00 -0.0000000e+00 
1.0149961e-09 -0.0000000e+00 -0.0000000e+00 
-1.9372237e-09 -0.0000000e+00 5.4569682e-12 
3.8708095e-09 -0.0000000e+00 -6.9121597e-11 
-3.6670826e-09 -0.0000000e+00 3.2741809e-10 
1.2660166e-09 -0.0000000e+00 1.8189894e-12 
-1.1277734e-09 -0.0000000e+00 3.6379788e-11 
1.3460522e-10 -0.0000000e+00 -1.3187673e-11 
5.2386895e-10 -0.0000000e+00 -3.6379788e-12 
-3.2755852e+03 -0.0000000e+00 8.8777773e+03 
-1.7462298e-10 -0.0000000e+00 -0.0000000e+00 
-5.2386895e-10 -0.0000000e+00 -4.5474735e-11 
-2.3283064e-10 -0.0000000e+00 9.0949470e-11 
1.8153514e-09 -0.0000000e+00 -9.0949470e-13 
1.0695658e-09 -0.0000000e+00 7.0667738e-10 
6.5574568e-10 -0.0000000e+00 -5.0022209e-12 
-7.8216544e-11 -0.0000000e+00 6.3664629e-12 
-6.9121597e-10 -0.0000000e+00 1.3105819e-09 
5.1659299e-10 -0.0000000e+00 4.5474735e-12 
-1.3642421e-09 -0.0000000e+00 -2.7284841e-10 
-0.0000000e+00 -0.0000000e+00 -3.6743586e-10 
3.8380676e-10 -0.0000000e+00 -1.8189894e-10 
-1.6689228e-10 -0.0000000e+00 -1.6598278e-10 
-9.4223651e-10 -0.0000000e+00 4.3655746e-11 
-6.9121597e-10 -0.0000000e+00 2.0008883e-11 
1.8626451e-09 -0.0000000e+00 1.0913936e-11 
-1.8626451e-09 -0.0000000e+00 -3.5288394e-10 
1.2987584e-09 -0.0000000e+00 2.2737368e-13 
REACTION_MOMENT 3 30  float
-0.0000000e+00 -2.9103830e-11 -0.0000000e+00 
-0.0000000e+00 2.9103830e-11 -0.0000000e+00 
-0.0000000e+00 -1.0040822e-09 -0.0000000e+00 
-0.0000000e+00 7.4214768e-10 -0.0000000e+00 
-0.0000000e+00 -4.1036401e-09 -0.0000000e+00 
-0.0000000e+00 -2.9103830e-10 -0.0000000e+00 
-0.0000000e+00 -1.4551915e-09 -0.0000000e+00 
-0.0000000e+00 -5.8207661e-10 -0.0000000e+00 
-0.0000000e+00 -5.0931703e-10 -0.0000000e+00 
-0.0000000e+00 5.8207661e-10 -0.0000000e+00 
-0.0000000e+00 8.6401997e-10 -0.0000000e+00 
-0.0000000e+00 5.8207661e-11 -0.0000000e+00 
-0.0000000e+00 -1.1641532e-10 -0.0000000e+00 
-0.0000000e+00 -2.3283064e-10 -0.0000000e+00 
-0.0000000e+00 -2.9103830e-11 -0.0000000e+00 
-0.0000000e+00 -3.0559022e-10 -0.0000000e+00 
-0.0000000e+00 -5.0931703e-10 -0.0000000e+00 
-0.0000000e+00 -1.6007107e-10 -0.0000000e+00 
-0.0000000e+00 -1.1932570e-09 -0.0000000e+00 
-0.0000000e+00 3.4197001e-10 -0.0000000e+00 
-0.0000000e+00 -7.5669959e-10 -0.0000000e+00 
-0.0000000e+00 6.5483619e-11 -0.0000000e+00 
-0.0000000e+00 -6.9121597e-11 -0.0000000e+00 
-0.0000000e+00 -1.0913936e-11 -0.0000000e+00 
-0.0000000e+00 1.5097612e-10 -0.0000000e+00 
-0.0000000e+00 2.1827873e-11 -0.0000000e+00 
-0.0000000e+00 -0.0000000e+00 -0.0000000e+00 
-0.0000000e+00 -0.0000000e+00 -0.0000000e+00 
-0.0000000e+00 -2.7284841e-12 -0.0000000e+00 
-0.0000000e+00 -6.3664629e-12 -0.0000000e+00 
VOLUME_ACCELERATION 3 30  float
0.0000000e+00 0.0000000e+00 0.0000000e+00 
0.0000000e+00 0.0000000e+00 0.0000000e+00 
0.0000000e+00 0.0000000e+00 0.0000000e+00 
0.0000000e+00 0.0000000e+00 0.0000000e+00 
0.0000000e+00 0.0000000e+00 0.0000000e+00 
0.0000000e+00 0.0000000e+00 0.0000000e+00 
0.0000000e+00 0.0000000e+00 0.0000000e+00 
0.0000000e+00 0.0000000e+00 0.0000000e+00 
0.0000000e+00 0.0000000e+00 0.0000000e+00 
0.0000000e+00 0.0000000e+00 0.0000000e+00 
0.0000000e+00 0.0000000e+00 0.0000000e+00 
0.0000000e+00 0.0000000e+00 0.0000000e+00 
0.0000000e+00 0.0000000e+00 0.0000000e+00 
0.0000000e+00 0.0000000e+00 0.0000000e+00 
0.0000000e+00 0.0000000e+00 0.0000000e+00 
0.0000000e+00 0.0000000e+00 0.0000000e+00 
0.0000000e+00 0.0000000e+00 0.0000000e+00 
0.0000000e+00 0.0000000e+00 0.0000000e+00 
0.0000000e+00 0.0000000e+00 0.0000000e+00 
0.0000000e+00 0.0000000e+00 0.0000000e+00 
0.0000000e+00 0.0000000e+00 0.0000000e+00 
0.0000000e+00 0.0000000e+00 0.0000000e+00 
0.0000000e+00 0.0000000e+00 0.0000000e+00 
0.0000000e+00 0.0000000e+00 0.0000000e+00 
0.0000000e+00 0.0000000e+00 0.0000000e+00 
0.0000000e+00 0.0000000e+00 0.0000000e+00 
0.0000000e+00 0.0000000e+00 0.0000000e+00 
0.0000000e+00 0.0000000e+00 0.0000000e+00 
0.0000000e+00 0.0000000e+00 0.0000000e+00 
0.0000000e+00 0.0000000e+00 0.0000000e+00 
POINT_LOAD 3 30  float
0.0000000e+00 0.0000000e+00 0.0000000e+00 
-6.8892119e+03 0.0000000e+00 2.4309451e+02 
-2.1333977e+03 0.0000000e+00 8.0279697e+03 
-8.7332383e+03 0.0000000e+00 4.9655664e+03 
3.6668899e+03 0.0000000e+00 -7.2916934e+03 
0.0000000e+00 0.0000000e+00 0.0000000e+00 
0.0000000e+00 0.0000000e+00 0.0000000e+00 
9.0145195e+03 0.0000000e+00 -3.9792900e+03 
-2.5805247e+03 0.0000000e+00 7.8272739e+03 
7.9255010e+03 0.0000000e+00 -2.1385962e+03 
0.0000000e+00 0.0000000e+00 0.0000000e+00 
0.0000000e+00 0.0000000e+00 0.0000000e+00 
0.0000000e+00 0.0000000e+00 0.0000000e+00 
9.5177002e+03 0.0000000e+00 3.7622803e+03 
0.0000000e+00 0.0000000e+00 0.0000000e+00 
9.0321836e+03 0.0000000e+00 -5.9588774e+03 
-2.2623362e+03 0.0000000e+00 -2.8781536e+03 
-7.7480957e+03 0.0000000e+00 -2.8474160e+03 
3.0569900e+03 0.0000000e+00 5.6647241e+03 
-8.4280527e+03 0.0000000e+00 -7.2649399e+03 
-4.9200825e+03 0.0000000e+00 -6.9355435e+03 
-2.0868413e+03 0.0000000e+00 4.5358696e+03 
0.0000000e+00 0.0000000e+00 0.0000000e+00 
4.4512075e+03 0.0000000e+00 -9.9263301e+03 
-3.3527561e+03 0.0000000e+00 3.6376304e+03 
-6.0017144e+03 0.0000000e+00 -1.3173940e+03 
4.1715693e+03 0.0000000e+00 3.6028909e+03 
0.0000000e+00 0.0000000e+00 0.0000000e+00 
0.0000000e+00 0.0000000e+00 0.0000000e+00 
-7.1890713e+03 0.0000000e+00 -1.2833685e+03 
POINT_MOMENT 3 30  float
0.0000000e+00 0.0000000e+00 0.0000000e+00 
0.0000000e+00 0.0000000e+00 0.0000000e+00 
0.0000000e+00 0.0000000e+00 0.0000000e+00 
0.0000000e+00 0.0000000e+00 0.0000000e+00 
0.0000000e+00 0.0000000e+00 0.0000000e+00 
0.0000000e+00 0.0000000e+00 0.0000000e+00 
0.0000000e+00 0.0000000e+00 0.0000000e+00 
0.0000000e+00 0.0000000e+00 0.0000000e+00 
0.0000000e+00 0.0000000e+00 0.0000000e+00 
0.0000000e+00 0.0000000e+00 0.0000000e+00 
0.0000000e+00 0.0000000e+00 0.0000000e+00 
0.0000000e+00 0.0000000e+00 0.0000000e+00 
0.0000000e+00 0.0000000e+00 0.0000000e+00 
0.0000000e+00 0.0000000e+00 0.0000000e+00 
0.0000000e+00 0.0000000e+00 0.0000000e+00 
0.0000000e+00 0.0000000e+00 0.0000000e+00 
0.0000000e+00 0.0000000e+00 0.0000000e+00 
0.0000000e+00 0.0000000e+00 0.0000000e+00 
0.0000000e+00 0.0000000e+00 0.0000000e+00 
0.0000000e+00 0.0000000e+00 0.0000000e+00 
0.0000000e+00 0.0000000e+00 0.0000000e+00 
0.0000000e+00 0.0000000e+00 0.0000000e+00 
0.0000000e+00 0.0000000e+00 0.0000000e+00 
0.0000000e+00 0.0000000e+00 0.0000000e+00 
0.0000000e+00 0.0000000e+00 0.0000000e+00 
0.0000000e+00 0.0000000e+00 0.0000000e+00 
0.0000000e+00 0.0000000e+00 0.0000000e+00 
0.0000000e+00 0.0000000e+00 0.0000000e+00 
0.0000000e+00 0.0000000e+00 0.0000000e+00 
0.0000000e+00 0.0000000e+00 0.0000000e+00 
CELL_DATA 30
FIELD FieldData 9
YOUNG_MODULUS 1 30  float
2.1000000e+11
2.1000000e+11
2.1000000e+11
2.1000000e+11
2.1000000e+11
2.1000000e+11
2.1000000e+11
2.1000000e+11
2.1000000e+11
2.1000000e+11
2.1000000e+11
2.1000000e+11
2.1000000e+11
2.1000000e+11
2.1000000e+11
2.1000000e+11
2.1000000e+11
2.1000000e+11
2.1000000e+11
2.1000000e+11
2.1000000e+11
2.1000000e+11
2.1000000e+11
2.1000000e+11
2.1000000e+11
2.1000000e+11
2.1000000e+11
2.1000000e+11
2.1000000e+11
2.1000000e+11
DENSITY 1 30  float
7.8500000e+03
7.8500000e+03
7.8500000e+03
7.8500000e+03
7.8500000e+03
7.8500000e+03
7.8500000e+03
7.8500000e+03
7.8500000e+03
7.8500000e+03
7.8500000e+03
7.8500000e+03
7.8500000e+03
7.8500000e+03
7.8500000e+03
7.8500000e+03
7.8500000e+03
7.8500000e+03
7.8500000e+03
7.8500000e+03
7.8500000e+03
7.8500000e+03
7.8500000e+03
7.8500000e+03
7.8500000e+03
7.8500000e+03
7.8500000e+03
7.8500000e+03
7.8500000e+03
7.8500000e+03
CROSS_AREA 1 30  float
9.9999998e-03
9.9999998e-03
9.9999998e-03
9.9999998e-03
9.9999998e-03
9.9999998e-03
9.9999998e-03
9.9999998e-03
9.9999998e-03
9.9999998e-03
9.9999998e-03
9.9999998e-03
9.9999998e-03
9.9999998e-03
9.9999998e-03
9.9999998e-03
9.9999998e-03
9.9999998e-03
9.9999998e-03
9.9999998e-03
9.9999998e-03
9.9999998e-03
9.9999998e-03
9.9999998e-03
9.9999998e-03
9.9999998e-03
9.9999998e-03
9.9999998e-03
9.9999998e-03
9.9999998e-03
I22 1 30  float
1.5000001e-04
1.5000001e-04
1.5000001e-04
1.5000001e-04
1.5000001e-04
1.5000001e-04
1.5000001e-04
1.5000001e-04
1.5000001e-04
1.5000001e-04
1.5000001e-04
1.5000001e-04
1.5000001e-04
1.5000001e-04
1.5000001e-04
1.5000001e-04
1.5000001e-04
1.5000001e-04
1.5000001e-04
1.5000001e-04
1.5000001e-04
1.5000001e-04
1.5000001e-04
1.5000001e-04
1.5000001e-04
1.5000001e-04
1.5000001e-04
1.5000001e-04
1.5000001e-04
1.5000001e-04
I33 1 30  float
1.5000001e-04
1.5000001e-04
1.5000001e-04
1.5000001e-04
1.5000001e-04
1.5000001e-04
1.5000001e-04
1.5000001e-04
1.5000001e-04
1.5000001e-04
1.5000001e-04
1.5000001e-04
1.5000001e-04
1.5000001e-04
1.5000001e-04
1.5000001e-04
1.5000001e-04
1.5000001e-04
1.5000001e-04
1.5000001e-04
1.5000001e-04
1.5000001e-04
1.5000001e-04
1.5000001e-04
1.5000001e-04
1.5000001e-04
1.5000001e-04
1.5000001e-04
1.5000001e-04
1.5000001e-04
TORSIONAL_INERTIA 1 30  float
3.0000001e-04
3.0000001e-04
3.0000001e-04
3.0000001e-04
3.0000001e-04
3.0000001e-04
3.0000001e-04
3.0000001e-04
3.0000001e-04
3.0000001e-04
3.0000001e-04
3.0000001e-04
3.0000001e-04
3.0000001e-04
3.0000001e-04
3.0000001e-04
3.0000001e-04
3.0000001e-04
3.0000001e-04
3.0000001e-04
3.0000001e-04
3.0000001e-04
3.0000001e-04
3.0000001e-04
3.0000001e-04
3.0000001e-04
3.0000001e-04
3.0000001e-04
3.0000001e-04
3.0000001e-04
POISSON_RATIO 1 30  float
3.0000001e-01
3.0000001e-01
3.0000001e-01
3.0000001e-01
3.0000001e-01
3.0000001e-01
3.0000001e-01
3.0000001e-01
3.0000001e-01
3.0000001e-01
3.0000001e-01
3.0000001e-01
3.0000001e-01
3.0000001e-01
3.0000001e-01
3.0000001e-01
3.0000001e-01
3.0000001e-01
3.0000001e-01
3.0000001e-01
3.0000001e-01
3.0000001e-01
3.0000001e-01
3.0000001e-01
3.0000001e-01
3.0000001e-01
3.0000001e-01
3.0000001e-01
3.0000001e-01
3.0000001e-01
MOMENT 3 30  float
0.0000000e+00 5.9057383e+03 0.0000000e+00 
0.0000000e+00 1.4961530e+04 0.0000000e+00 
0.0000000e+00 2.0408277e+04 0.0000000e+00 
0.0000000e+00 2.1508371e+04 0.0000000e+00 
0.0000000e+00 2.0581926e+04 0.0000000e+00 
0.0000000e+00 -7.3070962e+03 0.0000000e+00 
0.0000000e+00 -8.8112588e+03 0.0000000e+00 
0.0000000e+00 -6.7096138e+03 0.0000000e+00 
0.0000000e+00 -2.0343707e+03 0.0000000e+00 
0.0000000e+00 4.7788628e+03 0.0000000e+00 
0.0000000e+00 -1.3102341e+03 0.0000000e+00 
0.0000000e+00 -3.9307024e+03 0.0000000e+00 
0.0000000e+00 -2.7440903e+03 0.0000000e+00 
0.0000000e+00 2.2496013e+03 0.0000000e+00 
0.0000000e+00 1.0856167e+04 0.0000000e+00 
0.0000000e+00 4.5627515e+03 0.0000000e+00 
0.0000000e+00 9.9949463e+03 0.0000000e+00 
0.0000000e+00 1.3550699e+04 0.0000000e+00 
0.0000000e+00 1.4958026e+04 0.0000000e+00 
0.0000000e+00 1.1026100e+04 0.0000000e+00 
0.0000000e+00 1.8235277e+04 0.0000000e+00 
0.0000000e+00 -1.0836134e+02 0.0000000e+00 
0.0000000e+00 -8.5256699e+03 0.0000000e+00 
0.0000000e+00 -1.0654279e+04 0.0000000e+00 
0.0000000e+00 -1.5103125e+04 0.0000000e+00 
0.0000000e+00 1.0611549e+04 0.0000000e+00 
0.0000000e+00 8.6905967e+03 0.0000000e+00 
0.0000000e+00 3.1667527e+03 0.0000000e+00 
0.0000000e+00 -2.3570911e+03 0.0000000e+00 
0.0000000e+00 -6.5975664e+03 0.0000000e+00 
FORCE 3 30  float
-6.7652472e+02 0.0000000e+00 1.4764346e+04 
-9.1961920e+02 0.0000000e+00 7.8751338e+03 
-8.9475889e+03 0.0000000e+00 5.7417363e+03 
-1.3913155e+04 0.0000000e+00 -2.9915017e+03 
-6.6214624e+03 0.0000000e+00 6.7538812e+02 
2.5503569e+03 0.0000000e+00 -1.8802036e+03 
2.5503569e+03 0.0000000e+00 -1.8802036e+03 
6.5296470e+03 0.0000000e+00 7.1343164e+03 
-1.2976272e+03 0.0000000e+00 4.5537915e+03 
8.4096906e+02 0.0000000e+00 1.2479293e+04 
-8.8777773e+03 0.0000000e+00 -3.2755852e+03 
-8.8777773e+03 0.0000000e+00 -3.2755852e+03 
-1.2640058e+04 0.0000000e+00 6.2421147e+03 
-1.2640058e+04 0.0000000e+00 6.2421147e+03 
-6.6811802e+03 0.0000000e+00 1.5274299e+04 
-5.3687524e+03 0.0000000e+00 1.0664291e+04 
-2.5213367e+03 0.0000000e+00 2.9161956e+03 
-8.1860610e+03 0.0000000e+00 5.9731855e+03 
-9.2112067e+02 0.0000000e+00 -2.4548669e+03 
6.0144229e+03 0.0000000e+00 -7.3749497e+03 
-2.5555918e+03 0.0000000e+00 -9.1718193e+03 
-2.5555918e+03 0.0000000e+00 -9.1718193e+03 
-7.0067993e+03 0.0000000e+00 7.5451050e+02 
-3.6540430e+03 0.0000000e+00 -2.8831199e+03 
2.3476714e+03 0.0000000e+00 -1.5657258e+03 
-1.2479293e+04 0.0000000e+00 8.4096906e+02 
-1.6650861e+04 0.0000000e+00 -2.7619219e+03 
-1.6650861e+04 0.0000000e+00 -2.7619219e+03 
-1.6650861e+04 0.0000000e+00 -2.7619219e+03 
-9.4617910e+03 0.0000000e+00 -1.4785533e+03 
