# vtk DataFile Version 4.0
vtk output
ASCII
DATASET UNSTRUCTURED_GRID
POINTS 30 float
0.0000000e+00 0.0000000e+00 0.0000000e+00 
0.0000000e+00 0.0000000e+00 8.0000001e-01 
0.0000000e+00 0.0000000e+00 1.6000000e+00 
0.0000000e+00 0.0000000e+00 2.4000001e+00 
0.0000000e+00 0.0000000e+00 3.2000000e+00 
0.0000000e+00 0.0000000e+00 4.0000000e+00 
0.0000000e+00 0.0000000e+00 4.8000002e+00 
0.0000000e+00 0.0000000e+00 5.5999999e+00 
0.0000000e+00 0.0000000e+00 6.4000001e+00 
0.0000000e+00 0.0000000e+00 7.1999998e+00 
0.0000000e+00 0.0000000e+00 8.0000000e+00 
1.0000000e+01 0.0000000e+00 0.0000000e+00 
1.0000000e+01 0.0000000e+00 8.0000001e-01 
1.0000000e+01 0.0000000e+00 1.6000000e+00 
1.0000000e+01 0.0000000e+00 2.4000001e+00 
1.0000000e+01 0.0000000e+00 3.2000000e+00 
1.0000000e+01 0.0000000e+00 4.0000000e+00 
1.0000000e+01 0.0000000e+00 4.8000002e+00 
1.0000000e+01 0.0000000e+00 5.5999999e+00 
1.0000000e+01 0.0000000e+00 6.4000001e+00 
1.0000000e+01 0.0000000e+00 7.1999998e+00 
1.0000000e+01 0.0000000e+00 8.0000000e+00 
2.0000000e+00 0.0000000e+00 4.0000000e+00 
4.0000000e+00 0.0000000e+00 4.0000000e+00 
6.0000000e+00 0.0000000e+00 4.0000000e+00 
8.0000000e+00 0.0000000e+00 4.0000000e+00 
2.0000000e+00 0.0000000e+00 8.0000000e+00 
4.0000000e+00 0.0000000e+00 8.0000000e+00 
6.0000000e+00 0.0000000e+00 8.0000000e+00 
8.0000000e+00 0.0000000e+00 8.0000000e+00 

CELLS 30 90
2 0 1
2 1 2
2 2 3
2 3 4
2 4 5
2 5 6
2 6 7
2 7 8
2 8 9
2 9 10
2 11 12
2 12 13
2 13 14
2 14 15
2 15 16
2 16 17
2 17 18
2 18 19
2 19 20
2 20 21
2 5 22
2 22 23
2 23 24
2 24 25
2 25 16
2 10 26
2 26 27
2 27 28
2 28 29
2 29 21

CELL_TYPES 30
3
3
3
3
3
3
3
3
3
3
3
3
3
3
3
3
3
3
3
3
3
3
3
3
3
3
3
3
3
3
POINT_DATA 30
FIELD FieldData 7
DISPLACEMENT 3 30  float
0.0000000e+00 0.0000000e+00 0.0000000e+00 
3.0125867e-04 0.0000000e+00 3.0390468e-06 
5.8897893e-04 0.0000000e+00 6.0780935e-06 
8.4962224e-04 0.0000000e+00 9.1171405e-06 
1.0725129e-03 0.0000000e+00 1.0733346e-05 
1.2652419e-03 0.0000000e+00 1.5323660e-05 
1.5541773e-03 0.0000000e+00 2.1415020e-05 
1.9736632e-03 0.0000000e+00 2.3846324e-05 
2.4054551e-03 0.0000000e+00 2.3612112e-05 
2.8191546e-03 0.0000000e+00 2.3377901e-05 
3.2187924e-03 0.0000000e+00 2.2251199e-05 
0.0000000e+00 0.0000000e+00 0.0000000e+00 
7.1639668e-05 0.0000000e+00 1.5515456e-06 
1.9218292e-04 0.0000000e+00 3.1030911e-06 
4.1053336e-04 0.0000000e+00 4.6546365e-06 
7.5653801e-04 0.0000000e+00 6.0025232e-06 
1.1859817e-03 0.0000000e+00 5.0384360e-06 
1.6693382e-03 0.0000000e+00 2.6583059e-06 
2.2102189e-03 0.0000000e+00 3.6701772e-06 
2.7237034e-03 0.0000000e+00 1.9728502e-06 
3.0922731e-03 0.0000000e+00 9.5536541e-07 
3.2145511e-03 0.0000000e+00 -6.2119568e-08 
1.2487505e-03 0.0000000e+00 5.1195057e-05 
1.2258927e-03 0.0000000e+00 4.8794143e-04 
1.2074711e-03 0.0000000e+00 8.5778791e-04 
1.1951001e-03 0.0000000e+00 8.7732245e-04 
3.2202944e-03 0.0000000e+00 -9.9649862e-04 
3.2205754e-03 0.0000000e+00 -1.6518071e-03 
3.2189281e-03 0.0000000e+00 -1.4663003e-03 
3.2142869e-03 0.0000000e+00 -7.2856154e-04 
ROTATION 3 30  float
0.0000000e+00 3.7939387e-04 0.0000000e+00 
0.0000000e+00 3.7093234e-04 0.0000000e+00 
0.0000000e+00 3.4554774e-04 0.0000000e+00 
0.0000000e+00 3.0324009e-04 0.0000000e+00 
0.0000000e+00 2.5474434e-04 0.0000000e+00 
0.0000000e+00 2.3635612e-04 0.0000000e+00 
0.0000000e+00 4.6788051e-04 0.0000000e+00 
0.0000000e+00 5.4870156e-04 0.0000000e+00 
0.0000000e+00 5.2960537e-04 0.0000000e+00 
0.0000000e+00 5.0347002e-04 0.0000000e+00 
0.0000000e+00 5.0652883e-04 0.0000000e+00 
0.0000000e+00 7.9361336e-05 0.0000000e+00 
0.0000000e+00 1.0992608e-04 0.0000000e+00 
0.0000000e+00 2.0162032e-04 0.0000000e+00 
0.0000000e+00 3.5444403e-04 0.0000000e+00 
0.0000000e+00 4.9693522e-04 0.0000000e+00 
0.0000000e+00 5.6574639e-04 0.0000000e+00 
0.0000000e+00 6.4808084e-04 0.0000000e+00 
0.0000000e+00 6.8281998e-04 0.0000000e+00 
0.0000000e+00 5.7450891e-04 0.0000000e+00 
0.0000000e+00 3.2684763e-04 0.0000000e+00 
0.0000000e+00 -4.1220574e-05 0.0000000e+00 
0.0000000e+00 -1.8103905e-04 0.0000000e+00 
0.0000000e+00 -2.2112660e-04 0.0000000e+00 
0.0000000e+00 -1.4434384e-04 0.0000000e+00 
0.0000000e+00 2.1443042e-04 0.0000000e+00 
0.0000000e+00 4.7035125e-04 0.0000000e+00 
0.0000000e+00 1.2315370e-04 0.0000000e+00 
0.0000000e+00 -2.5826346e-04 0.0000000e+00 
0.0000000e+00 -4.7496834e-04 0.0000000e+00 
REACTION 3 30  float
-8.3293182e+02 -0.0000000e+00 -7.9774980e+03 
-1.4551915e-11 -0.0000000e+00 -0.0000000e+00 
1.0186341e-10 -0.0000000e+00 4.5474735e-12 
-1.7462298e-10 -0.0000000e+00 -7.2759576e-12 
-4.7293724e-11 -0.0000000e+00 -7.2759576e-12 
-2.3646862e-10 -0.0000000e+00 -3.0922820e-11 
3.8926373e-10 -0.0000000e+00 -2.1827873e-11 
4.0017767e-11 -0.0000000e+00 7.2759576e-12 
6.9849193e-10 -0.0000000e+00 -7.2759576e-12 
-2.8603608e-10 -0.0000000e+00 -4.5474735e-13 
-1.2187229e-10 -0.0000000e+00 -1.8189894e-12 
3.0087170e+03 -0.0000000e+00 -4.0728069e+03 
-3.6379788e-12 -0.0000000e+00 -0.0000000e+00 
2.1827873e-11 -0.0000000e+00 1.8189894e-12 
9.8225428e-11 -0.0000000e+00 -8.1854523e-12 
-1.5279511e-10 -0.0000000e+00 1.8189894e-12 
-3.7834980e-10 -0.0000000e+00 -1.0913936e-10 
-1.9826984e-10 -0.0000000e+00 -0.0000000e+00 
-4.3655746e-11 -0.0000000e+00 -9.0949470e-13 
2.8921932e-10 -0.0000000e+00 -2.1464075e-10 
-4.3655746e-11 -0.0000000e+00 -0.0000000e+00 
6.6393113e-10 -0.0000000e+00 3.1104719e-10 
-6.9121597e-11 -0.0000000e+00 7.0940587e-11 
2.1827873e-11 -0.0000000e+00 -9.0949470e-12 
3.6379788e-12 -0.0000000e+00 -6.1845640e-11 
1.4915713e-10 -0.0000000e+00 1.8189894e-11 
5.2204996e-10 -0.0000000e+00 -2.0918378e-11 
-8.9107743e-10 -0.0000000e+00 1.0004442e-11 
7.2759576e-11 -0.0000000e+00 -2.5465852e-10 
-4.4929038e-10 -0.0000000e+00 -1.8189894e-12 
REACTION_MOMENT 3 30  float
-0.0000000e+00 2.5465852e-11 -0.0000000e+00 
-0.0000000e+00 1.0913936e-11 -0.0000000e+00 
-0.0000000e+00 9.0949470e-11 -0.0000000e+00 
-0.0000000e+00 -2.1827873e-11 -0.0000000e+00 
-0.0000000e+00 3.5288394e-10 -0.0000000e+00 
-0.0000000e+00 5.4569682e-12 -0.0000000e+00 
-0.0000000e+00 1.1641532e-10 -0.0000000e+00 
-0.0000000e+00 -1.3096724e-10 -0.0000000e+00 
-0.0000000e+00 2.9103830e-10 -0.0000000e+00 
-0.0000000e+00 -1.0186341e-10 -0.0000000e+00 
-0.0000000e+00 -1.0368240e-10 -0.0000000e+00 
-0.0000000e+00 -1.8189894e-12 -0.0000000e+00 
-0.0000000e+00 -3.6379788e-12 -0.0000000e+00 
-0.0000000e+00 -1.0913936e-11 -0.0000000e+00 
-0.0000000e+00 2.1827873e-11 -0.0000000e+00 
-0.0000000e+00 6.5483619e-11 -0.0000000e+00 
-0.0000000e+00 3.6379788e-11 -0.0000000e+00 
-0.0000000e+00 8.7311491e-11 -0.0000000e+00 
-0.0000000e+00 -1.0913936e-10 -0.0000000e+00 
-0.0000000e+00 1.5279511e-10 -0.0000000e+00 
-0.0000000e+00 4.3655746e-11 -0.0000000e+00 
-0.0000000e+00 2.9103830e-11 -0.0000000e+00 
-0.0000000e+00 -3.9108272e-11 -0.0000000e+00 
-0.0000000e+00 -1.8189894e-11 -0.0000000e+00 
-0.0000000e+00 3.6379788e-12 -0.0000000e+00 
-0.0000000e+00 -0.0000000e+00 -0.0000000e+00 
-0.0000000e+00 -5.4569682e-12 -0.0000000e+00 
-0.0000000e+00 -1.8189894e-12 -0.0000000e+00 
-0.0000000e+00 -1.8189894e-12 -0.0000000e+00 
-0.0000000e+00 8.1854523e-12 -0.0000000e+00 
VOLUME_ACCELERATION 3 30  float
0.0000000e+00 0.0000000e+00 0.0000000e+00 
0.0000000e+00 0.0000000e+00 0.0000000e+00 
0.0000000e+00 0.0000000e+00 0.0000000e+00 
0.0000000e+00 0.0000000e+00 0.0000000e+00 
0.0000000e+00 0.0000000e+00 0.0000000e+00 
0.0000000e+00 0.0000000e+00 0.0000000e+00 
0.0000000e+00 0.0000000e+00 0.0000000e+00 
0.0000000e+00 0.0000000e+00 0.0000000e+00 
0.0000000e+00 0.0000000e+00 0.0000000e+00 
0.0000000e+00 0.0000000e+00 0.0000000e+00 
0.0000000e+00 0.0000000e+00 0.0000000e+00 
0.0000000e+00 0.0000000e+00 0.0000000e+00 
0.0000000e+00 0.0000000e+00 0.0000000e+00 
0.0000000e+00 0.0000000e+00 0.0000000e+00 
0.0000000e+00 0.0000000e+00 0.0000000e+00 
0.0000000e+00 0.0000000e+00 0.0000000e+00 
0.0000000e+00 0.0000000e+00 0.0000000e+00 
0.0000000e+00 0.0000000e+00 0.0000000e+00 
0.0000000e+00 0.0000000e+00 0.0000000e+00 
0.0000000e+00 0.0000000e+00 0.0000000e+00 
0.0000000e+00 0.0000000e+00 0.0000000e+00 
0.0000000e+00 0.0000000e+00 0.0000000e+00 
0.0000000e+00 0.0000000e+00 0.0000000e+00 
0.0000000e+00 0.0000000e+00 0.0000000e+00 
0.0000000e+00 0.0000000e+00 0.0000000e+00 
0.0000000e+00 0.0000000e+00 0.0000000e+00 
0.0000000e+00 0.0000000e+00 0.0000000e+00 
0.0000000e+00 0.0000000e+00 0.0000000e+00 
0.0000000e+00 0.0000000e+00 0.0000000e+00 
0.0000000e+00 0.0000000e+00 0.0000000e+00 
POINT_LOAD 3 30  float
0.0000000e+00 0.0000000e+00 0.0000000e+00 
0.0000000e+00 0.0000000e+00 0.0000000e+00 
0.0000000e+00 0.0000000e+00 0.0000000e+00 
1.0567209e+03 0.0000000e+00 3.7349573e+03 
2.5161343e+03 0.0000000e+00 -7.8070312e+03 
9.2303174e+03 0.0000000e+00 -8.2489043e+03 
-4.1434082e+03 0.0000000e+00 9.6076494e+03 
9.1426709e+03 0.0000000e+00 6.9969771e+03 
0.0000000e+00 0.0000000e+00 0.0000000e+00 
3.5667327e+03 0.0000000e+00 2.3427854e+03 
-4.7973921e+03 0.0000000e+00 -9.7924500e+02 
0.0000000e+00 0.0000000e+00 0.0000000e+00 
0.0000000e+00 0.0000000e+00 0.0000000e+00 
0.0000000e+00 0.0000000e+00 0.0000000e+00 
-7.0345464e+03 0.0000000e+00 5.3460468e+02 
7.9878772e+02 0.0000000e+00 6.0689302e+03 
-4.7419888e+03 0.0000000e+00 -6.3495233e+02 
-7.8958442e+03 0.0000000e+00 -8.9040049e+03 
-1.5004983e+03 0.0000000e+00 7.1116450e+03 
1.8647229e+03 0.0000000e+00 -1.7845848e+03 
0.0000000e+00 0.0000000e+00 0.0000000e+00 
6.2036211e+03 0.0000000e+00 7.3607729e+03 
6.6847363e+03 0.0000000e+00 2.6747153e+03 
-4.6580952e+03 0.0000000e+00 1.4271726e+03 
-6.3530645e+03 0.0000000e+00 -4.0278315e+03 
-3.4151729e+03 0.0000000e+00 8.5866650e+03 
1.2820486e+03 0.0000000e+00 9.4187329e+02 
2.0245645e+03 0.0000000e+00 -5.3014790e+03 
3.1437952e+03 0.0000000e+00 2.1683015e+03 
-5.1506265e+03 0.0000000e+00 -9.8187129e+03 
POINT_MOMENT 3 30  float
0.0000000e+00 0.0000000e+00 0.0000000e+00 
0.0000000e+00 0.0000000e+00 0.0000000e+00 
0.0000000e+00 0.0000000e+00 0.0000000e+00 
0.0000000e+00 0.0000000e+00 0.0000000e+00 
0.0000000e+00 0.0000000e+00 0.0000000e+00 
0.0000000e+00 0.0000000e+00 0.0000000e+00 
0.0000000e+00 0.0000000e+00 0.0000000e+00 
0.0000000e+00 0.0000000e+00 0.0000000e+00 
0.0000000e+00 0.0000000e+00 0.0000000e+00 
0.0000000e+00 0.0000000e+00 0.0000000e+00 
0.0000000e+00 0.0000000e+00 0.0000000e+00 
0.0000000e+00 0.0000000e+00 0.0000000e+00 
0.0000000e+00 0.0000000e+00 0.0000000e+00 
0.0000000e+00 0.0000000e+00 0.0000000e+00 
0.0000000e+00 0.0000000e+00 0.0000000e+00 
0.0000000e+00 0.0000000e+00 0.0000000e+00 
0.0000000e+00 0.0000000e+00 0.0000000e+00 
0.0000000e+00 0.0000000e+00 0.0000000e+00 
0.0000000e+00 0.0000000e+00 0.0000000e+00 
0.0000000e+00 0.0000000e+00 0.0000000e+00 
0.0000000e+00 0.0000000e+00 0.0000000e+00 
0.0000000e+00 0.0000000e+00 0.0000000e+00 
0.0000000e+00 0.0000000e+00 0.0000000e+00 
0.0000000e+00 0.0000000e+00 0.0000000e+00 
0.0000000e+00 0.0000000e+00 0.0000000e+00 
0.0000000e+00 0.0000000e+00 0.0000000e+00 
0.0000000e+00 0.0000000e+00 0.0000000e+00 
0.0000000e+00 0.0000000e+00 0.0000000e+00 
0.0000000e+00 0.0000000e+00 0.0000000e+00 
0.0000000e+00 0.0000000e+00 0.0000000e+00 
CELL_DATA 30
FIELD FieldData 9
YOUNG_MODULUS 1 30  float
2.1000000e+11
2.1000000e+11
2.1000000e+11
2.1000000e+11
2.1000000e+11
2.1000000e+11
2.1000000e+11
2.1000000e+11
2.1000000e+11
2.1000000e+11
2.1000000e+11
2.1000000e+11
2.1000000e+11
2.1000000e+11
2.1000000e+11
2.1000000e+11
2.1000000e+11
2.1000000e+11
2.1000000e+11
2.1000000e+11
2.1000000e+11
2.1000000e+11
2.1000000e+11
2.1000000e+11
2.1000000e+11
2.1000000e+11
2.1000000e+11
2.1000000e+11
2.1000000e+11
2.1000000e+11
DENSITY 1 30  float
7.8500000e+03
7.8500000e+03
7.8500000e+03
7.8500000e+03
7.8500000e+03
7.8500000e+03
7.8500000e+03
7.8500000e+03
7.8500000e+03
7.8500000e+03
7.8500000e+03
7.8500000e+03
7.8500000e+03
7.8500000e+03
7.8500000e+03
7.8500000e+03
7.8500000e+03
7.8500000e+03
7.8500000e+03
7.8500000e+03
7.8500000e+03
7.8500000e+03
7.8500000e+03
7.8500000e+03
7.8500000e+03
7.8500000e+03
7.8500000e+03
7.8500000e+03
7.8500000e+03
7.8500000e+03
CROSS_AREA 1 30  float
9.9999998e-03
9.9999998e-03
9.9999998e-03
9.9999998e-03
9.9999998e-03
9.9999998e-03
9.9999998e-03
9.9999998e-03
9.9999998e-03
9.9999998e-03
9.9999998e-03
9.9999998e-03
9.9999998e-03
9.9999998e-03
9.9999998e-03
9.9999998e-03
9.9999998e-03
9.9999998e-03
9.9999998e-03
9.9999998e-03
9.9999998e-03
9.9999998e-03
9.9999998e-03
9.9999998e-03
9.9999998e-03
9.9999998e-03
9.9999998e-03
9.9999998e-03
9.9999998e-03
9.9999998e-03
I22 1 30  float
1.5000001e-04
1.5000001e-04
1.5000001e-04
1.5000001e-04
1.5000001e-04
1.5000001e-04
1.5000001e-04
1.5000001e-04
1.5000001e-04
1.5000001e-04
1.5000001e-04
1.5000001e-04
1.5000001e-04
1.5000001e-04
1.5000001e-04
1.5000001e-04
1.5000001e-04
1.5000001e-04
1.5000001e-04
1.5000001e-04
1.5000001e-04
1.5000001e-04
1.5000001e-04
1.5000001e-04
1.5000001e-04
1.5000001e-04
1.5000001e-04
1.5000001e-04
1.5000001e-04
1.5000001e-04
I33 1 30  float
1.5000001e-04
1.5000001e-04
1.5000001e-04
1.5000001e-04
1.5000001e-04
1.5000001e-04
1.5000001e-04
1.5000001e-04
1.5000001e-04
1.5000001e-04
1.5000001e-04
1.5000001e-04
1.5000001e-04
1.5000001e-04
1.5000001e-04
1.5000001e-04
1.5000001e-04
1.5000001e-04
1.5000001e-04
1.5000001e-04
1.5000001e-04
1.5000001e-04
1.5000001e-04
1.5000001e-04
1.5000001e-04
1.5000001e-04
1.5000001e-04
1.5000001e-04
1.5000001e-04
1.5000001e-04
TORSIONAL_INERTIA 1 30  float
3.0000001e-04
3.0000001e-04
3.0000001e-04
3.0000001e-04
3.0000001e-04
3.0000001e-04
3.0000001e-04
3.0000001e-04
3.0000001e-04
3.0000001e-04
3.0000001e-04
3.0000001e-04
3.0000001e-04
3.0000001e-04
3.0000001e-04
3.0000001e-04
3.0000001e-04
3.0000001e-04
3.0000001e-04
3.0000001e-04
3.0000001e-04
3.0000001e-04
3.0000001e-04
3.0000001e-04
3.0000001e-04
3.0000001e-04
3.0000001e-04
3.0000001e-04
3.0000001e-04
3.0000001e-04
POISSON_RATIO 1 30  float
3.0000001e-01
3.0000001e-01
3.0000001e-01
3.0000001e-01
3.0000001e-01
3.0000001e-01
3.0000001e-01
3.0000001e-01
3.0000001e-01
3.0000001e-01
3.0000001e-01
3.0000001e-01
3.0000001e-01
3.0000001e-01
3.0000001e-01
3.0000001e-01
3.0000001e-01
3.0000001e-01
3.0000001e-01
3.0000001e-01
3.0000001e-01
3.0000001e-01
3.0000001e-01
3.0000001e-01
3.0000001e-01
3.0000001e-01
3.0000001e-01
3.0000001e-01
3.0000001e-01
3.0000001e-01
MOMENT 3 30  float
0.0000000e+00 -3.3317273e+02 0.0000000e+00 
0.0000000e+00 -9.9951819e+02 0.0000000e+00 
0.0000000e+00 -1.6658636e+03 0.0000000e+00 
0.0000000e+00 -1.9095208e+03 0.0000000e+00 
0.0000000e+00 -7.2403564e+02 0.0000000e+00 
0.0000000e+00 9.1162725e+03 0.0000000e+00 
0.0000000e+00 3.1823281e+03 0.0000000e+00 
0.0000000e+00 -7.5191083e+02 0.0000000e+00 
0.0000000e+00 -1.0290814e+03 0.0000000e+00 
0.0000000e+00 1.2044112e+02 0.0000000e+00 
0.0000000e+00 1.2034868e+03 0.0000000e+00 
0.0000000e+00 3.6104604e+03 0.0000000e+00 
0.0000000e+00 6.0174341e+03 0.0000000e+00 
0.0000000e+00 5.6105894e+03 0.0000000e+00 
0.0000000e+00 2.7094407e+03 0.0000000e+00 
0.0000000e+00 3.2419197e+03 0.0000000e+00 
0.0000000e+00 1.3678538e+03 0.0000000e+00 
0.0000000e+00 -4.2647490e+03 0.0000000e+00 
0.0000000e+00 -9.7516621e+03 0.0000000e+00 
0.0000000e+00 -1.4492687e+04 0.0000000e+00 
0.0000000e+00 -6.5739741e+03 0.0000000e+00 
0.0000000e+00 -6.3137878e+02 0.0000000e+00 
0.0000000e+00 1.2093284e+03 0.0000000e+00 
0.0000000e+00 5.6506943e+03 0.0000000e+00 
0.0000000e+00 5.5332266e+03 0.0000000e+00 
0.0000000e+00 -5.6979669e+02 0.0000000e+00 
0.0000000e+00 -5.4683613e+03 0.0000000e+00 
0.0000000e+00 -6.0073203e+03 0.0000000e+00 
0.0000000e+00 -3.4131018e+03 0.0000000e+00 
0.0000000e+00 6.8315273e+03 0.0000000e+00 
FORCE 3 30  float
7.9774980e+03 0.0000000e+00 -8.3293182e+02 
7.9774980e+03 0.0000000e+00 -8.3293182e+02 
7.9774980e+03 0.0000000e+00 -8.3293182e+02 
4.2425410e+03 0.0000000e+00 2.2378918e+02 
1.2049572e+04 0.0000000e+00 2.7399236e+03 
1.5989821e+04 0.0000000e+00 -5.3457266e+03 
6.3821719e+03 0.0000000e+00 -9.4891348e+03 
-6.1480518e+02 0.0000000e+00 -3.4646317e+02 
-6.1480518e+02 0.0000000e+00 -3.4646317e+02 
-2.9575906e+03 0.0000000e+00 3.2202695e+03 
4.0728069e+03 0.0000000e+00 3.0087170e+03 
4.0728069e+03 0.0000000e+00 3.0087170e+03 
4.0728069e+03 0.0000000e+00 3.0087170e+03 
3.5382021e+03 0.0000000e+00 -4.0258296e+03 
-2.5307280e+03 0.0000000e+00 -3.2270417e+03 
-6.2478423e+03 0.0000000e+00 1.6053397e+03 
2.6561621e+03 0.0000000e+00 -6.2905044e+03 
-4.4554829e+03 0.0000000e+00 -7.7910029e+03 
-2.6708979e+03 0.0000000e+00 -5.9262798e+03 
-2.6708979e+03 0.0000000e+00 -5.9262798e+03 
-1.7315967e+04 0.0000000e+00 4.3086553e+03 
-2.4000703e+04 0.0000000e+00 1.6339399e+03 
-1.9342607e+04 0.0000000e+00 2.0676730e+02 
-1.2989544e+04 0.0000000e+00 4.2345986e+03 
-9.5743701e+03 0.0000000e+00 -4.3520669e+03 
1.5771228e+03 0.0000000e+00 -1.9783456e+03 
2.9507431e+02 0.0000000e+00 -2.9202190e+03 
-1.7294901e+03 0.0000000e+00 2.3812600e+03 
-4.8732852e+03 0.0000000e+00 2.1295834e+02 
2.7734122e+02 0.0000000e+00 1.0031671e+04 
