# vtk DataFile Version 4.0
vtk output
ASCII
DATASET UNSTRUCTURED_GRID
POINTS 212 float
0.0000000e+00 0.0000000e+00 0.0000000e+00 
0.0000000e+00 0.0000000e+00 2.5000000e-01 
0.0000000e+00 0.0000000e+00 5.0000000e-01 
0.0000000e+00 0.0000000e+00 7.5000000e-01 
0.0000000e+00 0.0000000e+00 1.0000000e+00 
0.0000000e+00 0.0000000e+00 1.2500000e+00 
0.0000000e+00 0.0000000e+00 1.5000000e+00 
0.0000000e+00 0.0000000e+00 1.7500000e+00 
0.0000000e+00 0.0000000e+00 2.0000000e+00 
0.0000000e+00 0.0000000e+00 2.2500000e+00 
0.0000000e+00 0.0000000e+00 2.5000000e+00 
0.0000000e+00 0.0000000e+00 2.7500000e+00 
0.0000000e+00 0.0000000e+00 3.0000000e+00 
0.0000000e+00 0.0000000e+00 3.2500000e+00 
0.0000000e+00 0.0000000e+00 3.5000000e+00 
0.0000000e+00 0.0000000e+00 3.7500000e+00 
0.0000000e+00 0.0000000e+00 4.0000000e+00 
0.0000000e+00 0.0000000e+00 4.2500000e+00 
0.0000000e+00 0.0000000e+00 4.5000000e+00 
0.0000000e+00 0.0000000e+00 4.7500000e+00 
0.0000000e+00 0.0000000e+00 5.0000000e+00 
0.0000000e+00 0.0000000e+00 5.2500000e+00 
0.0000000e+00 0.0000000e+00 5.5000000e+00 
0.0000000e+00 0.0000000e+00 5.7500000e+00 
0.0000000e+00 0.0000000e+00 6.0000000e+00 
0.0000000e+00 0.0000000e+00 6.2500000e+00 
0.0000000e+00 0.0000000e+00 6.5000000e+00 
0.0000000e+00 0.0000000e+00 6.7500000e+00 
0.0000000e+00 0.0000000e+00 7.0000000e+00 
0.0000000e+00 0.0000000e+00 7.2500000e+00 
0.0000000e+00 0.0000000e+00 7.5000000e+00 
0.0000000e+00 0.0000000e+00 7.7500000e+00 
0.0000000e+00 0.0000000e+00 8.0000000e+00 
0.0000000e+00 0.0000000e+00 8.2500000e+00 
0.0000000e+00 0.0000000e+00 8.5000000e+00 
0.0000000e+00 0.0000000e+00 8.7500000e+00 
0.0000000e+00 0.0000000e+00 9.0000000e+00 
0.0000000e+00 0.0000000e+00 9.2500000e+00 
0.0000000e+00 0.0000000e+00 9.5000000e+00 
0.0000000e+00 0.0000000e+00 9.7500000e+00 
0.0000000e+00 0.0000000e+00 1.0000000e+01 
0.0000000e+00 0.0000000e+00 1.0250000e+01 
0.0000000e+00 0.0000000e+00 1.0500000e+01 
0.0000000e+00 0.0000000e+00 1.0750000e+01 
0.0000000e+00 0.0000000e+00 1.1000000e+01 
0.0000000e+00 0.0000000e+00 1.1250000e+01 
0.0000000e+00 0.0000000e+00 1.1500000e+01 
0.0000000e+00 0.0000000e+00 1.1750000e+01 
0.0000000e+00 0.0000000e+00 1.2000000e+01 
0.0000000e+00 0.0000000e+00 1.2250000e+01 
0.0000000e+00 0.0000000e+00 1.2500000e+01 
0.0000000e+00 0.0000000e+00 1.2750000e+01 
0.0000000e+00 0.0000000e+00 1.3000000e+01 
0.0000000e+00 0.0000000e+00 1.3250000e+01 
0.0000000e+00 0.0000000e+00 1.3500000e+01 
0.0000000e+00 0.0000000e+00 1.3750000e+01 
0.0000000e+00 0.0000000e+00 1.4000000e+01 
0.0000000e+00 0.0000000e+00 1.4250000e+01 
0.0000000e+00 0.0000000e+00 1.4500000e+01 
0.0000000e+00 0.0000000e+00 1.4750000e+01 
0.0000000e+00 0.0000000e+00 1.5000000e+01 
0.0000000e+00 0.0000000e+00 1.5250000e+01 
0.0000000e+00 0.0000000e+00 1.5500000e+01 
0.0000000e+00 0.0000000e+00 1.5750000e+01 
0.0000000e+00 0.0000000e+00 1.6000000e+01 
0.0000000e+00 0.0000000e+00 1.6250000e+01 
0.0000000e+00 0.0000000e+00 1.6500000e+01 
0.0000000e+00 0.0000000e+00 1.6750000e+01 
0.0000000e+00 0.0000000e+00 1.7000000e+01 
0.0000000e+00 0.0000000e+00 1.7250000e+01 
0.0000000e+00 0.0000000e+00 1.7500000e+01 
0.0000000e+00 0.0000000e+00 1.7750000e+01 
0.0000000e+00 0.0000000e+00 1.8000000e+01 
5.0000000e-01 0.0000000e+00 3.0000000e+00 
5.0000000e-01 0.0000000e+00 6.0000000e+00 
5.0000000e-01 0.0000000e+00 9.0000000e+00 
5.0000000e-01 0.0000000e+00 1.2000000e+01 
5.0000000e-01 0.0000000e+00 1.5000000e+01 
5.0000000e-01 0.0000000e+00 1.8000000e+01 
1.0000000e+00 0.0000000e+00 3.0000000e+00 
1.0000000e+00 0.0000000e+00 6.0000000e+00 
1.0000000e+00 0.0000000e+00 9.0000000e+00 
1.0000000e+00 0.0000000e+00 1.2000000e+01 
1.0000000e+00 0.0000000e+00 1.5000000e+01 
1.0000000e+00 0.0000000e+00 1.8000000e+01 
1.5000000e+00 0.0000000e+00 3.0000000e+00 
1.5000000e+00 0.0000000e+00 6.0000000e+00 
1.5000000e+00 0.0000000e+00 9.0000000e+00 
1.5000000e+00 0.0000000e+00 1.2000000e+01 
1.5000000e+00 0.0000000e+00 1.5000000e+01 
1.5000000e+00 0.0000000e+00 1.8000000e+01 
2.0000000e+00 0.0000000e+00 3.0000000e+00 
2.0000000e+00 0.0000000e+00 6.0000000e+00 
2.0000000e+00 0.0000000e+00 9.0000000e+00 
2.0000000e+00 0.0000000e+00 1.2000000e+01 
2.0000000e+00 0.0000000e+00 1.5000000e+01 
2.0000000e+00 0.0000000e+00 1.8000000e+01 
2.5000000e+00 0.0000000e+00 3.0000000e+00 
2.5000000e+00 0.0000000e+00 6.0000000e+00 
2.5000000e+00 0.0000000e+00 9.0000000e+00 
2.5000000e+00 0.0000000e+00 1.2000000e+01 
2.5000000e+00 0.0000000e+00 1.5000000e+01 
2.5000000e+00 0.0000000e+00 1.8000000e+01 
3.0000000e+00 0.0000000e+00 3.0000000e+00 
3.0000000e+00 0.0000000e+00 6.0000000e+00 
3.0000000e+00 0.0000000e+00 9.0000000e+00 
3.0000000e+00 0.0000000e+00 1.2000000e+01 
3.0000000e+00 0.0000000e+00 1.5000000e+01 
3.0000000e+00 0.0000000e+00 1.8000000e+01 
3.5000000e+00 0.0000000e+00 3.0000000e+00 
3.5000000e+00 0.0000000e+00 6.0000000e+00 
3.5000000e+00 0.0000000e+00 9.0000000e+00 
3.5000000e+00 0.0000000e+00 1.2000000e+01 
3.5000000e+00 0.0000000e+00 1.5000000e+01 
3.5000000e+00 0.0000000e+00 1.8000000e+01 
4.0000000e+00 0.0000000e+00 3.0000000e+00 
4.0000000e+00 0.0000000e+00 6.0000000e+00 
4.0000000e+00 0.0000000e+00 9.0000000e+00 
4.0000000e+00 0.0000000e+00 1.2000000e+01 
4.0000000e+00 0.0000000e+00 1.5000000e+01 
4.0000000e+00 0.0000000e+00 1.8000000e+01 
4.5000000e+00 0.0000000e+00 3.0000000e+00 
4.5000000e+00 0.0000000e+00 6.0000000e+00 
4.5000000e+00 0.0000000e+00 9.0000000e+00 
4.5000000e+00 0.0000000e+00 1.2000000e+01 
4.5000000e+00 0.0000000e+00 1.5000000e+01 
4.5000000e+00 0.0000000e+00 1.8000000e+01 
5.0000000e+00 0.0000000e+00 3.0000000e+00 
5.0000000e+00 0.0000000e+00 6.0000000e+00 
5.0000000e+00 0.0000000e+00 9.0000000e+00 
5.0000000e+00 0.0000000e+00 1.2000000e+01 
5.0000000e+00 0.0000000e+00 1.5000000e+01 
5.0000000e+00 0.0000000e+00 1.8000000e+01 
5.5000000e+00 0.0000000e+00 3.0000000e+00 
5.5000000e+00 0.0000000e+00 6.0000000e+00 
5.5000000e+00 0.0000000e+00 9.0000000e+00 
5.5000000e+00 0.0000000e+00 1.2000000e+01 
5.5000000e+00 0.0000000e+00 1.5000000e+01 
5.5000000e+00 0.0000000e+00 1.8000000e+01 
6.0000000e+00 0.0000000e+00 0.0000000e+00 
6.0000000e+00 0.0000000e+00 2.5000000e-01 
6.0000000e+00 0.0000000e+00 5.0000000e-01 
6.0000000e+00 0.0000000e+00 7.5000000e-01 
6.0000000e+00 0.0000000e+00 1.0000000e+00 
6.0000000e+00 0.0000000e+00 1.2500000e+00 
6.0000000e+00 0.0000000e+00 1.5000000e+00 
6.0000000e+00 0.0000000e+00 1.7500000e+00 
6.0000000e+00 0.0000000e+00 2.0000000e+00 
6.0000000e+00 0.0000000e+00 2.2500000e+00 
6.0000000e+00 0.0000000e+00 2.5000000e+00 
6.0000000e+00 0.0000000e+00 2.7500000e+00 
6.0000000e+00 0.0000000e+00 3.0000000e+00 
6.0000000e+00 0.0000000e+00 3.2500000e+00 
6.0000000e+00 0.0000000e+00 3.5000000e+00 
6.0000000e+00 0.0000000e+00 3.7500000e+00 
6.0000000e+00 0.0000000e+00 4.0000000e+00 
6.0000000e+00 0.0000000e+00 4.2500000e+00 
6.0000000e+00 0.0000000e+00 4.5000000e+00 
6.0000000e+00 0.0000000e+00 4.7500000e+00 
6.0000000e+00 0.0000000e+00 5.0000000e+00 
6.0000000e+00 0.0000000e+00 5.2500000e+00 
6.0000000e+00 0.0000000e+00 5.5000000e+00 
6.0000000e+00 0.0000000e+00 5.7500000e+00 
6.0000000e+00 0.0000000e+00 6.0000000e+00 
6.0000000e+00 0.0000000e+00 6.2500000e+00 
6.0000000e+00 0.0000000e+00 6.5000000e+00 
6.0000000e+00 0.0000000e+00 6.7500000e+00 
6.0000000e+00 0.0000000e+00 7.0000000e+00 
6.0000000e+00 0.0000000e+00 7.2500000e+00 
6.0000000e+00 0.0000000e+00 7.5000000e+00 
6.0000000e+00 0.0000000e+00 7.7500000e+00 
6.0000000e+00 0.0000000e+00 8.0000000e+00 
6.0000000e+00 0.0000000e+00 8.2500000e+00 
6.0000000e+00 0.0000000e+00 8.5000000e+00 
6.0000000e+00 0.0000000e+00 8.7500000e+00 
6.0000000e+00 0.0000000e+00 9.0000000e+00 
6.0000000e+00 0.0000000e+00 9.2500000e+00 
6.0000000e+00 0.0000000e+00 9.5000000e+00 
6.0000000e+00 0.0000000e+00 9.7500000e+00 
6.0000000e+00 0.0000000e+00 1.0000000e+01 
6.0000000e+00 0.0000000e+00 1.0250000e+01 
6.0000000e+00 0.0000000e+00 1.0500000e+01 
6.0000000e+00 0.0000000e+00 1.0750000e+01 
6.0000000e+00 0.0000000e+00 1.1000000e+01 
6.0000000e+00 0.0000000e+00 1.1250000e+01 
6.0000000e+00 0.0000000e+00 1.1500000e+01 
6.0000000e+00 0.0000000e+00 1.1750000e+01 
6.0000000e+00 0.0000000e+00 1.2000000e+01 
6.0000000e+00 0.0000000e+00 1.2250000e+01 
6.0000000e+00 0.0000000e+00 1.2500000e+01 
6.0000000e+00 0.0000000e+00 1.2750000e+01 
6.0000000e+00 0.0000000e+00 1.3000000e+01 
6.0000000e+00 0.0000000e+00 1.3250000e+01 
6.0000000e+00 0.0000000e+00 1.3500000e+01 
6.0000000e+00 0.0000000e+00 1.3750000e+01 
6.0000000e+00 0.0000000e+00 1.4000000e+01 
6.0000000e+00 0.0000000e+00 1.4250000e+01 
6.0000000e+00 0.0000000e+00 1.4500000e+01 
6.0000000e+00 0.0000000e+00 1.4750000e+01 
6.0000000e+00 0.0000000e+00 1.5000000e+01 
6.0000000e+00 0.0000000e+00 1.5250000e+01 
6.0000000e+00 0.0000000e+00 1.5500000e+01 
6.0000000e+00 0.0000000e+00 1.5750000e+01 
6.0000000e+00 0.0000000e+00 1.6000000e+01 
6.0000000e+00 0.0000000e+00 1.6250000e+01 
6.0000000e+00 0.0000000e+00 1.6500000e+01 
6.0000000e+00 0.0000000e+00 1.6750000e+01 
6.0000000e+00 0.0000000e+00 1.7000000e+01 
6.0000000e+00 0.0000000e+00 1.7250000e+01 
6.0000000e+00 0.0000000e+00 1.7500000e+01 
6.0000000e+00 0.0000000e+00 1.7750000e+01 
6.0000000e+00 0.0000000e+00 1.8000000e+01 

CELLS 216 648
2 0 1
2 1 2
2 2 3
2 3 4
2 4 5
2 5 6
2 6 7
2 7 8
2 8 9
2 9 10
2 10 11
2 11 12
2 12 13
2 13 14
2 14 15
2 15 16
2 16 17
2 17 18
2 18 19
2 19 20
2 20 21
2 21 22
2 22 23
2 23 24
2 24 25
2 25 26
2 26 27
2 27 28
2 28 29
2 29 30
2 30 31
2 31 32
2 32 33
2 33 34
2 34 35
2 35 36
2 36 37
2 37 38
2 38 39
2 39 40
2 40 41
2 41 42
2 42 43
2 43 44
2 44 45
2 45 46
2 46 47
2 47 48
2 48 49
2 49 50
2 50 51
2 51 52
2 52 53
2 53 54
2 54 55
2 55 56
2 56 57
2 57 58
2 58 59
2 59 60
2 60 61
2 61 62
2 62 63
2 63 64
2 64 65
2 65 66
2 66 67
2 67 68
2 68 69
2 69 70
2 70 71
2 71 72
2 139 140
2 140 141
2 141 142
2 142 143
2 143 144
2 144 145
2 145 146
2 146 147
2 147 148
2 148 149
2 149 150
2 150 151
2 151 152
2 152 153
2 153 154
2 154 155
2 155 156
2 156 157
2 157 158
2 158 159
2 159 160
2 160 161
2 161 162
2 162 163
2 163 164
2 164 165
2 165 166
2 166 167
2 167 168
2 168 169
2 169 170
2 170 171
2 171 172
2 172 173
2 173 174
2 174 175
2 175 176
2 176 177
2 177 178
2 178 179
2 179 180
2 180 181
2 181 182
2 182 183
2 183 184
2 184 185
2 185 186
2 186 187
2 187 188
2 188 189
2 189 190
2 190 191
2 191 192
2 192 193
2 193 194
2 194 195
2 195 196
2 196 197
2 197 198
2 198 199
2 199 200
2 200 201
2 201 202
2 202 203
2 203 204
2 204 205
2 205 206
2 206 207
2 207 208
2 208 209
2 209 210
2 210 211
2 12 73
2 73 79
2 79 85
2 85 91
2 91 97
2 97 103
2 103 109
2 109 115
2 115 121
2 121 127
2 127 133
2 133 151
2 24 74
2 74 80
2 80 86
2 86 92
2 92 98
2 98 104
2 104 110
2 110 116
2 116 122
2 122 128
2 128 134
2 134 163
2 36 75
2 75 81
2 81 87
2 87 93
2 93 99
2 99 105
2 105 111
2 111 117
2 117 123
2 123 129
2 129 135
2 135 175
2 48 76
2 76 82
2 82 88
2 88 94
2 94 100
2 100 106
2 106 112
2 112 118
2 118 124
2 124 130
2 130 136
2 136 187
2 60 77
2 77 83
2 83 89
2 89 95
2 95 101
2 101 107
2 107 113
2 113 119
2 119 125
2 125 131
2 131 137
2 137 199
2 72 78
2 78 84
2 84 90
2 90 96
2 96 102
2 102 108
2 108 114
2 114 120
2 120 126
2 126 132
2 132 138
2 138 211

CELL_TYPES 216
3
3
3
3
3
3
3
3
3
3
3
3
3
3
3
3
3
3
3
3
3
3
3
3
3
3
3
3
3
3
3
3
3
3
3
3
3
3
3
3
3
3
3
3
3
3
3
3
3
3
3
3
3
3
3
3
3
3
3
3
3
3
3
3
3
3
3
3
3
3
3
3
3
3
3
3
3
3
3
3
3
3
3
3
3
3
3
3
3
3
3
3
3
3
3
3
3
3
3
3
3
3
3
3
3
3
3
3
3
3
3
3
3
3
3
3
3
3
3
3
3
3
3
3
3
3
3
3
3
3
3
3
3
3
3
3
3
3
3
3
3
3
3
3
3
3
3
3
3
3
3
3
3
3
3
3
3
3
3
3
3
3
3
3
3
3
3
3
3
3
3
3
3
3
3
3
3
3
3
3
3
3
3
3
3
3
3
3
3
3
3
3
3
3
3
3
3
3
3
3
3
3
3
3
3
3
3
3
3
3
3
3
3
3
3
3
POINT_DATA 212
FIELD FieldData 8
DISPLACEMENT 3 212  float
0.0000000e+00 0.0000000e+00 0.0000000e+00 
-2.3018032e-05 0.0000000e+00 -2.1844702e-05 
-4.5089015e-05 0.0000000e+00 -4.3538279e-05 
-6.5265907e-05 0.0000000e+00 -6.5080727e-05 
-8.2601648e-05 0.0000000e+00 -8.6472042e-05 
-9.6149204e-05 0.0000000e+00 -1.0771224e-04 
-1.0496152e-04 0.0000000e+00 -1.2880130e-04 
-1.0809155e-04 0.0000000e+00 -1.4973924e-04 
-1.0459225e-04 0.0000000e+00 -1.7052605e-04 
-9.3516566e-05 0.0000000e+00 -1.9116173e-04 
-7.3917457e-05 0.0000000e+00 -2.1164629e-04 
-4.4847871e-05 0.0000000e+00 -2.3197971e-04 
-5.3607582e-06 0.0000000e+00 -2.5216202e-04 
3.0341174e-05 0.0000000e+00 -2.7035334e-04 
4.9461782e-05 0.0000000e+00 -2.8839352e-04 
5.5057946e-05 0.0000000e+00 -3.0628260e-04 
5.0186547e-05 0.0000000e+00 -3.2402054e-04 
3.7904465e-05 0.0000000e+00 -3.4160737e-04 
2.1268585e-05 0.0000000e+00 -3.5904304e-04 
3.3357819e-06 0.0000000e+00 -3.7632760e-04 
-1.2837058e-05 0.0000000e+00 -3.9346103e-04 
-2.4193057e-05 0.0000000e+00 -4.1044335e-04 
-2.7675333e-05 0.0000000e+00 -4.2727453e-04 
-2.0227002e-05 0.0000000e+00 -4.4395457e-04 
1.2088124e-06 0.0000000e+00 -4.6048348e-04 
2.3459854e-05 0.0000000e+00 -4.7502143e-04 
3.3036693e-05 0.0000000e+00 -4.8940827e-04 
3.2520456e-05 0.0000000e+00 -5.0364394e-04 
2.4492278e-05 0.0000000e+00 -5.1772851e-04 
1.1533283e-05 0.0000000e+00 -5.3166196e-04 
-3.7753985e-06 0.0000000e+00 -5.4544426e-04 
-1.8852639e-05 0.0000000e+00 -5.5907544e-04 
-3.1117306e-05 0.0000000e+00 -5.7255547e-04 
-3.7988277e-05 0.0000000e+00 -5.8588444e-04 
-3.6884419e-05 0.0000000e+00 -5.9906224e-04 
-2.5224603e-05 0.0000000e+00 -6.1208889e-04 
-4.2770176e-07 0.0000000e+00 -6.2496442e-04 
2.4081342e-05 0.0000000e+00 -6.3584902e-04 
3.4989804e-05 0.0000000e+00 -6.4658246e-04 
3.5047142e-05 0.0000000e+00 -6.5716478e-04 
2.7002819e-05 0.0000000e+00 -6.6759594e-04 
1.3606294e-05 0.0000000e+00 -6.7787600e-04 
-2.3929774e-06 0.0000000e+00 -6.8800495e-04 
-1.8245533e-05 0.0000000e+00 -6.9798273e-04 
-3.1201915e-05 0.0000000e+00 -7.0780941e-04 
-3.8512662e-05 0.0000000e+00 -7.1748497e-04 
-3.7428315e-05 0.0000000e+00 -7.2700938e-04 
-2.5199415e-05 0.0000000e+00 -7.3638267e-04 
9.2349592e-07 0.0000000e+00 -7.4560486e-04 
2.7668531e-05 0.0000000e+00 -7.5283606e-04 
4.1521496e-05 0.0000000e+00 -7.5991609e-04 
4.4868393e-05 0.0000000e+00 -7.6684501e-04 
4.0095216e-05 0.0000000e+00 -7.7362283e-04 
2.9587967e-05 0.0000000e+00 -7.8024954e-04 
1.5732645e-05 0.0000000e+00 -7.8672508e-04 
9.1524885e-07 0.0000000e+00 -7.9304952e-04 
-1.2478223e-05 0.0000000e+00 -7.9922279e-04 
-2.2061771e-05 0.0000000e+00 -8.0524496e-04 
-2.5449395e-05 0.0000000e+00 -8.1111601e-04 
-2.0255098e-05 0.0000000e+00 -8.1683591e-04 
-4.0928794e-06 0.0000000e+00 -8.2240475e-04 
9.2499249e-06 0.0000000e+00 -8.2598254e-04 
7.0598680e-06 0.0000000e+00 -8.2940923e-04 
-6.6662160e-06 0.0000000e+00 -8.3268480e-04 
-2.7931494e-05 0.0000000e+00 -8.3580922e-04 
-5.2739131e-05 0.0000000e+00 -8.3878252e-04 
-7.7092300e-05 0.0000000e+00 -8.4160466e-04 
-9.6994154e-05 0.0000000e+00 -8.4427575e-04 
-1.0844787e-04 0.0000000e+00 -8.4679568e-04 
-1.0745662e-04 0.0000000e+00 -8.4916444e-04 
-9.0023554e-05 0.0000000e+00 -8.5138209e-04 
-5.2151849e-05 0.0000000e+00 -8.5344864e-04 
1.0155331e-05 0.0000000e+00 -8.5536408e-04 
-4.4672984e-06 0.0000000e+00 -3.9309458e-04 
1.0073437e-06 0.0000000e+00 -5.7288382e-04 
-3.5641813e-07 0.0000000e+00 -7.4245653e-04 
7.6957991e-07 0.0000000e+00 -8.6632464e-04 
-3.4107327e-06 0.0000000e+00 -9.2195888e-04 
8.4627763e-06 0.0000000e+00 -1.0528470e-03 
-3.5738387e-06 0.0000000e+00 -5.9529603e-04 
8.0587495e-07 0.0000000e+00 -7.5174071e-04 
-2.8513449e-07 0.0000000e+00 -9.2547934e-04 
6.1566396e-07 0.0000000e+00 -1.0519883e-03 
-2.7285862e-06 0.0000000e+00 -1.0903053e-03 
6.7702208e-06 0.0000000e+00 -1.3013169e-03 
-2.6803791e-06 0.0000000e+00 -8.0663059e-04 
6.0440618e-07 0.0000000e+00 -9.4491837e-04 
-2.1385088e-07 0.0000000e+00 -1.1218973e-03 
4.6174796e-07 0.0000000e+00 -1.2504603e-03 
-2.0464397e-06 0.0000000e+00 -1.2753081e-03 
5.0776657e-06 0.0000000e+00 -1.5486380e-03 
-1.7869194e-06 0.0000000e+00 -9.8654814e-04 
4.0293747e-07 0.0000000e+00 -1.1118668e-03 
-1.4256725e-07 0.0000000e+00 -1.2911600e-03 
3.0783198e-07 0.0000000e+00 -1.4211902e-03 
-1.3642931e-06 0.0000000e+00 -1.4364173e-03 
3.3851104e-06 0.0000000e+00 -1.7542603e-03 
-8.9345968e-07 0.0000000e+00 -1.1060844e-03 
2.0146874e-07 0.0000000e+00 -1.2236215e-03 
-7.1283623e-08 0.0000000e+00 -1.4043034e-03 
1.5391599e-07 0.0000000e+00 -1.5352139e-03 
-6.8214655e-07 0.0000000e+00 -1.5446686e-03 
1.6925552e-06 0.0000000e+00 -1.8892194e-03 
3.5053408e-16 0.0000000e+00 -1.1478608e-03 
6.1468133e-16 0.0000000e+00 -1.2628040e-03 
7.8821694e-16 0.0000000e+00 -1.4439488e-03 
8.9773306e-16 0.0000000e+00 -1.5751527e-03 
9.5037361e-16 0.0000000e+00 -1.5826833e-03 
9.8219717e-16 0.0000000e+00 -1.9361367e-03 
8.9345968e-07 0.0000000e+00 -1.1060844e-03 
-2.0146874e-07 0.0000000e+00 -1.2236215e-03 
7.1283630e-08 0.0000000e+00 -1.4043034e-03 
-1.5391598e-07 0.0000000e+00 -1.5352139e-03 
6.8214655e-07 0.0000000e+00 -1.5446686e-03 
-1.6925552e-06 0.0000000e+00 -1.8892194e-03 
1.7869194e-06 0.0000000e+00 -9.8654814e-04 
-4.0293747e-07 0.0000000e+00 -1.1118668e-03 
1.4256725e-07 0.0000000e+00 -1.2911600e-03 
-3.0783195e-07 0.0000000e+00 -1.4211902e-03 
1.3642931e-06 0.0000000e+00 -1.4364173e-03 
-3.3851104e-06 0.0000000e+00 -1.7542603e-03 
2.6803791e-06 0.0000000e+00 -8.0663059e-04 
-6.0440618e-07 0.0000000e+00 -9.4491837e-04 
2.1385088e-07 0.0000000e+00 -1.1218973e-03 
-4.6174796e-07 0.0000000e+00 -1.2504603e-03 
2.0464397e-06 0.0000000e+00 -1.2753081e-03 
-5.0776657e-06 0.0000000e+00 -1.5486380e-03 
3.5738387e-06 0.0000000e+00 -5.9529603e-04 
-8.0587495e-07 0.0000000e+00 -7.5174071e-04 
2.8513449e-07 0.0000000e+00 -9.2547934e-04 
-6.1566396e-07 0.0000000e+00 -1.0519883e-03 
2.7285862e-06 0.0000000e+00 -1.0903053e-03 
-6.7702208e-06 0.0000000e+00 -1.3013169e-03 
4.4672984e-06 0.0000000e+00 -3.9309458e-04 
-1.0073437e-06 0.0000000e+00 -5.7288382e-04 
3.5641813e-07 0.0000000e+00 -7.4245653e-04 
-7.6957991e-07 0.0000000e+00 -8.6632464e-04 
3.4107327e-06 0.0000000e+00 -9.2195888e-04 
-8.4627763e-06 0.0000000e+00 -1.0528470e-03 
0.0000000e+00 0.0000000e+00 0.0000000e+00 
2.3018032e-05 0.0000000e+00 -2.1844702e-05 
4.5089015e-05 0.0000000e+00 -4.3538279e-05 
6.5265907e-05 0.0000000e+00 -6.5080727e-05 
8.2601648e-05 0.0000000e+00 -8.6472042e-05 
9.6149204e-05 0.0000000e+00 -1.0771224e-04 
1.0496152e-04 0.0000000e+00 -1.2880130e-04 
1.0809155e-04 0.0000000e+00 -1.4973924e-04 
1.0459225e-04 0.0000000e+00 -1.7052605e-04 
9.3516566e-05 0.0000000e+00 -1.9116173e-04 
7.3917457e-05 0.0000000e+00 -2.1164629e-04 
4.4847871e-05 0.0000000e+00 -2.3197971e-04 
5.3607582e-06 0.0000000e+00 -2.5216202e-04 
-3.0341174e-05 0.0000000e+00 -2.7035334e-04 
-4.9461782e-05 0.0000000e+00 -2.8839352e-04 
-5.5057946e-05 0.0000000e+00 -3.0628260e-04 
-5.0186547e-05 0.0000000e+00 -3.2402054e-04 
-3.7904465e-05 0.0000000e+00 -3.4160737e-04 
-2.1268585e-05 0.0000000e+00 -3.5904304e-04 
-3.3357819e-06 0.0000000e+00 -3.7632760e-04 
1.2837058e-05 0.0000000e+00 -3.9346103e-04 
2.4193057e-05 0.0000000e+00 -4.1044335e-04 
2.7675333e-05 0.0000000e+00 -4.2727453e-04 
2.0227002e-05 0.0000000e+00 -4.4395457e-04 
-1.2088124e-06 0.0000000e+00 -4.6048348e-04 
-2.3459854e-05 0.0000000e+00 -4.7502143e-04 
-3.3036693e-05 0.0000000e+00 -4.8940827e-04 
-3.2520456e-05 0.0000000e+00 -5.0364394e-04 
-2.4492278e-05 0.0000000e+00 -5.1772851e-04 
-1.1533283e-05 0.0000000e+00 -5.3166196e-04 
3.7753985e-06 0.0000000e+00 -5.4544426e-04 
1.8852639e-05 0.0000000e+00 -5.5907544e-04 
3.1117306e-05 0.0000000e+00 -5.7255547e-04 
3.7988277e-05 0.0000000e+00 -5.8588444e-04 
3.6884419e-05 0.0000000e+00 -5.9906224e-04 
2.5224603e-05 0.0000000e+00 -6.1208889e-04 
4.2770176e-07 0.0000000e+00 -6.2496442e-04 
-2.4081342e-05 0.0000000e+00 -6.3584902e-04 
-3.4989804e-05 0.0000000e+00 -6.4658246e-04 
-3.5047142e-05 0.0000000e+00 -6.5716478e-04 
-2.7002819e-05 0.0000000e+00 -6.6759594e-04 
-1.3606294e-05 0.0000000e+00 -6.7787600e-04 
2.3929774e-06 0.0000000e+00 -6.8800495e-04 
1.8245533e-05 0.0000000e+00 -6.9798273e-04 
3.1201915e-05 0.0000000e+00 -7.0780941e-04 
3.8512662e-05 0.0000000e+00 -7.1748497e-04 
3.7428315e-05 0.0000000e+00 -7.2700938e-04 
2.5199415e-05 0.0000000e+00 -7.3638267e-04 
-9.2349592e-07 0.0000000e+00 -7.4560486e-04 
-2.7668531e-05 0.0000000e+00 -7.5283606e-04 
-4.1521496e-05 0.0000000e+00 -7.5991609e-04 
-4.4868393e-05 0.0000000e+00 -7.6684501e-04 
-4.0095216e-05 0.0000000e+00 -7.7362283e-04 
-2.9587967e-05 0.0000000e+00 -7.8024954e-04 
-1.5732645e-05 0.0000000e+00 -7.8672508e-04 
-9.1524885e-07 0.0000000e+00 -7.9304952e-04 
1.2478223e-05 0.0000000e+00 -7.9922279e-04 
2.2061771e-05 0.0000000e+00 -8.0524496e-04 
2.5449395e-05 0.0000000e+00 -8.1111601e-04 
2.0255098e-05 0.0000000e+00 -8.1683591e-04 
4.0928794e-06 0.0000000e+00 -8.2240475e-04 
-9.2499249e-06 0.0000000e+00 -8.2598254e-04 
-7.0598680e-06 0.0000000e+00 -8.2940923e-04 
6.6662160e-06 0.0000000e+00 -8.3268480e-04 
2.7931494e-05 0.0000000e+00 -8.3580922e-04 
5.2739131e-05 0.0000000e+00 -8.3878252e-04 
7.7092300e-05 0.0000000e+00 -8.4160466e-04 
9.6994154e-05 0.0000000e+00 -8.4427575e-04 
1.0844787e-04 0.0000000e+00 -8.4679568e-04 
1.0745662e-04 0.0000000e+00 -8.4916444e-04 
9.0023554e-05 0.0000000e+00 -8.5138209e-04 
5.2151849e-05 0.0000000e+00 -8.5344864e-04 
-1.0155331e-05 0.0000000e+00 -8.5536408e-04 
ROTATION 3 212  float
0.0000000e+00 -9.2703493e-05 0.0000000e+00 
0.0000000e+00 -9.0809393e-05 0.0000000e+00 
0.0000000e+00 -8.5127111e-05 0.0000000e+00 
0.0000000e+00 -7.5656637e-05 0.0000000e+00 
0.0000000e+00 -6.2397965e-05 0.0000000e+00 
0.0000000e+00 -4.5351109e-05 0.0000000e+00 
0.0000000e+00 -2.4516063e-05 0.0000000e+00 
0.0000000e+00 1.0717586e-07 0.0000000e+00 
0.0000000e+00 2.8518605e-05 0.0000000e+00 
0.0000000e+00 6.0718223e-05 0.0000000e+00 
0.0000000e+00 9.6706033e-05 0.0000000e+00 
0.0000000e+00 1.3648203e-04 0.0000000e+00 
0.0000000e+00 1.8004622e-04 0.0000000e+00 
0.0000000e+00 1.0760716e-04 0.0000000e+00 
0.0000000e+00 4.7395624e-05 0.0000000e+00 
0.0000000e+00 -5.8839174e-07 0.0000000e+00 
0.0000000e+00 -3.6344882e-05 0.0000000e+00 
0.0000000e+00 -5.9873848e-05 0.0000000e+00 
0.0000000e+00 -7.1175287e-05 0.0000000e+00 
0.0000000e+00 -7.0249203e-05 0.0000000e+00 
0.0000000e+00 -5.7095600e-05 0.0000000e+00 
0.0000000e+00 -3.1714466e-05 0.0000000e+00 
0.0000000e+00 5.8941882e-06 0.0000000e+00 
0.0000000e+00 5.5730368e-05 0.0000000e+00 
0.0000000e+00 1.1779407e-04 0.0000000e+00 
0.0000000e+00 6.1935003e-05 0.0000000e+00 
0.0000000e+00 1.6400456e-05 0.0000000e+00 
0.0000000e+00 -1.8809580e-05 0.0000000e+00 
0.0000000e+00 -4.3695101e-05 0.0000000e+00 
0.0000000e+00 -5.8256104e-05 0.0000000e+00 
0.0000000e+00 -6.2492596e-05 0.0000000e+00 
0.0000000e+00 -5.6404569e-05 0.0000000e+00 
0.0000000e+00 -3.9992032e-05 0.0000000e+00 
0.0000000e+00 -1.3254975e-05 0.0000000e+00 
0.0000000e+00 2.3806595e-05 0.0000000e+00 
0.0000000e+00 7.1192684e-05 0.0000000e+00 
0.0000000e+00 1.2890328e-04 0.0000000e+00 
0.0000000e+00 6.9002039e-05 0.0000000e+00 
0.0000000e+00 2.0098631e-05 0.0000000e+00 
0.0000000e+00 -1.7806940e-05 0.0000000e+00 
0.0000000e+00 -4.4714674e-05 0.0000000e+00 
0.0000000e+00 -6.0624567e-05 0.0000000e+00 
0.0000000e+00 -6.5536624e-05 0.0000000e+00 
0.0000000e+00 -5.9450846e-05 0.0000000e+00 
0.0000000e+00 -4.2367228e-05 0.0000000e+00 
0.0000000e+00 -1.4285774e-05 0.0000000e+00 
0.0000000e+00 2.4793519e-05 0.0000000e+00 
0.0000000e+00 7.4870644e-05 0.0000000e+00 
0.0000000e+00 1.3594562e-04 0.0000000e+00 
0.0000000e+00 7.9605335e-05 0.0000000e+00 
0.0000000e+00 3.2809057e-05 0.0000000e+00 
0.0000000e+00 -4.4432281e-06 0.0000000e+00 
0.0000000e+00 -3.2151518e-05 0.0000000e+00 
0.0000000e+00 -5.0315808e-05 0.0000000e+00 
0.0000000e+00 -5.8936104e-05 0.0000000e+00 
0.0000000e+00 -5.8012403e-05 0.0000000e+00 
0.0000000e+00 -4.7544705e-05 0.0000000e+00 
0.0000000e+00 -2.7533011e-05 0.0000000e+00 
0.0000000e+00 2.0226794e-06 0.0000000e+00 
0.0000000e+00 4.1122366e-05 0.0000000e+00 
0.0000000e+00 8.9766050e-05 0.0000000e+00 
0.0000000e+00 1.9640940e-05 0.0000000e+00 
0.0000000e+00 -3.4496836e-05 0.0000000e+00 
0.0000000e+00 -7.2647279e-05 0.0000000e+00 
0.0000000e+00 -9.4810384e-05 0.0000000e+00 
0.0000000e+00 -1.0098616e-04 0.0000000e+00 
0.0000000e+00 -9.1174603e-05 0.0000000e+00 
0.0000000e+00 -6.5375709e-05 0.0000000e+00 
0.0000000e+00 -2.3589479e-05 0.0000000e+00 
0.0000000e+00 3.4184082e-05 0.0000000e+00 
0.0000000e+00 1.0794498e-04 0.0000000e+00 
0.0000000e+00 1.9769321e-04 0.0000000e+00 
0.0000000e+00 3.0342877e-04 0.0000000e+00 
0.0000000e+00 3.6244359e-04 0.0000000e+00 
0.0000000e+00 3.1056680e-04 0.0000000e+00 
0.0000000e+00 3.1982447e-04 0.0000000e+00 
0.0000000e+00 3.2569308e-04 0.0000000e+00 
0.0000000e+00 2.8721010e-04 0.0000000e+00 
0.0000000e+00 4.6526239e-04 0.0000000e+00 
0.0000000e+00 4.2898365e-04 0.0000000e+00 
0.0000000e+00 3.8748220e-04 0.0000000e+00 
0.0000000e+00 3.9488834e-04 0.0000000e+00 
0.0000000e+00 3.9958322e-04 0.0000000e+00 
0.0000000e+00 3.6879687e-04 0.0000000e+00 
0.0000000e+00 5.1123870e-04 0.0000000e+00 
0.0000000e+00 4.0283785e-04 0.0000000e+00 
0.0000000e+00 3.7171177e-04 0.0000000e+00 
0.0000000e+00 3.7726638e-04 0.0000000e+00 
0.0000000e+00 3.8078753e-04 0.0000000e+00 
0.0000000e+00 3.5769775e-04 0.0000000e+00 
0.0000000e+00 4.6452912e-04 0.0000000e+00 
0.0000000e+00 3.0717766e-04 0.0000000e+00 
0.0000000e+00 2.8642695e-04 0.0000000e+00 
0.0000000e+00 2.9013003e-04 0.0000000e+00 
0.0000000e+00 2.9247746e-04 0.0000000e+00 
0.0000000e+00 2.7708427e-04 0.0000000e+00 
0.0000000e+00 3.4830518e-04 0.0000000e+00 
0.0000000e+00 1.6517457e-04 0.0000000e+00 
0.0000000e+00 1.5479920e-04 0.0000000e+00 
0.0000000e+00 1.5665074e-04 0.0000000e+00 
0.0000000e+00 1.5782447e-04 0.0000000e+00 
0.0000000e+00 1.5012787e-04 0.0000000e+00 
0.0000000e+00 1.8573832e-04 0.0000000e+00 
0.0000000e+00 -3.4684980e-17 0.0000000e+00 
0.0000000e+00 -8.6712450e-18 0.0000000e+00 
0.0000000e+00 1.0598189e-17 0.0000000e+00 
0.0000000e+00 3.8538866e-18 0.0000000e+00 
0.0000000e+00 -1.3488603e-17 0.0000000e+00 
0.0000000e+00 1.0794311e-17 0.0000000e+00 
0.0000000e+00 -1.6517457e-04 0.0000000e+00 
0.0000000e+00 -1.5479920e-04 0.0000000e+00 
0.0000000e+00 -1.5665074e-04 0.0000000e+00 
0.0000000e+00 -1.5782447e-04 0.0000000e+00 
0.0000000e+00 -1.5012787e-04 0.0000000e+00 
0.0000000e+00 -1.8573832e-04 0.0000000e+00 
0.0000000e+00 -3.0717766e-04 0.0000000e+00 
0.0000000e+00 -2.8642695e-04 0.0000000e+00 
0.0000000e+00 -2.9013003e-04 0.0000000e+00 
0.0000000e+00 -2.9247746e-04 0.0000000e+00 
0.0000000e+00 -2.7708427e-04 0.0000000e+00 
0.0000000e+00 -3.4830518e-04 0.0000000e+00 
0.0000000e+00 -4.0283785e-04 0.0000000e+00 
0.0000000e+00 -3.7171177e-04 0.0000000e+00 
0.0000000e+00 -3.7726638e-04 0.0000000e+00 
0.0000000e+00 -3.8078753e-04 0.0000000e+00 
0.0000000e+00 -3.5769775e-04 0.0000000e+00 
0.0000000e+00 -4.6452912e-04 0.0000000e+00 
0.0000000e+00 -4.2898365e-04 0.0000000e+00 
0.0000000e+00 -3.8748220e-04 0.0000000e+00 
0.0000000e+00 -3.9488834e-04 0.0000000e+00 
0.0000000e+00 -3.9958322e-04 0.0000000e+00 
0.0000000e+00 -3.6879687e-04 0.0000000e+00 
0.0000000e+00 -5.1123870e-04 0.0000000e+00 
0.0000000e+00 -3.6244359e-04 0.0000000e+00 
0.0000000e+00 -3.1056680e-04 0.0000000e+00 
0.0000000e+00 -3.1982447e-04 0.0000000e+00 
0.0000000e+00 -3.2569308e-04 0.0000000e+00 
0.0000000e+00 -2.8721010e-04 0.0000000e+00 
0.0000000e+00 -4.6526239e-04 0.0000000e+00 
0.0000000e+00 9.2703493e-05 0.0000000e+00 
0.0000000e+00 9.0809393e-05 0.0000000e+00 
0.0000000e+00 8.5127111e-05 0.0000000e+00 
0.0000000e+00 7.5656637e-05 0.0000000e+00 
0.0000000e+00 6.2397965e-05 0.0000000e+00 
0.0000000e+00 4.5351109e-05 0.0000000e+00 
0.0000000e+00 2.4516063e-05 0.0000000e+00 
0.0000000e+00 -1.0717586e-07 0.0000000e+00 
0.0000000e+00 -2.8518605e-05 0.0000000e+00 
0.0000000e+00 -6.0718223e-05 0.0000000e+00 
0.0000000e+00 -9.6706033e-05 0.0000000e+00 
0.0000000e+00 -1.3648203e-04 0.0000000e+00 
0.0000000e+00 -1.8004622e-04 0.0000000e+00 
0.0000000e+00 -1.0760716e-04 0.0000000e+00 
0.0000000e+00 -4.7395624e-05 0.0000000e+00 
0.0000000e+00 5.8839174e-07 0.0000000e+00 
0.0000000e+00 3.6344882e-05 0.0000000e+00 
0.0000000e+00 5.9873848e-05 0.0000000e+00 
0.0000000e+00 7.1175287e-05 0.0000000e+00 
0.0000000e+00 7.0249203e-05 0.0000000e+00 
0.0000000e+00 5.7095600e-05 0.0000000e+00 
0.0000000e+00 3.1714466e-05 0.0000000e+00 
0.0000000e+00 -5.8941882e-06 0.0000000e+00 
0.0000000e+00 -5.5730368e-05 0.0000000e+00 
0.0000000e+00 -1.1779407e-04 0.0000000e+00 
0.0000000e+00 -6.1935003e-05 0.0000000e+00 
0.0000000e+00 -1.6400456e-05 0.0000000e+00 
0.0000000e+00 1.8809580e-05 0.0000000e+00 
0.0000000e+00 4.3695101e-05 0.0000000e+00 
0.0000000e+00 5.8256104e-05 0.0000000e+00 
0.0000000e+00 6.2492596e-05 0.0000000e+00 
0.0000000e+00 5.6404569e-05 0.0000000e+00 
0.0000000e+00 3.9992032e-05 0.0000000e+00 
0.0000000e+00 1.3254975e-05 0.0000000e+00 
0.0000000e+00 -2.3806595e-05 0.0000000e+00 
0.0000000e+00 -7.1192684e-05 0.0000000e+00 
0.0000000e+00 -1.2890328e-04 0.0000000e+00 
0.0000000e+00 -6.9002039e-05 0.0000000e+00 
0.0000000e+00 -2.0098631e-05 0.0000000e+00 
0.0000000e+00 1.7806940e-05 0.0000000e+00 
0.0000000e+00 4.4714674e-05 0.0000000e+00 
0.0000000e+00 6.0624567e-05 0.0000000e+00 
0.0000000e+00 6.5536624e-05 0.0000000e+00 
0.0000000e+00 5.9450846e-05 0.0000000e+00 
0.0000000e+00 4.2367228e-05 0.0000000e+00 
0.0000000e+00 1.4285774e-05 0.0000000e+00 
0.0000000e+00 -2.4793519e-05 0.0000000e+00 
0.0000000e+00 -7.4870644e-05 0.0000000e+00 
0.0000000e+00 -1.3594562e-04 0.0000000e+00 
0.0000000e+00 -7.9605335e-05 0.0000000e+00 
0.0000000e+00 -3.2809057e-05 0.0000000e+00 
0.0000000e+00 4.4432281e-06 0.0000000e+00 
0.0000000e+00 3.2151518e-05 0.0000000e+00 
0.0000000e+00 5.0315808e-05 0.0000000e+00 
0.0000000e+00 5.8936104e-05 0.0000000e+00 
0.0000000e+00 5.8012403e-05 0.0000000e+00 
0.0000000e+00 4.7544705e-05 0.0000000e+00 
0.0000000e+00 2.7533011e-05 0.0000000e+00 
0.0000000e+00 -2.0226794e-06 0.0000000e+00 
0.0000000e+00 -4.1122366e-05 0.0000000e+00 
0.0000000e+00 -8.9766050e-05 0.0000000e+00 
0.0000000e+00 -1.9640940e-05 0.0000000e+00 
0.0000000e+00 3.4496836e-05 0.0000000e+00 
0.0000000e+00 7.2647279e-05 0.0000000e+00 
0.0000000e+00 9.4810384e-05 0.0000000e+00 