# vtk DataFile Version 4.0
vtk output
ASCII
DATASET UNSTRUCTURED_GRID
POINTS 30 float
0.0000000e+00 0.0000000e+00 0.0000000e+00 
0.0000000e+00 0.0000000e+00 8.0000001e-01 
0.0000000e+00 0.0000000e+00 1.6000000e+00 
0.0000000e+00 0.0000000e+00 2.4000001e+00 
0.0000000e+00 0.0000000e+00 3.2000000e+00 
0.0000000e+00 0.0000000e+00 4.0000000e+00 
0.0000000e+00 0.0000000e+00 4.8000002e+00 
0.0000000e+00 0.0000000e+00 5.5999999e+00 
0.0000000e+00 0.0000000e+00 6.4000001e+00 
0.0000000e+00 0.0000000e+00 7.1999998e+00 
0.0000000e+00 0.0000000e+00 8.0000000e+00 
1.0000000e+01 0.0000000e+00 0.0000000e+00 
1.0000000e+01 0.0000000e+00 8.0000001e-01 
1.0000000e+01 0.0000000e+00 1.6000000e+00 
1.0000000e+01 0.0000000e+00 2.4000001e+00 
1.0000000e+01 0.0000000e+00 3.2000000e+00 
1.0000000e+01 0.0000000e+00 4.0000000e+00 
1.0000000e+01 0.0000000e+00 4.8000002e+00 
1.0000000e+01 0.0000000e+00 5.5999999e+00 
1.0000000e+01 0.0000000e+00 6.4000001e+00 
1.0000000e+01 0.0000000e+00 7.1999998e+00 
1.0000000e+01 0.0000000e+00 8.0000000e+00 
2.0000000e+00 0.0000000e+00 4.0000000e+00 
4.0000000e+00 0.0000000e+00 4.0000000e+00 
6.0000000e+00 0.0000000e+00 4.0000000e+00 
8.0000000e+00 0.0000000e+00 4.0000000e+00 
2.0000000e+00 0.0000000e+00 8.0000000e+00 
4.0000000e+00 0.0000000e+00 8.0000000e+00 
6.0000000e+00 0.0000000e+00 8.0000000e+00 
8.0000000e+00 0.0000000e+00 8.0000000e+00 

CELLS 30 90
2 0 1
2 1 2
2 2 3
2 3 4
2 4 5
2 5 6
2 6 7
2 7 8
2 8 9
2 9 10
2 11 12
2 12 13
2 13 14
2 14 15
2 15 16
2 16 17
2 17 18
2 18 19
2 19 20
2 20 21
2 5 22
2 22 23
2 23 24
2 24 25
2 25 16
2 10 26
2 26 27
2 27 28
2 28 29
2 29 21

CELL_TYPES 30
3
3
3
3
3
3
3
3
3
3
3
3
3
3
3
3
3
3
3
3
3
3
3
3
3
3
3
3
3
3
POINT_DATA 30
FIELD FieldData 7
DISPLACEMENT 3 30  float
0.0000000e+00 0.0000000e+00 0.0000000e+00 
8.4111938e-04 0.0000000e+00 -7.5892071e-06 
1.6641226e-03 0.0000000e+00 -1.5178414e-05 
2.4458694e-03 0.0000000e+00 -2.2333776e-05 
3.1431243e-03 0.0000000e+00 -2.9489136e-05 
3.7076273e-03 0.0000000e+00 -3.6644495e-05 
3.9903880e-03 0.0000000e+00 -4.3534292e-05 
3.9547281e-03 0.0000000e+00 -4.8158043e-05 
3.7760688e-03 0.0000000e+00 -5.2781794e-05 
3.6315378e-03 0.0000000e+00 -5.6037752e-05 
3.6209007e-03 0.0000000e+00 -5.7944864e-05 
0.0000000e+00 0.0000000e+00 0.0000000e+00 
9.9499570e-04 0.0000000e+00 -1.3741581e-05 
1.9611591e-03 0.0000000e+00 -2.5906547e-05 
2.8126412e-03 0.0000000e+00 -3.8071514e-05 
3.4493399e-03 0.0000000e+00 -5.0236478e-05 
3.7841587e-03 0.0000000e+00 -6.3924323e-05 
4.0118182e-03 0.0000000e+00 -7.2972834e-05 
4.2105857e-03 0.0000000e+00 -7.8458084e-05 
4.2170379e-03 0.0000000e+00 -8.6751606e-05 
3.9957128e-03 0.0000000e+00 -9.1372633e-05 
3.6370424e-03 0.0000000e+00 -9.5993666e-05 
3.7181275e-03 0.0000000e+00 -1.6114044e-03 
3.7341060e-03 0.0000000e+00 -2.5523272e-03 
3.7530751e-03 0.0000000e+00 -2.0483471e-03 
3.7720441e-03 0.0000000e+00 -7.7493116e-04 
3.6220574e-03 0.0000000e+00 -4.1934947e-04 
3.6238418e-03 0.0000000e+00 -7.1061519e-04 
3.6207915e-03 0.0000000e+00 -1.1070827e-03 
3.6248604e-03 0.0000000e+00 -9.5754582e-04 
ROTATION 3 30  float
0.0000000e+00 1.0551735e-03 0.0000000e+00 
0.0000000e+00 1.0438508e-03 0.0000000e+00 
0.0000000e+00 1.0098829e-03 0.0000000e+00 
0.0000000e+00 9.3443017e-04 0.0000000e+00 
0.0000000e+00 7.9865282e-04 0.0000000e+00 
0.0000000e+00 6.0255092e-04 0.0000000e+00 
0.0000000e+00 1.2446467e-04 0.0000000e+00 
0.0000000e+00 -1.7378206e-04 0.0000000e+00 
0.0000000e+00 -2.3303366e-04 0.0000000e+00 
0.0000000e+00 -1.0604707e-04 0.0000000e+00 
0.0000000e+00 7.5341217e-05 0.0000000e+00 
0.0000000e+00 1.2467817e-03 0.0000000e+00 
0.0000000e+00 1.2376703e-03 0.0000000e+00 
0.0000000e+00 1.1568833e-03 0.0000000e+00 
0.0000000e+00 9.5096778e-04 0.0000000e+00 
0.0000000e+00 6.1992381e-04 0.0000000e+00 
0.0000000e+00 2.1252768e-04 0.0000000e+00 
0.0000000e+00 3.0895008e-04 0.0000000e+00 
0.0000000e+00 1.5077335e-04 0.0000000e+00 
0.0000000e+00 -1.4246930e-04 0.0000000e+00 
0.0000000e+00 -3.8667023e-04 0.0000000e+00 
0.0000000e+00 -4.8583260e-04 0.0000000e+00 
0.0000000e+00 7.6683285e-04 0.0000000e+00 
0.0000000e+00 1.0364165e-04 0.0000000e+00 
0.0000000e+00 -5.2598544e-04 0.0000000e+00 
0.0000000e+00 -6.6579407e-04 0.0000000e+00 
0.0000000e+00 1.8011285e-04 0.0000000e+00 
0.0000000e+00 1.8321286e-04 0.0000000e+00 
0.0000000e+00 1.1863556e-04 0.0000000e+00 
0.0000000e+00 -2.8735911e-04 0.0000000e+00 
REACTION 3 30  float
-1.1145709e+03 -0.0000000e+00 1.9921670e+04 
-5.8207661e-11 -0.0000000e+00 -0.0000000e+00 
1.0186341e-10 -0.0000000e+00 -0.0000000e+00 
-8.7311491e-11 -0.0000000e+00 -7.2759576e-12 
2.9103830e-10 -0.0000000e+00 1.4551915e-11 
-1.9645086e-10 -0.0000000e+00 -5.4569682e-11 
-1.8408173e-09 -0.0000000e+00 -2.2737368e-10 
1.8189894e-10 -0.0000000e+00 -2.9103830e-11 
1.3405952e-09 -0.0000000e+00 5.6388672e-11 
9.0949470e-12 -0.0000000e+00 3.6379788e-12 
-4.9476512e-10 -0.0000000e+00 -0.0000000e+00 
-8.9690381e+02 -0.0000000e+00 3.6071648e+04 
-4.2746251e-11 -0.0000000e+00 7.2759576e-12 
5.2386895e-10 -0.0000000e+00 -0.0000000e+00 
-2.0372681e-10 -0.0000000e+00 -0.0000000e+00 
-7.7852746e-10 -0.0000000e+00 -2.9103830e-11 
-1.1787051e-09 -0.0000000e+00 -9.6952135e-10 
-1.4551915e-10 -0.0000000e+00 1.2732926e-11 
2.0554580e-10 -0.0000000e+00 -4.0017767e-11 
-5.6752469e-10 -0.0000000e+00 1.0913936e-11 
-0.0000000e+00 -0.0000000e+00 -0.0000000e+00 
1.0222720e-09 -0.0000000e+00 9.3677954e-11 
-5.4569682e-11 -0.0000000e+00 3.9108272e-10 
2.9831426e-10 -0.0000000e+00 3.0013325e-11 
-0.0000000e+00 -0.0000000e+00 5.0931703e-11 
1.6189006e-09 -0.0000000e+00 4.9112714e-11 
7.0212991e-10 -0.0000000e+00 -0.0000000e+00 
-1.0923031e-09 -0.0000000e+00 -1.8189894e-12 
-1.2732926e-10 -0.0000000e+00 2.4056135e-10 
4.4929038e-10 -0.0000000e+00 -7.2759576e-12 
REACTION_MOMENT 3 30  float
-0.0000000e+00 -0.0000000e+00 -0.0000000e+00 
-0.0000000e+00 -0.0000000e+00 -0.0000000e+00 
-0.0000000e+00 4.9476512e-10 -0.0000000e+00 
-0.0000000e+00 -1.1641532e-10 -0.0000000e+00 
-0.0000000e+00 1.0040822e-09 -0.0000000e+00 
-0.0000000e+00 1.1787051e-09 -0.0000000e+00 
-0.0000000e+00 8.2945917e-10 -0.0000000e+00 
-0.0000000e+00 -4.4019544e-10 -0.0000000e+00 
-0.0000000e+00 -1.2914825e-10 -0.0000000e+00 
-0.0000000e+00 1.9917934e-10 -0.0000000e+00 
-0.0000000e+00 -1.0913936e-11 -0.0000000e+00 
-0.0000000e+00 -4.3655746e-11 -0.0000000e+00 
-0.0000000e+00 2.9103830e-11 -0.0000000e+00 
-0.0000000e+00 -8.7311491e-11 -0.0000000e+00 
-0.0000000e+00 -1.8917490e-10 -0.0000000e+00 
-0.0000000e+00 1.8189894e-10 -0.0000000e+00 
-0.0000000e+00 1.0186341e-10 -0.0000000e+00 
-0.0000000e+00 1.6370905e-10 -0.0000000e+00 
-0.0000000e+00 4.1472958e-10 -0.0000000e+00 
-0.0000000e+00 -3.4560799e-10 -0.0000000e+00 
-0.0000000e+00 -2.5465852e-10 -0.0000000e+00 
-0.0000000e+00 -1.3824319e-10 -0.0000000e+00 
-0.0000000e+00 1.6552804e-10 -0.0000000e+00 
-0.0000000e+00 1.4551915e-11 -0.0000000e+00 
-0.0000000e+00 3.6379788e-12 -0.0000000e+00 
-0.0000000e+00 1.7280399e-11 -0.0000000e+00 
-0.0000000e+00 -2.7284841e-12 -0.0000000e+00 
-0.0000000e+00 -8.1854523e-12 -0.0000000e+00 
-0.0000000e+00 -0.0000000e+00 -0.0000000e+00 
-0.0000000e+00 -0.0000000e+00 -0.0000000e+00 
VOLUME_ACCELERATION 3 30  float
0.0000000e+00 0.0000000e+00 0.0000000e+00 
0.0000000e+00 0.0000000e+00 0.0000000e+00 
0.0000000e+00 0.0000000e+00 0.0000000e+00 
0.0000000e+00 0.0000000e+00 0.0000000e+00 
0.0000000e+00 0.0000000e+00 0.0000000e+00 
0.0000000e+00 0.0000000e+00 0.0000000e+00 
0.0000000e+00 0.0000000e+00 0.0000000e+00 
0.0000000e+00 0.0000000e+00 0.0000000e+00 
0.0000000e+00 0.0000000e+00 0.0000000e+00 
0.0000000e+00 0.0000000e+00 0.0000000e+00 
0.0000000e+00 0.0000000e+00 0.0000000e+00 
0.0000000e+00 0.0000000e+00 0.0000000e+00 
0.0000000e+00 0.0000000e+00 0.0000000e+00 
0.0000000e+00 0.0000000e+00 0.0000000e+00 
0.0000000e+00 0.0000000e+00 0.0000000e+00 
0.0000000e+00 0.0000000e+00 0.0000000e+00 
0.0000000e+00 0.0000000e+00 0.0000000e+00 
0.0000000e+00 0.0000000e+00 0.0000000e+00 
0.0000000e+00 0.0000000e+00 0.0000000e+00 
0.0000000e+00 0.0000000e+00 0.0000000e+00 
0.0000000e+00 0.0000000e+00 0.0000000e+00 
0.0000000e+00 0.0000000e+00 0.0000000e+00 
0.0000000e+00 0.0000000e+00 0.0000000e+00 
0.0000000e+00 0.0000000e+00 0.0000000e+00 
0.0000000e+00 0.0000000e+00 0.0000000e+00 
0.0000000e+00 0.0000000e+00 0.0000000e+00 
0.0000000e+00 0.0000000e+00 0.0000000e+00 
0.0000000e+00 0.0000000e+00 0.0000000e+00 
0.0000000e+00 0.0000000e+00 0.0000000e+00 
0.0000000e+00 0.0000000e+00 0.0000000e+00 
POINT_LOAD 3 30  float
0.0000000e+00 0.0000000e+00 0.0000000e+00 
0.0000000e+00 0.0000000e+00 0.0000000e+00 
-1.8545284e+03 0.0000000e+00 -1.1388477e+03 
0.0000000e+00 0.0000000e+00 0.0000000e+00 
0.0000000e+00 0.0000000e+00 0.0000000e+00 
-2.1160842e+03 0.0000000e+00 9.0069150e+03 
5.8231289e+03 0.0000000e+00 -5.9483726e+03 
0.0000000e+00 0.0000000e+00 0.0000000e+00 
-5.1932578e+03 0.0000000e+00 -3.5904536e+03 
-7.7844009e+03 0.0000000e+00 -3.5407283e+03 
0.0000000e+00 0.0000000e+00 0.0000000e+00 
0.0000000e+00 0.0000000e+00 0.0000000e+00 
-5.2617627e+03 0.0000000e+00 -4.1386128e+03 
0.0000000e+00 0.0000000e+00 0.0000000e+00 
0.0000000e+00 0.0000000e+00 0.0000000e+00 
4.8014199e+03 0.0000000e+00 3.9975435e+03 
0.0000000e+00 0.0000000e+00 0.0000000e+00 
3.0931440e+03 0.0000000e+00 -9.3535654e+03 
8.6734092e+03 0.0000000e+00 7.3717197e+03 
9.4496865e+03 0.0000000e+00 -9.6402939e+03 
0.0000000e+00 0.0000000e+00 0.0000000e+00 
5.6524854e+03 0.0000000e+00 -7.9551758e+03 
-5.7524009e+03 0.0000000e+00 -6.3753340e+03 
-3.1400017e+03 0.0000000e+00 -7.1860044e+03 
0.0000000e+00 0.0000000e+00 0.0000000e+00 
7.1971211e+03 0.0000000e+00 -8.3209150e+03 
-6.5899042e+02 0.0000000e+00 -8.4109990e+03 
5.0764019e+03 0.0000000e+00 7.8755884e+03 
-7.4751147e+03 0.0000000e+00 -3.5641821e+03 
-8.5187803e+03 0.0000000e+00 -5.0816006e+03 
POINT_MOMENT 3 30  float
0.0000000e+00 0.0000000e+00 0.0000000e+00 
0.0000000e+00 0.0000000e+00 0.0000000e+00 
0.0000000e+00 0.0000000e+00 0.0000000e+00 
0.0000000e+00 0.0000000e+00 0.0000000e+00 
0.0000000e+00 0.0000000e+00 0.0000000e+00 
0.0000000e+00 0.0000000e+00 0.0000000e+00 
0.0000000e+00 0.0000000e+00 0.0000000e+00 
0.0000000e+00 0.0000000e+00 0.0000000e+00 
0.0000000e+00 0.0000000e+00 0.0000000e+00 
0.0000000e+00 0.0000000e+00 0.0000000e+00 
0.0000000e+00 0.0000000e+00 0.0000000e+00 
0.0000000e+00 0.0000000e+00 0.0000000e+00 
0.0000000e+00 0.0000000e+00 0.0000000e+00 
0.0000000e+00 0.0000000e+00 0.0000000e+00 
0.0000000e+00 0.0000000e+00 0.0000000e+00 
0.0000000e+00 0.0000000e+00 0.0000000e+00 
0.0000000e+00 0.0000000e+00 0.0000000e+00 
0.0000000e+00 0.0000000e+00 0.0000000e+00 
0.0000000e+00 0.0000000e+00 0.0000000e+00 
0.0000000e+00 0.0000000e+00 0.0000000e+00 
0.0000000e+00 0.0000000e+00 0.0000000e+00 
0.0000000e+00 0.0000000e+00 0.0000000e+00 
0.0000000e+00 0.0000000e+00 0.0000000e+00 
0.0000000e+00 0.0000000e+00 0.0000000e+00 
0.0000000e+00 0.0000000e+00 0.0000000e+00 
0.0000000e+00 0.0000000e+00 0.0000000e+00 
0.0000000e+00 0.0000000e+00 0.0000000e+00 
0.0000000e+00 0.0000000e+00 0.0000000e+00 
0.0000000e+00 0.0000000e+00 0.0000000e+00 
0.0000000e+00 0.0000000e+00 0.0000000e+00 
CELL_DATA 30
FIELD FieldData 9
YOUNG_MODULUS 1 30  float
2.1000000e+11
2.1000000e+11
2.1000000e+11
2.1000000e+11
2.1000000e+11
2.1000000e+11
2.1000000e+11
2.1000000e+11
2.1000000e+11
2.1000000e+11
2.1000000e+11
2.1000000e+11
2.1000000e+11
2.1000000e+11
2.1000000e+11
2.1000000e+11
2.1000000e+11
2.1000000e+11
2.1000000e+11
2.1000000e+11
2.1000000e+11
2.1000000e+11
2.1000000e+11
2.1000000e+11
2.1000000e+11
2.1000000e+11
2.1000000e+11
2.1000000e+11
2.1000000e+11
2.1000000e+11
DENSITY 1 30  float
7.8500000e+03
7.8500000e+03
7.8500000e+03
7.8500000e+03
7.8500000e+03
7.8500000e+03
7.8500000e+03
7.8500000e+03
7.8500000e+03
7.8500000e+03
7.8500000e+03
7.8500000e+03
7.8500000e+03
7.8500000e+03
7.8500000e+03
7.8500000e+03
7.8500000e+03
7.8500000e+03
7.8500000e+03
7.8500000e+03
7.8500000e+03
7.8500000e+03
7.8500000e+03
7.8500000e+03
7.8500000e+03
7.8500000e+03
7.8500000e+03
7.8500000e+03
7.8500000e+03
7.8500000e+03
CROSS_AREA 1 30  float
9.9999998e-03
9.9999998e-03
9.9999998e-03
9.9999998e-03
9.9999998e-03
9.9999998e-03
9.9999998e-03
9.9999998e-03
9.9999998e-03
9.9999998e-03
9.9999998e-03
9.9999998e-03
9.9999998e-03
9.9999998e-03
9.9999998e-03
9.9999998e-03
9.9999998e-03
9.9999998e-03
9.9999998e-03
9.9999998e-03
9.9999998e-03
9.9999998e-03
9.9999998e-03
9.9999998e-03
9.9999998e-03
9.9999998e-03
9.9999998e-03
9.9999998e-03
9.9999998e-03
9.9999998e-03
I22 1 30  float
1.5000001e-04
1.5000001e-04
1.5000001e-04
1.5000001e-04
1.5000001e-04
1.5000001e-04
1.5000001e-04
1.5000001e-04
1.5000001e-04
1.5000001e-04
1.5000001e-04
1.5000001e-04
1.5000001e-04
1.5000001e-04
1.5000001e-04
1.5000001e-04
1.5000001e-04
1.5000001e-04
1.5000001e-04
1.5000001e-04
1.5000001e-04
1.5000001e-04
1.5000001e-04
1.5000001e-04
1.5000001e-04
1.5000001e-04
1.5000001e-04
1.5000001e-04
1.5000001e-04
1.5000001e-04
I33 1 30  float
1.5000001e-04
1.5000001e-04
1.5000001e-04
1.5000001e-04
1.5000001e-04
1.5000001e-04
1.5000001e-04
1.5000001e-04
1.5000001e-04
1.5000001e-04
1.5000001e-04
1.5000001e-04
1.5000001e-04
1.5000001e-04
1.5000001e-04
1.5000001e-04
1.5000001e-04
1.5000001e-04
1.5000001e-04
1.5000001e-04
1.5000001e-04
1.5000001e-04
1.5000001e-04
1.5000001e-04
1.5000001e-04
1.5000001e-04
1.5000001e-04
1.5000001e-04
1.5000001e-04
1.5000001e-04
TORSIONAL_INERTIA 1 30  float
3.0000001e-04
3.0000001e-04
3.0000001e-04
3.0000001e-04
3.0000001e-04
3.0000001e-04
3.0000001e-04
3.0000001e-04
3.0000001e-04
3.0000001e-04
3.0000001e-04
3.0000001e-04
3.0000001e-04
3.0000001e-04
3.0000001e-04
3.0000001e-04
3.0000001e-04
3.0000001e-04
3.0000001e-04
3.0000001e-04
3.0000001e-04
3.0000001e-04
3.0000001e-04
3.0000001e-04
3.0000001e-04
3.0000001e-04
3.0000001e-04
3.0000001e-04
3.0000001e-04
3.0000001e-04
POISSON_RATIO 1 30  float
3.0000001e-01
3.0000001e-01
3.0000001e-01
3.0000001e-01
3.0000001e-01
3.0000001e-01
3.0000001e-01
3.0000001e-01
3.0000001e-01
3.0000001e-01
3.0000001e-01
3.0000001e-01
3.0000001e-01
3.0000001e-01
3.0000001e-01
3.0000001e-01
3.0000001e-01
3.0000001e-01
3.0000001e-01
3.0000001e-01
3.0000001e-01
3.0000001e-01
3.0000001e-01
3.0000001e-01
3.0000001e-01
3.0000001e-01
3.0000001e-01
3.0000001e-01
3.0000001e-01
3.0000001e-01
MOMENT 3 30  float
0.0000000e+00 -4.4582837e+02 0.0000000e+00 
0.0000000e+00 -1.3374851e+03 0.0000000e+00 
0.0000000e+00 -2.9709531e+03 0.0000000e+00 
0.0000000e+00 -5.3462324e+03 0.0000000e+00 
0.0000000e+00 -7.7215122e+03 0.0000000e+00 
0.0000000e+00 -1.8824646e+04 0.0000000e+00 
0.0000000e+00 -1.1743465e+04 0.0000000e+00 
0.0000000e+00 -2.3330322e+03 0.0000000e+00 
0.0000000e+00 5.0000972e+03 0.0000000e+00 
0.0000000e+00 7.1421636e+03 0.0000000e+00 
0.0000000e+00 -3.5876154e+02 0.0000000e+00 
0.0000000e+00 -3.1809897e+03 0.0000000e+00 
0.0000000e+00 -8.1079229e+03 0.0000000e+00 
0.0000000e+00 -1.3034856e+04 0.0000000e+00 
0.0000000e+00 -1.6041222e+04 0.0000000e+00 
0.0000000e+00 3.7966323e+03 0.0000000e+00 
0.0000000e+00 -6.2282090e+03 0.0000000e+00 
0.0000000e+00 -1.1546430e+04 0.0000000e+00 
0.0000000e+00 -9.6154111e+03 0.0000000e+00 
0.0000000e+00 -3.9045186e+03 0.0000000e+00 
0.0000000e+00 2.5874407e+03 0.0000000e+00 
0.0000000e+00 -1.0445262e+04 0.0000000e+00 
0.0000000e+00 -9.9166260e+03 0.0000000e+00 
0.0000000e+00 -2.2019866e+03 0.0000000e+00 
0.0000000e+00 1.3833567e+04 0.0000000e+00 
0.0000000e+00 1.6501532e+03 0.0000000e+00 
0.0000000e+00 4.8825123e+01 0.0000000e+00 
0.0000000e+00 -1.0170925e+03 0.0000000e+00 
0.0000000e+00 -6.3944160e+03 0.0000000e+00 
0.0000000e+00 -3.1259573e+03 0.0000000e+00 
FORCE 3 30  float
-1.9921670e+04 0.0000000e+00 -1.1145709e+03 
-1.9921670e+04 0.0000000e+00 -1.1145709e+03 
-1.8782822e+04 0.0000000e+00 -2.9690994e+03 
-1.8782822e+04 0.0000000e+00 -2.9690994e+03 
-1.8782822e+04 0.0000000e+00 -2.9690994e+03 
-1.8085719e+04 0.0000000e+00 5.9399121e+03 
-1.2137346e+04 0.0000000e+00 1.1763041e+04 
-1.2137346e+04 0.0000000e+00 1.1763041e+04 
-8.5468916e+03 0.0000000e+00 6.5697832e+03 
-5.0061636e+03 0.0000000e+00 -1.2146176e+03 
-3.6071648e+04 0.0000000e+00 -8.9690381e+02 
-3.1933037e+04 0.0000000e+00 -6.1586665e+03 
-3.1933037e+04 0.0000000e+00 -6.1586665e+03 
-3.1933037e+04 0.0000000e+00 -6.1586665e+03 
-3.5930578e+04 0.0000000e+00 -1.3572468e+03 
-2.3752346e+04 0.0000000e+00 -1.4077624e+04 
-1.4398780e+04 0.0000000e+00 -1.0984479e+04 
-2.1770500e+04 0.0000000e+00 -2.3110708e+03 
-1.2130205e+04 0.0000000e+00 7.1386162e+03 
-1.2130205e+04 0.0000000e+00 7.1386162e+03 
1.1025096e+04 0.0000000e+00 -9.7040186e+03 
1.6777496e+04 0.0000000e+00 -3.3286843e+03 
1.9917498e+04 0.0000000e+00 3.8573198e+03 
1.9917498e+04 0.0000000e+00 3.8573198e+03 
1.2720377e+04 0.0000000e+00 1.2178234e+04 
1.2146176e+03 0.0000000e+00 -5.0061636e+03 
1.8736079e+03 0.0000000e+00 3.4048354e+03 
-3.2027942e+03 0.0000000e+00 -4.4707529e+03 
4.2723208e+03 0.0000000e+00 -9.0657080e+02 
1.2791102e+04 0.0000000e+00 4.1750298e+03 
