# vtk DataFile Version 4.0
vtk output
ASCII
DATASET UNSTRUCTURED_GRID
POINTS 22 float
0.0000000e+00 0.0000000e+00 0.0000000e+00 
1.0000000e-01 0.0000000e+00 0.0000000e+00 
2.0000000e-01 0.0000000e+00 0.0000000e+00 
3.0000001e-01 0.0000000e+00 0.0000000e+00 
4.0000001e-01 0.0000000e+00 0.0000000e+00 
5.0000000e-01 0.0000000e+00 0.0000000e+00 
6.0000002e-01 0.0000000e+00 0.0000000e+00 
6.9999999e-01 0.0000000e+00 0.0000000e+00 
8.0000001e-01 0.0000000e+00 0.0000000e+00 
8.9999998e-01 0.0000000e+00 0.0000000e+00 
1.0000000e+00 0.0000000e+00 0.0000000e+00 
1.1000000e+00 0.0000000e+00 0.0000000e+00 
1.2000000e+00 0.0000000e+00 0.0000000e+00 
1.3000000e+00 0.0000000e+00 0.0000000e+00 
1.4000000e+00 0.0000000e+00 0.0000000e+00 
1.5000000e+00 0.0000000e+00 0.0000000e+00 
1.6000000e+00 0.0000000e+00 0.0000000e+00 
1.7000000e+00 0.0000000e+00 0.0000000e+00 
1.7000000e+00 0.0000000e+00 0.0000000e+00 
1.8000000e+00 0.0000000e+00 0.0000000e+00 
1.9000000e+00 0.0000000e+00 0.0000000e+00 
2.0000000e+00 0.0000000e+00 0.0000000e+00 

CELLS 20 60
2 0 1
2 1 2
2 2 3
2 3 4
2 4 5
2 5 6
2 6 7
2 7 8
2 8 9
2 9 10
2 10 11
2 11 12
2 12 13
2 13 14
2 14 15
2 15 16
2 16 17
2 18 19
2 19 20
2 20 21

CELL_TYPES 20
3
3
3
3
3
3
3
3
3
3
3
3
3
3
3
3
3
3
3
3
POINT_DATA 22
FIELD FieldData 4
DISPLACEMENT 3 22  float
0.0000000e+00 0.0000000e+00 0.0000000e+00 
0.0000000e+00 2.5750000e-03 0.0000000e+00 
0.0000000e+00 9.6000005e-03 0.0000000e+00 
0.0000000e+00 2.0025000e-02 0.0000000e+00 
0.0000000e+00 3.2800000e-02 0.0000000e+00 
0.0000000e+00 4.6875000e-02 0.0000000e+00 
0.0000000e+00 6.1200000e-02 0.0000000e+00 
0.0000000e+00 7.4725002e-02 0.0000000e+00 
0.0000000e+00 8.6400002e-02 0.0000000e+00 
0.0000000e+00 9.5174998e-02 0.0000000e+00 
0.0000000e+00 1.0000000e-01 0.0000000e+00 
0.0000000e+00 9.9825002e-02 0.0000000e+00 
0.0000000e+00 9.3599997e-02 0.0000000e+00 
0.0000000e+00 8.0274999e-02 0.0000000e+00 
0.0000000e+00 5.8800001e-02 0.0000000e+00 
0.0000000e+00 2.8124999e-02 0.0000000e+00 
0.0000000e+00 -1.2800000e-02 0.0000000e+00 
0.0000000e+00 -6.5025002e-02 0.0000000e+00 
0.0000000e+00 -6.5025002e-02 0.0000000e+00 
0.0000000e+00 -2.9600000e-02 0.0000000e+00 
0.0000000e+00 -7.5750002e-03 0.0000000e+00 
0.0000000e+00 0.0000000e+00 0.0000000e+00 
ROTATION 3 22  float
0.0000000e+00 0.0000000e+00 0.0000000e+00 
0.0000000e+00 0.0000000e+00 4.9750000e-02 
0.0000000e+00 0.0000000e+00 8.9000002e-02 
0.0000000e+00 0.0000000e+00 1.1775000e-01 
0.0000000e+00 0.0000000e+00 1.3600001e-01 
0.0000000e+00 0.0000000e+00 1.4375000e-01 
0.0000000e+00 0.0000000e+00 1.4100000e-01 
0.0000000e+00 0.0000000e+00 1.2774999e-01 
0.0000000e+00 0.0000000e+00 1.0400000e-01 
0.0000000e+00 0.0000000e+00 6.9750004e-02 
0.0000000e+00 0.0000000e+00 2.5000000e-02 
0.0000000e+00 0.0000000e+00 -3.0250000e-02 
0.0000000e+00 0.0000000e+00 -9.6000001e-02 
0.0000000e+00 0.0000000e+00 -1.7225000e-01 
0.0000000e+00 0.0000000e+00 -2.5900000e-01 
0.0000000e+00 0.0000000e+00 -3.5624999e-01 
0.0000000e+00 0.0000000e+00 -4.6399999e-01 
0.0000000e+00 0.0000000e+00 -5.8225000e-01 
0.0000000e+00 0.0000000e+00 4.1775000e-01 
0.0000000e+00 0.0000000e+00 2.8900000e-01 
0.0000000e+00 0.0000000e+00 1.4974999e-01 
0.0000000e+00 0.0000000e+00 0.0000000e+00 
REACTION 3 22  float
-0.0000000e+00 -1.1025000e+06 0.0000000e+00 
-0.0000000e+00 7.4505806e-09 0.0000000e+00 
-0.0000000e+00 -2.9802322e-08 0.0000000e+00 
-0.0000000e+00 1.4901161e-08 0.0000000e+00 
-0.0000000e+00 -8.9406967e-08 0.0000000e+00 
-0.0000000e+00 2.9802322e-08 0.0000000e+00 
-0.0000000e+00 -5.9604645e-08 0.0000000e+00 
-0.0000000e+00 3.2037497e-07 0.0000000e+00 
-0.0000000e+00 -2.6822090e-07 0.0000000e+00 
-0.0000000e+00 3.0361116e-07 0.0000000e+00 
-0.0000000e+00 -3.5390258e-08 0.0000000e+00 
-0.0000000e+00 3.5762787e-07 0.0000000e+00 
-0.0000000e+00 -7.4505806e-09 0.0000000e+00 
-0.0000000e+00 1.6391277e-07 0.0000000e+00 
-0.0000000e+00 2.6822090e-07 0.0000000e+00 
-0.0000000e+00 -1.1920929e-07 0.0000000e+00 
-0.0000000e+00 -5.9604645e-08 0.0000000e+00 
-0.0000000e+00 1.1025000e+06 0.0000000e+00 
-0.0000000e+00 -1.1025000e+06 0.0000000e+00 
-0.0000000e+00 -8.9406967e-08 0.0000000e+00 
-0.0000000e+00 5.9604645e-08 0.0000000e+00 
-0.0000000e+00 1.1025000e+06 0.0000000e+00 
REACTION_MOMENT 3 22  float
0.0000000e+00 0.0000000e+00 -5.7750000e+05 
0.0000000e+00 0.0000000e+00 -0.0000000e+00 
0.0000000e+00 0.0000000e+00 -4.6566129e-10 
0.0000000e+00 0.0000000e+00 -3.2596290e-09 
0.0000000e+00 0.0000000e+00 3.7252903e-09 
0.0000000e+00 0.0000000e+00 1.3969839e-09 
0.0000000e+00 0.0000000e+00 -3.2596290e-09 
0.0000000e+00 0.0000000e+00 6.9849193e-09 
0.0000000e+00 0.0000000e+00 1.1874363e-08 
0.0000000e+00 0.0000000e+00 7.3341653e-09 
0.0000000e+00 0.0000000e+00 -5.8207661e-10 
0.0000000e+00 0.0000000e+00 -1.7695129e-08 
0.0000000e+00 0.0000000e+00 -1.2107193e-08 
0.0000000e+00 0.0000000e+00 -1.1175871e-08 
0.0000000e+00 0.0000000e+00 -0.0000000e+00 
0.0000000e+00 0.0000000e+00 9.3132257e-09 
0.0000000e+00 0.0000000e+00 -5.5879354e-09 
-0.0000000e+00 -0.0000000e+00 -1.2967500e+06 
0.0000000e+00 0.0000000e+00 1.2967500e+06 
0.0000000e+00 0.0000000e+00 -1.0244548e-08 
0.0000000e+00 0.0000000e+00 -1.8626451e-09 
0.0000000e+00 0.0000000e+00 -1.6275000e+06 
CELL_DATA 20
FIELD FieldData 2
MOMENT 3 20  float
0.0000000e+00 0.0000000e+00 -5.2237500e+05 
0.0000000e+00 0.0000000e+00 -4.1212500e+05 
0.0000000e+00 0.0000000e+00 -3.0187500e+05 
0.0000000e+00 0.0000000e+00 -1.9162500e+05 
0.0000000e+00 0.0000000e+00 -8.1375000e+04 
0.0000000e+00 0.0000000e+00 2.8875000e+04 
0.0000000e+00 0.0000000e+00 1.3912500e+05 
0.0000000e+00 0.0000000e+00 2.4937500e+05 
0.0000000e+00 0.0000000e+00 3.5962500e+05 
0.0000000e+00 0.0000000e+00 4.6987500e+05 
0.0000000e+00 0.0000000e+00 5.8012500e+05 
0.0000000e+00 0.0000000e+00 6.9037500e+05 
0.0000000e+00 0.0000000e+00 8.0062500e+05 
0.0000000e+00 0.0000000e+00 9.1087500e+05 
0.0000000e+00 0.0000000e+00 1.0211250e+06 
0.0000000e+00 0.0000000e+00 1.1313750e+06 
0.0000000e+00 0.0000000e+00 1.2416250e+06 
0.0000000e+00 0.0000000e+00 1.3518750e+06 
0.0000000e+00 0.0000000e+00 1.4621250e+06 
0.0000000e+00 0.0000000e+00 1.5723750e+06 
FORCE 3 20  float
0.0000000e+00 1.1025000e+06 0.0000000e+00 
0.0000000e+00 1.1025000e+06 0.0000000e+00 
0.0000000e+00 1.1025000e+06 0.0000000e+00 
0.0000000e+00 1.1025000e+06 0.0000000e+00 
0.0000000e+00 1.1025000e+06 0.0000000e+00 
0.0000000e+00 1.1025000e+06 0.0000000e+00 
0.0000000e+00 1.1025000e+06 0.0000000e+00 
0.0000000e+00 1.1025000e+06 0.0000000e+00 
0.0000000e+00 1.1025000e+06 0.0000000e+00 
0.0000000e+00 1.1025000e+06 0.0000000e+00 
0.0000000e+00 1.1025000e+06 0.0000000e+00 
0.0000000e+00 1.1025000e+06 0.0000000e+00 
0.0000000e+00 1.1025000e+06 0.0000000e+00 
0.0000000e+00 1.1025000e+06 0.0000000e+00 
0.0000000e+00 1.1025000e+06 0.0000000e+00 
0.0000000e+00 1.1025000e+06 0.0000000e+00 
0.0000000e+00 1.1025000e+06 0.0000000e+00 
0.0000000e+00 1.1025000e+06 0.0000000e+00 
0.0000000e+00 1.1025000e+06 0.0000000e+00 
0.0000000e+00 1.1025000e+06 0.0000000e+00 
