# vtk DataFile Version 4.0
vtk output
ASCII
DATASET UNSTRUCTURED_GRID
POINTS 212 float
0.0000000e+00 0.0000000e+00 0.0000000e+00 
0.0000000e+00 0.0000000e+00 2.5000000e-01 
0.0000000e+00 0.0000000e+00 5.0000000e-01 
0.0000000e+00 0.0000000e+00 7.5000000e-01 
0.0000000e+00 0.0000000e+00 1.0000000e+00 
0.0000000e+00 0.0000000e+00 1.2500000e+00 
0.0000000e+00 0.0000000e+00 1.5000000e+00 
0.0000000e+00 0.0000000e+00 1.7500000e+00 
0.0000000e+00 0.0000000e+00 2.0000000e+00 
0.0000000e+00 0.0000000e+00 2.2500000e+00 
0.0000000e+00 0.0000000e+00 2.5000000e+00 
0.0000000e+00 0.0000000e+00 2.7500000e+00 
0.0000000e+00 0.0000000e+00 3.0000000e+00 
0.0000000e+00 0.0000000e+00 3.2500000e+00 
0.0000000e+00 0.0000000e+00 3.5000000e+00 
0.0000000e+00 0.0000000e+00 3.7500000e+00 
0.0000000e+00 0.0000000e+00 4.0000000e+00 
0.0000000e+00 0.0000000e+00 4.2500000e+00 
0.0000000e+00 0.0000000e+00 4.5000000e+00 
0.0000000e+00 0.0000000e+00 4.7500000e+00 
0.0000000e+00 0.0000000e+00 5.0000000e+00 
0.0000000e+00 0.0000000e+00 5.2500000e+00 
0.0000000e+00 0.0000000e+00 5.5000000e+00 
0.0000000e+00 0.0000000e+00 5.7500000e+00 
0.0000000e+00 0.0000000e+00 6.0000000e+00 
0.0000000e+00 0.0000000e+00 6.2500000e+00 
0.0000000e+00 0.0000000e+00 6.5000000e+00 
0.0000000e+00 0.0000000e+00 6.7500000e+00 
0.0000000e+00 0.0000000e+00 7.0000000e+00 
0.0000000e+00 0.0000000e+00 7.2500000e+00 
0.0000000e+00 0.0000000e+00 7.5000000e+00 
0.0000000e+00 0.0000000e+00 7.7500000e+00 
0.0000000e+00 0.0000000e+00 8.0000000e+00 
0.0000000e+00 0.0000000e+00 8.2500000e+00 
0.0000000e+00 0.0000000e+00 8.5000000e+00 
0.0000000e+00 0.0000000e+00 8.7500000e+00 
0.0000000e+00 0.0000000e+00 9.0000000e+00 
0.0000000e+00 0.0000000e+00 9.2500000e+00 
0.0000000e+00 0.0000000e+00 9.5000000e+00 
0.0000000e+00 0.0000000e+00 9.7500000e+00 
0.0000000e+00 0.0000000e+00 1.0000000e+01 
0.0000000e+00 0.0000000e+00 1.0250000e+01 
0.0000000e+00 0.0000000e+00 1.0500000e+01 
0.0000000e+00 0.0000000e+00 1.0750000e+01 
0.0000000e+00 0.0000000e+00 1.1000000e+01 
0.0000000e+00 0.0000000e+00 1.1250000e+01 
0.0000000e+00 0.0000000e+00 1.1500000e+01 
0.0000000e+00 0.0000000e+00 1.1750000e+01 
0.0000000e+00 0.0000000e+00 1.2000000e+01 
0.0000000e+00 0.0000000e+00 1.2250000e+01 
0.0000000e+00 0.0000000e+00 1.2500000e+01 
0.0000000e+00 0.0000000e+00 1.2750000e+01 
0.0000000e+00 0.0000000e+00 1.3000000e+01 
0.0000000e+00 0.0000000e+00 1.3250000e+01 
0.0000000e+00 0.0000000e+00 1.3500000e+01 
0.0000000e+00 0.0000000e+00 1.3750000e+01 
0.0000000e+00 0.0000000e+00 1.4000000e+01 
0.0000000e+00 0.0000000e+00 1.4250000e+01 
0.0000000e+00 0.0000000e+00 1.4500000e+01 
0.0000000e+00 0.0000000e+00 1.4750000e+01 
0.0000000e+00 0.0000000e+00 1.5000000e+01 
0.0000000e+00 0.0000000e+00 1.5250000e+01 
0.0000000e+00 0.0000000e+00 1.5500000e+01 
0.0000000e+00 0.0000000e+00 1.5750000e+01 
0.0000000e+00 0.0000000e+00 1.6000000e+01 
0.0000000e+00 0.0000000e+00 1.6250000e+01 
0.0000000e+00 0.0000000e+00 1.6500000e+01 
0.0000000e+00 0.0000000e+00 1.6750000e+01 
0.0000000e+00 0.0000000e+00 1.7000000e+01 
0.0000000e+00 0.0000000e+00 1.7250000e+01 
0.0000000e+00 0.0000000e+00 1.7500000e+01 
0.0000000e+00 0.0000000e+00 1.7750000e+01 
0.0000000e+00 0.0000000e+00 1.8000000e+01 
5.0000000e-01 0.0000000e+00 3.0000000e+00 
5.0000000e-01 0.0000000e+00 6.0000000e+00 
5.0000000e-01 0.0000000e+00 9.0000000e+00 
5.0000000e-01 0.0000000e+00 1.2000000e+01 
5.0000000e-01 0.0000000e+00 1.5000000e+01 
5.0000000e-01 0.0000000e+00 1.8000000e+01 
1.0000000e+00 0.0000000e+00 3.0000000e+00 
1.0000000e+00 0.0000000e+00 6.0000000e+00 
1.0000000e+00 0.0000000e+00 9.0000000e+00 
1.0000000e+00 0.0000000e+00 1.2000000e+01 
1.0000000e+00 0.0000000e+00 1.5000000e+01 
1.0000000e+00 0.0000000e+00 1.8000000e+01 
1.5000000e+00 0.0000000e+00 3.0000000e+00 
1.5000000e+00 0.0000000e+00 6.0000000e+00 
1.5000000e+00 0.0000000e+00 9.0000000e+00 
1.5000000e+00 0.0000000e+00 1.2000000e+01 
1.5000000e+00 0.0000000e+00 1.5000000e+01 
1.5000000e+00 0.0000000e+00 1.8000000e+01 
2.0000000e+00 0.0000000e+00 3.0000000e+00 
2.0000000e+00 0.0000000e+00 6.0000000e+00 
2.0000000e+00 0.0000000e+00 9.0000000e+00 
2.0000000e+00 0.0000000e+00 1.2000000e+01 
2.0000000e+00 0.0000000e+00 1.5000000e+01 
2.0000000e+00 0.0000000e+00 1.8000000e+01 
2.5000000e+00 0.0000000e+00 3.0000000e+00 
2.5000000e+00 0.0000000e+00 6.0000000e+00 
2.5000000e+00 0.0000000e+00 9.0000000e+00 
2.5000000e+00 0.0000000e+00 1.2000000e+01 
2.5000000e+00 0.0000000e+00 1.5000000e+01 
2.5000000e+00 0.0000000e+00 1.8000000e+01 
3.0000000e+00 0.0000000e+00 3.0000000e+00 
3.0000000e+00 0.0000000e+00 6.0000000e+00 
3.0000000e+00 0.0000000e+00 9.0000000e+00 
3.0000000e+00 0.0000000e+00 1.2000000e+01 
3.0000000e+00 0.0000000e+00 1.5000000e+01 
3.0000000e+00 0.0000000e+00 1.8000000e+01 
3.5000000e+00 0.0000000e+00 3.0000000e+00 
3.5000000e+00 0.0000000e+00 6.0000000e+00 
3.5000000e+00 0.0000000e+00 9.0000000e+00 
3.5000000e+00 0.0000000e+00 1.2000000e+01 
3.5000000e+00 0.0000000e+00 1.5000000e+01 
3.5000000e+00 0.0000000e+00 1.8000000e+01 
4.0000000e+00 0.0000000e+00 3.0000000e+00 
4.0000000e+00 0.0000000e+00 6.0000000e+00 
4.0000000e+00 0.0000000e+00 9.0000000e+00 
4.0000000e+00 0.0000000e+00 1.2000000e+01 
4.0000000e+00 0.0000000e+00 1.5000000e+01 
4.0000000e+00 0.0000000e+00 1.8000000e+01 
4.5000000e+00 0.0000000e+00 3.0000000e+00 
4.5000000e+00 0.0000000e+00 6.0000000e+00 
4.5000000e+00 0.0000000e+00 9.0000000e+00 
4.5000000e+00 0.0000000e+00 1.2000000e+01 
4.5000000e+00 0.0000000e+00 1.5000000e+01 
4.5000000e+00 0.0000000e+00 1.8000000e+01 
5.0000000e+00 0.0000000e+00 3.0000000e+00 
5.0000000e+00 0.0000000e+00 6.0000000e+00 
5.0000000e+00 0.0000000e+00 9.0000000e+00 
5.0000000e+00 0.0000000e+00 1.2000000e+01 
5.0000000e+00 0.0000000e+00 1.5000000e+01 
5.0000000e+00 0.0000000e+00 1.8000000e+01 
5.5000000e+00 0.0000000e+00 3.0000000e+00 
5.5000000e+00 0.0000000e+00 6.0000000e+00 
5.5000000e+00 0.0000000e+00 9.0000000e+00 
5.5000000e+00 0.0000000e+00 1.2000000e+01 
5.5000000e+00 0.0000000e+00 1.5000000e+01 
5.5000000e+00 0.0000000e+00 1.8000000e+01 
6.0000000e+00 0.0000000e+00 0.0000000e+00 
6.0000000e+00 0.0000000e+00 2.5000000e-01 
6.0000000e+00 0.0000000e+00 5.0000000e-01 
6.0000000e+00 0.0000000e+00 7.5000000e-01 
6.0000000e+00 0.0000000e+00 1.0000000e+00 
6.0000000e+00 0.0000000e+00 1.2500000e+00 
6.0000000e+00 0.0000000e+00 1.5000000e+00 
6.0000000e+00 0.0000000e+00 1.7500000e+00 
6.0000000e+00 0.0000000e+00 2.0000000e+00 
6.0000000e+00 0.0000000e+00 2.2500000e+00 
6.0000000e+00 0.0000000e+00 2.5000000e+00 
6.0000000e+00 0.0000000e+00 2.7500000e+00 
6.0000000e+00 0.0000000e+00 3.0000000e+00 
6.0000000e+00 0.0000000e+00 3.2500000e+00 
6.0000000e+00 0.0000000e+00 3.5000000e+00 
6.0000000e+00 0.0000000e+00 3.7500000e+00 
6.0000000e+00 0.0000000e+00 4.0000000e+00 
6.0000000e+00 0.0000000e+00 4.2500000e+00 
6.0000000e+00 0.0000000e+00 4.5000000e+00 
6.0000000e+00 0.0000000e+00 4.7500000e+00 
6.0000000e+00 0.0000000e+00 5.0000000e+00 
6.0000000e+00 0.0000000e+00 5.2500000e+00 
6.0000000e+00 0.0000000e+00 5.5000000e+00 
6.0000000e+00 0.0000000e+00 5.7500000e+00 
6.0000000e+00 0.0000000e+00 6.0000000e+00 
6.0000000e+00 0.0000000e+00 6.2500000e+00 
6.0000000e+00 0.0000000e+00 6.5000000e+00 
6.0000000e+00 0.0000000e+00 6.7500000e+00 
6.0000000e+00 0.0000000e+00 7.0000000e+00 
6.0000000e+00 0.0000000e+00 7.2500000e+00 
6.0000000e+00 0.0000000e+00 7.5000000e+00 
6.0000000e+00 0.0000000e+00 7.7500000e+00 
6.0000000e+00 0.0000000e+00 8.0000000e+00 
6.0000000e+00 0.0000000e+00 8.2500000e+00 
6.0000000e+00 0.0000000e+00 8.5000000e+00 
6.0000000e+00 0.0000000e+00 8.7500000e+00 
6.0000000e+00 0.0000000e+00 9.0000000e+00 
6.0000000e+00 0.0000000e+00 9.2500000e+00 
6.0000000e+00 0.0000000e+00 9.5000000e+00 
6.0000000e+00 0.0000000e+00 9.7500000e+00 
6.0000000e+00 0.0000000e+00 1.0000000e+01 
6.0000000e+00 0.0000000e+00 1.0250000e+01 
6.0000000e+00 0.0000000e+00 1.0500000e+01 
6.0000000e+00 0.0000000e+00 1.0750000e+01 
6.0000000e+00 0.0000000e+00 1.1000000e+01 
6.0000000e+00 0.0000000e+00 1.1250000e+01 
6.0000000e+00 0.0000000e+00 1.1500000e+01 
6.0000000e+00 0.0000000e+00 1.1750000e+01 
6.0000000e+00 0.0000000e+00 1.2000000e+01 
6.0000000e+00 0.0000000e+00 1.2250000e+01 
6.0000000e+00 0.0000000e+00 1.2500000e+01 
6.0000000e+00 0.0000000e+00 1.2750000e+01 
6.0000000e+00 0.0000000e+00 1.3000000e+01 
6.0000000e+00 0.0000000e+00 1.3250000e+01 
6.0000000e+00 0.0000000e+00 1.3500000e+01 
6.0000000e+00 0.0000000e+00 1.3750000e+01 
6.0000000e+00 0.0000000e+00 1.4000000e+01 
6.0000000e+00 0.0000000e+00 1.4250000e+01 
6.0000000e+00 0.0000000e+00 1.4500000e+01 
6.0000000e+00 0.0000000e+00 1.4750000e+01 
6.0000000e+00 0.0000000e+00 1.5000000e+01 
6.0000000e+00 0.0000000e+00 1.5250000e+01 
6.0000000e+00 0.0000000e+00 1.5500000e+01 
6.0000000e+00 0.0000000e+00 1.5750000e+01 
6.0000000e+00 0.0000000e+00 1.6000000e+01 
6.0000000e+00 0.0000000e+00 1.6250000e+01 
6.0000000e+00 0.0000000e+00 1.6500000e+01 
6.0000000e+00 0.0000000e+00 1.6750000e+01 
6.0000000e+00 0.0000000e+00 1.7000000e+01 
6.0000000e+00 0.0000000e+00 1.7250000e+01 
6.0000000e+00 0.0000000e+00 1.7500000e+01 
6.0000000e+00 0.0000000e+00 1.7750000e+01 
6.0000000e+00 0.0000000e+00 1.8000000e+01 

CELLS 216 648
2 0 1
2 1 2
2 2 3
2 3 4
2 4 5
2 5 6
2 6 7
2 7 8
2 8 9
2 9 10
2 10 11
2 11 12
2 12 13
2 13 14
2 14 15
2 15 16
2 16 17
2 17 18
2 18 19
2 19 20
2 20 21
2 21 22
2 22 23
2 23 24
2 24 25
2 25 26
2 26 27
2 27 28
2 28 29
2 29 30
2 30 31
2 31 32
2 32 33
2 33 34
2 34 35
2 35 36
2 36 37
2 37 38
2 38 39
2 39 40
2 40 41
2 41 42
2 42 43
2 43 44
2 44 45
2 45 46
2 46 47
2 47 48
2 48 49
2 49 50
2 50 51
2 51 52
2 52 53
2 53 54
2 54 55
2 55 56
2 56 57
2 57 58
2 58 59
2 59 60
2 60 61
2 61 62
2 62 63
2 63 64
2 64 65
2 65 66
2 66 67
2 67 68
2 68 69
2 69 70
2 70 71
2 71 72
2 139 140
2 140 141
2 141 142
2 142 143
2 143 144
2 144 145
2 145 146
2 146 147
2 147 148
2 148 149
2 149 150
2 150 151
2 151 152
2 152 153
2 153 154
2 154 155
2 155 156
2 156 157
2 157 158
2 158 159
2 159 160
2 160 161
2 161 162
2 162 163
2 163 164
2 164 165
2 165 166
2 166 167
2 167 168
2 168 169
2 169 170
2 170 171
2 171 172
2 172 173
2 173 174
2 174 175
2 175 176
2 176 177
2 177 178
2 178 179
2 179 180
2 180 181
2 181 182
2 182 183
2 183 184
2 184 185
2 185 186
2 186 187
2 187 188
2 188 189
2 189 190
2 190 191
2 191 192
2 192 193
2 193 194
2 194 195
2 195 196
2 196 197
2 197 198
2 198 199
2 199 200
2 200 201
2 201 202
2 202 203
2 203 204
2 204 205
2 205 206
2 206 207
2 207 208
2 208 209
2 209 210
2 210 211
2 12 73
2 73 79
2 79 85
2 85 91
2 91 97
2 97 103
2 103 109
2 109 115
2 115 121
2 121 127
2 127 133
2 133 151
2 24 74
2 74 80
2 80 86
2 86 92
2 92 98
2 98 104
2 104 110
2 110 116
2 116 122
2 122 128
2 128 134
2 134 163
2 36 75
2 75 81
2 81 87
2 87 93
2 93 99
2 99 105
2 105 111
2 111 117
2 117 123
2 123 129
2 129 135
2 135 175
2 48 76
2 76 82
2 82 88
2 88 94
2 94 100
2 100 106
2 106 112
2 112 118
2 118 124
2 124 130
2 130 136
2 136 187
2 60 77
2 77 83
2 83 89
2 89 95
2 95 101
2 101 107
2 107 113
2 113 119
2 119 125
2 125 131
2 131 137
2 137 199
2 72 78
2 78 84
2 84 90
2 90 96
2 96 102
2 102 108
2 108 114
2 114 120
2 120 126
2 126 132
2 132 138
2 138 211

CELL_TYPES 216
3
3
3
3
3
3
3
3
3
3
3
3
3
3
3
3
3
3
3
3
3
3
3
3
3
3
3
3
3
3
3
3
3
3
3
3
3
3
3
3
3
3
3
3
3
3
3
3
3
3
3
3
3
3
3
3
3
3
3
3
3
3
3
3
3
3
3
3
3
3
3
3
3
3
3
3
3
3
3
3
3
3
3
3
3
3
3
3
3
3
3
3
3
3
3
3
3
3
3
3
3
3
3
3
3
3
3
3
3
3
3
3
3
3
3
3
3
3
3
3
3
3
3
3
3
3
3
3
3
3
3
3
3
3
3
3
3
3
3
3
3
3
3
3
3
3
3
3
3
3
3
3
3
3
3
3
3
3
3
3
3
3
3
3
3
3
3
3
3
3
3
3
3
3
3
3
3
3
3
3
3
3
3
3
3
3
3
3
3
3
3
3
3
3
3
3
3
3
3
3
3
3
3
3
3
3
3
3
3
3
3
3
3
3
3
3
POINT_DATA 212
FIELD FieldData 3
ADJOINT_DISPLACEMENT 3 212  float
0.0000000e+00 0.0000000e+00 0.0000000e+00 
-8.5402845e-04 0.0000000e+00 -1.3315178e-16 
-1.7036571e-03 0.0000000e+00 -2.6630356e-16 
-2.5444864e-03 0.0000000e+00 -3.9945531e-16 
-3.3721162e-03 0.0000000e+00 -5.3260712e-16 
-4.1821473e-03 0.0000000e+00 -6.6575884e-16 
-4.9701794e-03 0.0000000e+00 -7.9891062e-16 
-5.7318131e-03 0.0000000e+00 -9.3206246e-16 
-6.4626485e-03 0.0000000e+00 -1.0652142e-15 
-7.1582855e-03 0.0000000e+00 -1.1983659e-15 
-7.8143254e-03 0.0000000e+00 -1.3315177e-15 
-8.4263673e-03 0.0000000e+00 -1.4646695e-15 
-8.9900121e-03 0.0000000e+00 -1.5978212e-15 
-9.5908921e-03 0.0000000e+00 2.0047223e-07 
-1.0335250e-02 0.0000000e+00 4.0094446e-07 
-1.1249601e-02 0.0000000e+00 6.0141673e-07 
-1.2360462e-02 0.0000000e+00 8.0188892e-07 
-1.3694349e-02 0.0000000e+00 1.0023612e-06 
-1.5277778e-02 0.0000000e+00 1.2028335e-06 
-1.7137263e-02 0.0000000e+00 1.4033056e-06 
-1.9299323e-02 0.0000000e+00 1.6037778e-06 
-2.1790469e-02 0.0000000e+00 1.8042501e-06 
-2.4637222e-02 0.0000000e+00 2.0047223e-06 
-2.7866097e-02 0.0000000e+00 2.2051945e-06 
-3.1503607e-02 0.0000000e+00 2.4056669e-06 
-3.5962906e-02 0.0000000e+00 3.4080815e-06 
-4.1562386e-02 0.0000000e+00 4.4104963e-06 
-4.8186433e-02 0.0000000e+00 5.4129114e-06 
-5.5719420e-02 0.0000000e+00 6.4153260e-06 
-6.4045735e-02 0.0000000e+00 7.4177406e-06 
-7.3049761e-02 0.0000000e+00 8.4201556e-06 
-8.2615875e-02 0.0000000e+00 9.4225707e-06 
-9.2628457e-02 0.0000000e+00 1.0424985e-05 
-1.0297189e-01 0.0000000e+00 1.1427400e-05 
-1.1353055e-01 0.0000000e+00 1.2429815e-05 
-1.2418883e-01 0.0000000e+00 1.3432230e-05 
-1.3483110e-01 0.0000000e+00 1.4434644e-05 
-1.4707208e-01 0.0000000e+00 1.9246514e-05 
-1.6293384e-01 0.0000000e+00 2.4058383e-05 
-1.8291177e-01 0.0000000e+00 2.8870254e-05 
-2.0750128e-01 0.0000000e+00 3.3682125e-05 
-2.3719776e-01 0.0000000e+00 3.8493992e-05 
-2.7249661e-01 0.0000000e+00 4.3305863e-05 
-3.1389326e-01 0.0000000e+00 4.8117734e-05 
-3.6188307e-01 0.0000000e+00 5.2929601e-05 
-4.1696146e-01 0.0000000e+00 5.7741472e-05 
-4.7962379e-01 0.0000000e+00 6.2553343e-05 
-5.5036557e-01 0.0000000e+00 6.7365210e-05 
-6.2968206e-01 0.0000000e+00 7.2177085e-05 
-7.0901448e-01 0.0000000e+00 6.7375760e-05 
-7.7979988e-01 0.0000000e+00 6.2574443e-05 
-8.4252763e-01 0.0000000e+00 5.7773123e-05 
-8.9768726e-01 0.0000000e+00 5.2971802e-05 
-9.4576806e-01 0.0000000e+00 4.8170481e-05 
-9.8725945e-01 0.0000000e+00 4.3369164e-05 
-1.0226508e+00 0.0000000e+00 3.8567843e-05 
-1.0524317e+00 0.0000000e+00 3.3766522e-05 
-1.0770913e+00 0.0000000e+00 2.8965202e-05 
-1.0971191e+00 0.0000000e+00 2.4163883e-05 
-1.1130046e+00 0.0000000e+00 1.9362562e-05 
-1.1252370e+00 0.0000000e+00 1.4561242e-05 
-1.1358458e+00 0.0000000e+00 1.3601029e-05 
-1.1464710e+00 0.0000000e+00 1.2640817e-05 
-1.1570182e+00 0.0000000e+00 1.1680604e-05 
-1.1673927e+00 0.0000000e+00 1.0720391e-05 
-1.1775001e+00 0.0000000e+00 9.7601787e-06 
-1.1872461e+00 0.0000000e+00 8.7999670e-06 
-1.1965359e+00 0.0000000e+00 7.8397543e-06 
-1.2052752e+00 0.0000000e+00 6.8795412e-06 
-1.2133693e+00 0.0000000e+00 5.9193285e-06 
-1.2207239e+00 0.0000000e+00 4.9591158e-06 
-1.2272444e+00 0.0000000e+00 3.9989031e-06 
-1.2328364e+00 0.0000000e+00 3.0386907e-06 
-8.9908056e-03 0.0000000e+00 7.5726217e-04 
-3.1499960e-02 0.0000000e+00 6.1457339e-03 
-1.3484679e-01 0.0000000e+00 1.5087547e-02 
-6.2968189e-01 0.0000000e+00 2.0282497e-01 
-1.1252220e+00 0.0000000e+00 1.5002670e-02 
-1.2328387e+00 0.0000000e+00 8.2489345e-03 
-8.9915991e-03 0.0000000e+00 9.6041558e-04 
-3.1496309e-02 0.0000000e+00 9.5062098e-03 
-1.3486247e-01 0.0000000e+00 1.9506583e-02 
-6.2968177e-01 0.0000000e+00 -2.7986541e-02 
-1.1252071e+00 0.0000000e+00 1.9286405e-02 
-1.2328413e+00 0.0000000e+00 1.3000913e-02 
-8.9923935e-03 0.0000000e+00 7.3438761e-04 
-3.1492658e-02 0.0000000e+00 1.0583578e-02 
-1.3487816e-01 0.0000000e+00 1.5645465e-02 
-6.2968159e-01 0.0000000e+00 -1.9835296e-01 
-1.1251920e+00 0.0000000e+00 1.5259414e-02 
-1.2328436e+00 0.0000000e+00 1.4857344e-02 
-8.9931870e-03 0.0000000e+00 2.0410575e-04 
-3.1489011e-02 0.0000000e+00 9.8775793e-03 
-1.3489385e-01 0.0000000e+00 5.8781155e-03 
-6.2968147e-01 0.0000000e+00 -3.1426489e-01 
-1.1251770e+00 0.0000000e+00 5.3153420e-03 
-1.2328460e+00 0.0000000e+00 1.4416602e-02 
-8.9939805e-03 0.0000000e+00 -5.0550268e-04 
-3.1485360e-02 0.0000000e+00 7.8879576e-03 
-1.3490954e-01 0.0000000e+00 -7.4215452e-03 
-6.2968129e-01 0.0000000e+00 -3.8171294e-01 
-1.1251620e+00 0.0000000e+00 -8.1521645e-03 
-1.2328485e+00 0.0000000e+00 1.2277056e-02 
-8.9947749e-03 0.0000000e+00 -1.2695101e-03 
-3.1481709e-02 0.0000000e+00 5.1144566e-03 
-1.3492523e-01 0.0000000e+00 -2.1879595e-02 
-6.2968111e-01 0.0000000e+00 -4.0668774e-01 
-1.1251471e+00 0.0000000e+00 -2.2749458e-02 
-1.2328509e+00 0.0000000e+00 9.0370784e-03 
-8.9955684e-03 0.0000000e+00 -1.9629893e-03 
-3.1478062e-02 0.0000000e+00 2.0568194e-03 
-1.3494092e-01 0.0000000e+00 -3.5122111e-02 
-6.2968099e-01 0.0000000e+00 -3.9517987e-01 
-1.1251321e+00 0.0000000e+00 -3.6082894e-02 
-1.2328533e+00 0.0000000e+00 5.2950406e-03 
-8.9963619e-03 0.0000000e+00 -2.4610127e-03 
-3.1474411e-02 0.0000000e+00 -7.8521128e-04 
-1.3495660e-01 0.0000000e+00 -4.4775173e-02 
-6.2968081e-01 0.0000000e+00 -3.5317999e-01 
-1.1251171e+00 0.0000000e+00 -4.5758821e-02 
-1.2328558e+00 0.0000000e+00 1.6493149e-03 
-8.9971563e-03 0.0000000e+00 -2.6386529e-03 
-3.1470764e-02 0.0000000e+00 -2.9118923e-03 
-1.3497229e-01 0.0000000e+00 -4.8464857e-02 
-6.2968069e-01 0.0000000e+00 -2.8667864e-01 
-1.1251020e+00 0.0000000e+00 -4.9383599e-02 
-1.2328582e+00 0.0000000e+00 -1.3017275e-03 
-8.9979498e-03 0.0000000e+00 -2.3709824e-03 
-3.1467114e-02 0.0000000e+00 -3.8234803e-03 
-1.3498798e-01 0.0000000e+00 -4.3817244e-02 
-6.2968051e-01 0.0000000e+00 -2.0166650e-01 
-1.1250871e+00 0.0000000e+00 -4.4563580e-02 
-1.2328606e+00 0.0000000e+00 -2.9597150e-03 
-8.9987433e-03 0.0000000e+00 -1.5330740e-03 
-3.1463463e-02 0.0000000e+00 -3.0202325e-03 
-1.3500367e-01 0.0000000e+00 -2.8458411e-02 
-6.2968034e-01 0.0000000e+00 -1.0413414e-01 
-1.1250721e+00 0.0000000e+00 -2.8905116e-02 
-1.2328631e+00 0.0000000e+00 -2.7262759e-03 
0.0000000e+00 0.0000000e+00 0.0000000e+00 
-6.4510066e-04 0.0000000e+00 1.3129547e-16 
-1.2946010e-03 0.0000000e+00 2.6259017e-16 
-1.9529010e-03 0.0000000e+00 3.9388443e-16 
-2.6244002e-03 0.0000000e+00 5.2517885e-16 
-3.3134983e-03 0.0000000e+00 6.5647314e-16 
-4.0245955e-03 0.0000000e+00 7.8776965e-16 
-4.7620907e-03 0.0000000e+00 9.1906548e-16 
-5.5303844e-03 0.0000000e+00 1.0503593e-15 
-6.3338764e-03 0.0000000e+00 1.1816521e-15 
-7.1769659e-03 0.0000000e+00 1.3129408e-15 
-8.0640530e-03 0.0000000e+00 1.4442301e-15 
-8.9995377e-03 0.0000000e+00 1.5755188e-15 
-1.0085178e-02 0.0000000e+00 -2.0047223e-07 
-1.1402123e-02 0.0000000e+00 -4.0094446e-07 
-1.2923855e-02 0.0000000e+00 -6.0141673e-07 
-1.4623862e-02 0.0000000e+00 -8.0188892e-07 
-1.6475623e-02 0.0000000e+00 -1.0023612e-06 
-1.8452628e-02 0.0000000e+00 -1.2028335e-06 
-2.0528356e-02 0.0000000e+00 -1.4033056e-06 
-2.2676293e-02 0.0000000e+00 -1.6037778e-06 
-2.4869923e-02 0.0000000e+00 -1.8042501e-06 
-2.7082732e-02 0.0000000e+00 -2.0047223e-06 
-2.9288201e-02 0.0000000e+00 -2.2051945e-06 
-3.1459816e-02 0.0000000e+00 -2.4056669e-06 
-3.3934038e-02 0.0000000e+00 -3.4080815e-06 
-3.7142090e-02 0.0000000e+00 -4.4104963e-06 
-4.1199591e-02 0.0000000e+00 -5.4129114e-06 
-4.6222158e-02 0.0000000e+00 -6.4153260e-06 
-5.2325413e-02 0.0000000e+00 -7.4177406e-06 
-5.9624970e-02 0.0000000e+00 -8.4201556e-06 
-6.8236448e-02 0.0000000e+00 -9.4225707e-06 
-7.8275472e-02 0.0000000e+00 -1.0424985e-05 
-8.9857653e-02 0.0000000e+00 -1.1427400e-05 
-1.0309862e-01 0.0000000e+00 -1.2429815e-05 
-1.1811398e-01 0.0000000e+00 -1.3432230e-05 
-1.3501936e-01 0.0000000e+00 -1.4434644e-05 
-1.5576091e-01 0.0000000e+00 -1.9246514e-05 
-1.8187748e-01 0.0000000e+00 -2.4058383e-05 
-2.1287365e-01 0.0000000e+00 -2.8870254e-05 
-2.4825402e-01 0.0000000e+00 -3.3682125e-05 
-2.8752318e-01 0.0000000e+00 -3.8493992e-05 
-3.3018574e-01 0.0000000e+00 -4.3305863e-05 
-3.7574634e-01 0.0000000e+00 -4.8117734e-05 
-4.2370951e-01 0.0000000e+00 -5.2929601e-05 
-4.7357988e-01 0.0000000e+00 -5.7741472e-05 
-5.2486205e-01 0.0000000e+00 -6.2553343e-05 
-5.7706064e-01 0.0000000e+00 -6.7365210e-05 
-6.2968022e-01 0.0000000e+00 -7.2177085e-05 
-6.8229377e-01 0.0000000e+00 -6.7375760e-05 
-7.3447824e-01 0.0000000e+00 -6.2574443e-05 
-7.8574431e-01 0.0000000e+00 -5.7773123e-05 
-8.3560252e-01 0.0000000e+00 -5.2971802e-05 
-8.8356346e-01 0.0000000e+00 -4.8170481e-05 
-9.2913771e-01 0.0000000e+00 -4.3369164e-05 
-9.7183591e-01 0.0000000e+00 -3.8567843e-05 
-1.0111687e+00 0.0000000e+00 -3.3766522e-05 
-1.0466466e+00 0.0000000e+00 -2.8965202e-05 
-1.0777802e+00 0.0000000e+00 -2.4163883e-05 
-1.1040802e+00 0.0000000e+00 -1.9362562e-05 
-1.1250571e+00 0.0000000e+00 -1.4561242e-05 
-1.1422721e+00 0.0000000e+00 -1.3601029e-05 
-1.1576755e+00 0.0000000e+00 -1.2640817e-05 
-1.1713619e+00 0.0000000e+00 -1.1680604e-05 
-1.1834258e+00 0.0000000e+00 -1.0720391e-05 
-1.1939616e+00 0.0000000e+00 -9.7601787e-06 
-1.2030640e+00 0.0000000e+00 -8.7999670e-06 
-1.2108272e+00 0.0000000e+00 -7.8397543e-06 
-1.2173460e+00 0.0000000e+00 -6.8795412e-06 
-1.2227147e+00 0.0000000e+00 -5.9193285e-06 
-1.2270278e+00 0.0000000e+00 -4.9591158e-06 
-1.2303799e+00 0.0000000e+00 -3.9989031e-06 
-1.2328655e+00 0.0000000e+00 -3.0386907e-06 
ADJOINT_ROTATION 3 212  float
0.0000000e+00 -3.4190470e-03 0.0000000e+00 
0.0000000e+00 -3.4102474e-03 0.0000000e+00 
0.0000000e+00 -3.3838488e-03 0.0000000e+00 
0.0000000e+00 -3.3398513e-03 0.0000000e+00 
0.0000000e+00 -3.2782548e-03 0.0000000e+00 
0.0000000e+00 -3.1990593e-03 0.0000000e+00 
0.0000000e+00 -3.1022648e-03 0.0000000e+00 
0.0000000e+00 -2.9878712e-03 0.0000000e+00 
0.0000000e+00 -2.8558786e-03 0.0000000e+00 
0.0000000e+00 -2.7062870e-03 0.0000000e+00 
0.0000000e+00 -2.5390964e-03 0.0000000e+00 
0.0000000e+00 -2.3543066e-03 0.0000000e+00 
0.0000000e+00 -2.1519181e-03 0.0000000e+00 
0.0000000e+00 -2.6727980e-03 0.0000000e+00 
0.0000000e+00 -3.2997413e-03 0.0000000e+00 
0.0000000e+00 -4.0327483e-03 0.0000000e+00 
0.0000000e+00 -4.8718187e-03 0.0000000e+00 
0.0000000e+00 -5.8169528e-03 0.0000000e+00 
0.0000000e+00 -6.8681506e-03 0.0000000e+00 
0.0000000e+00 -8.0254115e-03 0.0000000e+00 
0.0000000e+00 -9.2887366e-03 0.0000000e+00 
0.0000000e+00 -1.0658124e-02 0.0000000e+00 
0.0000000e+00 -1.2133576e-02 0.0000000e+00 
0.0000000e+00 -1.3715092e-02 0.0000000e+00 
0.0000000e+00 -1.5402671e-02 0.0000000e+00 
0.0000000e+00 -2.0194639e-02 0.0000000e+00 
0.0000000e+00 -2.4524132e-02 0.0000000e+00 
0.0000000e+00 -2.8391149e-02 0.0000000e+00 
0.0000000e+00 -3.1795692e-02 0.0000000e+00 
0.0000000e+00 -3.4737758e-02 0.0000000e+00 
0.0000000e+00 -3.7217349e-02 0.0000000e+00 
0.0000000e+00 -3.9234467e-02 0.0000000e+00 
0.0000000e+00 -4.0789105e-02 0.0000000e+00 
0.0000000e+00 -4.1881271e-02 0.0000000e+00 
0.0000000e+00 -4.2510960e-02 0.0000000e+00 
0.0000000e+00 -4.2678177e-02 0.0000000e+00 
0.0000000e+00 -4.2382915e-02 0.0000000e+00 
0.0000000e+00 -5.5875216e-02 0.0000000e+00 
0.0000000e+00 -7.1349114e-02 0.0000000e+00 
0.0000000e+00 -8.8804618e-02 0.0000000e+00 
0.0000000e+00 -1.0824171e-01 0.0000000e+00 
0.0000000e+00 -1.2966041e-01 0.0000000e+00 
0.0000000e+00 -1.5306072e-01 0.0000000e+00 
0.0000000e+00 -1.7844261e-01 0.0000000e+00 
0.0000000e+00 -2.0580612e-01 0.0000000e+00 
0.0000000e+00 -2.3515122e-01 0.0000000e+00 
0.0000000e+00 -2.6647791e-01 0.0000000e+00 
0.0000000e+00 -2.9978624e-01 0.0000000e+00 
0.0000000e+00 -3.3507612e-01 0.0000000e+00 
0.0000000e+00 -2.9990932e-01 0.0000000e+00 
0.0000000e+00 -2.6670012e-01 0.0000000e+00 
0.0000000e+00 -2.3544852e-01 0.0000000e+00 
0.0000000e+00 -2.0615453e-01 0.0000000e+00 
0.0000000e+00 -1.7881814e-01 0.0000000e+00 
0.0000000e+00 -1.5343936e-01 0.0000000e+00 
0.0000000e+00 -1.3001817e-01 0.0000000e+00 
0.0000000e+00 -1.0855460e-01 0.0000000e+00 
0.0000000e+00 -8.9048631e-02 0.0000000e+00 
0.0000000e+00 -7.1500272e-02 0.0000000e+00 
0.0000000e+00 -5.5909511e-02 0.0000000e+00 
0.0000000e+00 -4.2276356e-02 0.0000000e+00 
0.0000000e+00 -4.2531025e-02 0.0000000e+00 
0.0000000e+00 -4.2407699e-02 0.0000000e+00 
0.0000000e+00 -4.1906375e-02 0.0000000e+00 
0.0000000e+00 -4.1027054e-02 0.0000000e+00 
0.0000000e+00 -3.9769739e-02 0.0000000e+00 
0.0000000e+00 -3.8134426e-02 0.0000000e+00 
0.0000000e+00 -3.6121115e-02 0.0000000e+00 
0.0000000e+00 -3.3729810e-02 0.0000000e+00 
0.0000000e+00 -3.0960510e-02 0.0000000e+00 
0.0000000e+00 -2.7813211e-02 0.0000000e+00 
0.0000000e+00 -2.4287915e-02 0.0000000e+00 
0.0000000e+00 -2.0384625e-02 0.0000000e+00 
0.0000000e+00 -9.1877312e-04 0.0000000e+00 
0.0000000e+00 -9.3372231e-03 0.0000000e+00 
0.0000000e+00 -1.8700842e-02 0.0000000e+00 
0.0000000e+00 -4.7393814e-01 0.0000000e+00 
0.0000000e+00 -1.8473962e-02 0.0000000e+00 
0.0000000e+00 -1.2798416e-02 0.0000000e+00 
0.0000000e+00 6.4517029e-05 0.0000000e+00 
0.0000000e+00 -4.2712623e-03 0.0000000e+00 
0.0000000e+00 2.3338861e-04 0.0000000e+00 
0.0000000e+00 3.9918104e-01 0.0000000e+00 
0.0000000e+00 5.4113829e-04 0.0000000e+00 
0.0000000e+00 -6.4089526e-03 0.0000000e+00 
0.0000000e+00 7.9795235e-04 0.0000000e+00 
0.0000000e+00 -2.0478769e-04 0.0000000e+00 
0.0000000e+00 1.4419775e-02 0.0000000e+00 
0.0000000e+00 2.8428146e-01 0.0000000e+00 
0.0000000e+00 1.4768946e-02 0.0000000e+00 
0.0000000e+00 -1.2162316e-03 0.0000000e+00 
0.0000000e+00 1.2815328e-03 0.0000000e+00 
0.0000000e+00 2.8622008e-03 0.0000000e+00 
0.0000000e+00 2.3858318e-02 0.0000000e+00 
0.0000000e+00 1.8136312e-01 0.0000000e+00 
0.0000000e+00 2.4209460e-02 0.0000000e+00 
0.0000000e+00 2.7797462e-03 0.0000000e+00 
0.0000000e+00 1.5152583e-03 0.0000000e+00 
0.0000000e+00 4.9297032e-03 0.0000000e+00 
0.0000000e+00 2.8549017e-02 0.0000000e+00 
0.0000000e+00 9.0425983e-02 0.0000000e+00 
0.0000000e+00 2.8862681e-02 0.0000000e+00 
0.0000000e+00 5.5789808e-03 0.0000000e+00 
0.0000000e+00 1.4991291e-03 0.0000000e+00 
0.0000000e+00 5.9977192e-03 0.0000000e+00 
0.0000000e+00 2.8491873e-02 0.0000000e+00 
0.0000000e+00 1.1470068e-02 0.0000000e+00 
0.0000000e+00 2.8728612e-02 0.0000000e+00 
0.0000000e+00 7.1814721e-03 0.0000000e+00 
0.0000000e+00 1.2331450e-03 0.0000000e+00 
0.0000000e+00 6.0662492e-03 0.0000000e+00 
0.0000000e+00 2.3686886e-02 0.0000000e+00 
0.0000000e+00 -5.5504628e-02 0.0000000e+00 
0.0000000e+00 2.3807246e-02 0.0000000e+00 
0.0000000e+00 7.5872201e-03 0.0000000e+00 
0.0000000e+00 7.1730604e-04 0.0000000e+00 
0.0000000e+00 5.1352927e-03 0.0000000e+00 
0.0000000e+00 1.4134054e-02 0.0000000e+00 
0.0000000e+00 -1.1049810e-01 0.0000000e+00 
0.0000000e+00 1.4098590e-02 0.0000000e+00 
0.0000000e+00 6.7962254e-03 0.0000000e+00 
0.0000000e+00 -4.8387774e-05 0.0000000e+00 
0.0000000e+00 3.2048502e-03 0.0000000e+00 
0.0000000e+00 -1.6662125e-04 0.0000000e+00 
0.0000000e+00 -1.5351035e-01 0.0000000e+00 
0.0000000e+00 -3.9735963e-04 0.0000000e+00 
0.0000000e+00 4.8084869e-03 0.0000000e+00 
0.0000000e+00 -1.0639364e-03 0.0000000e+00 
0.0000000e+00 2.7492133e-04 0.0000000e+00 
0.0000000e+00 -1.9215140e-02 0.0000000e+00 
0.0000000e+00 -1.8454139e-01 0.0000000e+00 
0.0000000e+00 -1.9680602e-02 0.0000000e+00 
0.0000000e+00 1.6240056e-03 0.0000000e+00 
0.0000000e+00 -2.3293400e-03 0.0000000e+00 
0.0000000e+00 -3.6544937e-03 0.0000000e+00 
0.0000000e+00 -4.3011501e-02 0.0000000e+00 
0.0000000e+00 -2.0359120e-01 0.0000000e+00 
0.0000000e+00 -4.3751139e-02 0.0000000e+00 
0.0000000e+00 -2.7572191e-03 0.0000000e+00 
0.0000000e+00 -2.5774695e-03 0.0000000e+00 
0.0000000e+00 -2.5862691e-03 0.0000000e+00 
0.0000000e+00 -2.6126674e-03 0.0000000e+00 
0.0000000e+00 -2.6566649e-03 0.0000000e+00 
0.0000000e+00 -2.7182614e-03 0.0000000e+00 
0.0000000e+00 -2.7974572e-03 0.0000000e+00 
0.0000000e+00 -2.8942516e-03 0.0000000e+00 
0.0000000e+00 -3.0086453e-03 0.0000000e+00 
0.0000000e+00 -3.1406379e-03 0.0000000e+00 
0.0000000e+00 -3.2902295e-03 0.0000000e+00 
0.0000000e+00 -3.4574200e-03 0.0000000e+00 
0.0000000e+00 -3.6422096e-03 0.0000000e+00 
0.0000000e+00 -3.8445983e-03 0.0000000e+00 
0.0000000e+00 -4.8228474e-03 0.0000000e+00 
0.0000000e+00 -5.6950334e-03 0.0000000e+00 
0.0000000e+00 -6.4611556e-03 0.0000000e+00 
0.0000000e+00 -7.1212142e-03 0.0000000e+00 
0.0000000e+00 -7.6752091e-03 0.0000000e+00 
0.0000000e+00 -8.1231408e-03 0.0000000e+00 
0.0000000e+00 -8.4650088e-03 0.0000000e+00 
0.0000000e+00 -8.7008132e-03 0.0000000e+00 
0.0000000e+00 -8.8305539e-03 0.0000000e+00 
0.0000000e+00 -8.8542309e-03 0.0000000e+00 
0.0000000e+00 -8.7718451e-03 0.0000000e+00 
0.0000000e+00 -8.5833948e-03 0.0000000e+00 
0.0000000e+00 -1.1287473e-02 0.0000000e+00 
0.0000000e+00 -1.4454027e-02 0.0000000e+00 
0.0000000e+00 -1.8083056e-02 0.0000000e+00 
0.0000000e+00 -2.2174560e-02 0.0000000e+00 
0.0000000e+00 -2.6728541e-02 0.0000000e+00 
0.0000000e+00 -3.1744994e-02 0.0000000e+00 
0.0000000e+00 -3.7223924e-02 0.0000000e+00 
0.0000000e+00 -4.3165330e-02 0.0000000e+00 
0.0000000e+00 -4.9569212e-02 0.0000000e+00 
0.0000000e+00 -5.6435570e-02 0.0000000e+00 
0.0000000e+00 -6.3764401e-02 0.0000000e+00 
0.0000000e+00 -7.1555711e-02 0.0000000e+00 
0.0000000e+00 -9.4046518e-02 0.0000000e+00 
0.0000000e+00 -1.1455572e-01 0.0000000e+00 
0.0000000e+00 -1.3308333e-01 0.0000000e+00 
0.0000000e+00 -1.4962934e-01 0.0000000e+00 
0.0000000e+00 -1.6419375e-01 0.0000000e+00 
0.0000000e+00 -1.7677656e-01 0.0000000e+00 
0.0000000e+00 -1.8737777e-01 0.0000000e+00 
0.0000000e+00 -1.9599737e-01 0.0000000e+00 
0.0000000e+00 -2.0263538e-01 0.0000000e+00 
0.0000000e+00 -2.0729178e-01 0.0000000e+00 
0.0000000e+00 -2.0996659e-01 0.0000000e+00 
0.0000000e+00 -2.1065979e-01 0.0000000e+00 
0.0000000e+00 -2.0992237e-01 0.0000000e+00 
0.0000000e+00 -2.0722736e-01 0.0000000e+00 
0.0000000e+00 -2.0257474e-01 0.0000000e+00 
0.0000000e+00 -1.9596453e-01 0.0000000e+00 
0.0000000e+00 -1.8739669e-01 0.0000000e+00 
0.0000000e+00 -1.7687127e-01 0.0000000e+00 
0.0000000e+00 -1.6438822e-01 0.0000000e+00 
0.0000000e+00 -1.4994758e-01 0.0000000e+00 
0.0000000e+00 -1.3354933e-01 0.0000000e+00 
0.0000000e+00 -1.1519349e-01 0.0000000e+00 
0.0000000e+00 -9.4880030e-02 0.0000000e+00 
0.0000000e+00 -7.2608963e-02 0.0000000e+00 
0.0000000e+00 -6.5173835e-02 0.0000000e+00 
0.0000000e+00 -5.8116704e-02 0.0000000e+00 