# vtk DataFile Version 4.0
vtk output
ASCII
DATASET UNSTRUCTURED_GRID
POINTS 22 float
0.0000000e+00 0.0000000e+00 0.0000000e+00 
1.0000000e-01 0.0000000e+00 0.0000000e+00 
2.0000000e-01 0.0000000e+00 0.0000000e+00 
3.0000001e-01 0.0000000e+00 0.0000000e+00 
4.0000001e-01 0.0000000e+00 0.0000000e+00 
5.0000000e-01 0.0000000e+00 0.0000000e+00 
6.0000002e-01 0.0000000e+00 0.0000000e+00 
6.9999999e-01 0.0000000e+00 0.0000000e+00 
8.0000001e-01 0.0000000e+00 0.0000000e+00 
8.9999998e-01 0.0000000e+00 0.0000000e+00 
1.0000000e+00 0.0000000e+00 0.0000000e+00 
1.1000000e+00 0.0000000e+00 0.0000000e+00 
1.2000000e+00 0.0000000e+00 0.0000000e+00 
1.3000000e+00 0.0000000e+00 0.0000000e+00 
1.4000000e+00 0.0000000e+00 0.0000000e+00 
1.5000000e+00 0.0000000e+00 0.0000000e+00 
1.5000000e+00 0.0000000e+00 0.0000000e+00 
1.6000000e+00 0.0000000e+00 0.0000000e+00 
1.7000000e+00 0.0000000e+00 0.0000000e+00 
1.8000000e+00 0.0000000e+00 0.0000000e+00 
1.9000000e+00 0.0000000e+00 0.0000000e+00 
2.0000000e+00 0.0000000e+00 0.0000000e+00 

CELLS 20 60
2 0 1
2 1 2
2 2 3
2 3 4
2 4 5
2 5 6
2 6 7
2 7 8
2 8 9
2 9 10
2 10 11
2 11 12
2 12 13
2 13 14
2 14 15
2 16 17
2 17 18
2 18 19
2 19 20
2 20 21

CELL_TYPES 20
3
3
3
3
3
3
3
3
3
3
3
3
3
3
3
3
3
3
3
3
POINT_DATA 22
FIELD FieldData 4
DISPLACEMENT 3 22  float
0.0000000e+00 0.0000000e+00 0.0000000e+00 
0.0000000e+00 1.1250000e-03 0.0000000e+00 
0.0000000e+00 4.0000002e-03 0.0000000e+00 
0.0000000e+00 7.8750001e-03 0.0000000e+00 
0.0000000e+00 1.2000000e-02 0.0000000e+00 
0.0000000e+00 1.5625000e-02 0.0000000e+00 
0.0000000e+00 1.7999999e-02 0.0000000e+00 
0.0000000e+00 1.8375000e-02 0.0000000e+00 
0.0000000e+00 1.6000001e-02 0.0000000e+00 
0.0000000e+00 1.0125000e-02 0.0000000e+00 
0.0000000e+00 -5.4765220e-15 0.0000000e+00 
0.0000000e+00 -1.5125000e-02 0.0000000e+00 
0.0000000e+00 -3.5999998e-02 0.0000000e+00 
0.0000000e+00 -6.3375004e-02 0.0000000e+00 
0.0000000e+00 -9.7999997e-02 0.0000000e+00 
0.0000000e+00 -1.4062500e-01 0.0000000e+00 
0.0000000e+00 -1.4062500e-01 0.0000000e+00 
0.0000000e+00 -9.2000000e-02 0.0000000e+00 
0.0000000e+00 -5.2875001e-02 0.0000000e+00 
0.0000000e+00 -2.4000000e-02 0.0000000e+00 
0.0000000e+00 -6.1249998e-03 0.0000000e+00 
0.0000000e+00 0.0000000e+00 0.0000000e+00 
ROTATION 3 22  float
0.0000000e+00 0.0000000e+00 0.0000000e+00 
0.0000000e+00 0.0000000e+00 2.1250000e-02 
0.0000000e+00 0.0000000e+00 3.5000000e-02 
0.0000000e+00 0.0000000e+00 4.1250002e-02 
0.0000000e+00 0.0000000e+00 3.9999999e-02 
0.0000000e+00 0.0000000e+00 3.1250000e-02 
0.0000000e+00 0.0000000e+00 1.5000000e-02 
0.0000000e+00 0.0000000e+00 -8.7500000e-03 
0.0000000e+00 0.0000000e+00 -3.9999999e-02 
0.0000000e+00 0.0000000e+00 -7.8749999e-02 
0.0000000e+00 0.0000000e+00 -1.2500000e-01 
0.0000000e+00 0.0000000e+00 -1.7874999e-01 
0.0000000e+00 0.0000000e+00 -2.3999999e-01 
0.0000000e+00 0.0000000e+00 -3.0875000e-01 
0.0000000e+00 0.0000000e+00 -3.8499999e-01 
0.0000000e+00 0.0000000e+00 -4.6875000e-01 
0.0000000e+00 0.0000000e+00 5.3125000e-01 
0.0000000e+00 0.0000000e+00 4.4000000e-01 
0.0000000e+00 0.0000000e+00 3.4125000e-01 
0.0000000e+00 0.0000000e+00 2.3500000e-01 
0.0000000e+00 0.0000000e+00 1.2125000e-01 
0.0000000e+00 0.0000000e+00 0.0000000e+00 
REACTION 3 22  float
-0.0000000e+00 -7.8750000e+05 0.0000000e+00 
-0.0000000e+00 9.3132257e-09 0.0000000e+00 
-0.0000000e+00 -7.4505806e-09 0.0000000e+00 
-0.0000000e+00 -1.8626451e-08 0.0000000e+00 
-0.0000000e+00 -4.8428774e-08 0.0000000e+00 
-0.0000000e+00 2.6077032e-08 0.0000000e+00 
-0.0000000e+00 2.3283064e-08 0.0000000e+00 
-0.0000000e+00 3.2596290e-08 0.0000000e+00 
-0.0000000e+00 1.8626451e-08 0.0000000e+00 
-0.0000000e+00 1.4901161e-08 0.0000000e+00 
-0.0000000e+00 -1.4901161e-08 0.0000000e+00 
-0.0000000e+00 -4.4703484e-08 0.0000000e+00 
-0.0000000e+00 -0.0000000e+00 0.0000000e+00 
-0.0000000e+00 1.1920929e-07 0.0000000e+00 
-0.0000000e+00 -5.6624413e-07 0.0000000e+00 
-0.0000000e+00 7.8750000e+05 0.0000000e+00 
-0.0000000e+00 -7.8750000e+05 0.0000000e+00 
-0.0000000e+00 1.7881393e-07 0.0000000e+00 
-0.0000000e+00 3.5762787e-07 0.0000000e+00 
-0.0000000e+00 -1.0430813e-07 0.0000000e+00 
-0.0000000e+00 -1.4901161e-08 0.0000000e+00 
-0.0000000e+00 7.8750000e+05 0.0000000e+00 
REACTION_MOMENT 3 22  float
0.0000000e+00 0.0000000e+00 -2.6250000e+05 
0.0000000e+00 0.0000000e+00 -2.3283064e-10 
0.0000000e+00 0.0000000e+00 -0.0000000e+00 
0.0000000e+00 0.0000000e+00 -4.6566129e-10 
0.0000000e+00 0.0000000e+00 1.8626451e-09 
0.0000000e+00 0.0000000e+00 -1.3387762e-09 
0.0000000e+00 0.0000000e+00 -2.6484486e-09 
0.0000000e+00 0.0000000e+00 -1.6880222e-09 
0.0000000e+00 0.0000000e+00 4.6566129e-10 
0.0000000e+00 0.0000000e+00 1.3969839e-09 
0.0000000e+00 0.0000000e+00 -9.3132257e-10 
0.0000000e+00 0.0000000e+00 -2.7939677e-09 
0.0000000e+00 0.0000000e+00 -9.3132257e-10 
0.0000000e+00 0.0000000e+00 1.4901161e-08 
0.0000000e+00 0.0000000e+00 -7.4505806e-09 
-0.0000000e+00 -0.0000000e+00 -9.1875000e+05 
0.0000000e+00 0.0000000e+00 9.1875000e+05 
0.0000000e+00 0.0000000e+00 -3.3527613e-08 
0.0000000e+00 0.0000000e+00 -8.3819032e-09 
0.0000000e+00 0.0000000e+00 -9.3132257e-10 
0.0000000e+00 0.0000000e+00 -4.6566129e-10 
0.0000000e+00 0.0000000e+00 -1.3125000e+06 
CELL_DATA 20
FIELD FieldData 2
MOMENT 3 20  float
0.0000000e+00 0.0000000e+00 -2.2312500e+05 
0.0000000e+00 0.0000000e+00 -1.4437500e+05 
0.0000000e+00 0.0000000e+00 -6.5625000e+04 
0.0000000e+00 0.0000000e+00 1.3125000e+04 
0.0000000e+00 0.0000000e+00 9.1875000e+04 
0.0000000e+00 0.0000000e+00 1.7062500e+05 
0.0000000e+00 0.0000000e+00 2.4937500e+05 
0.0000000e+00 0.0000000e+00 3.2812500e+05 
0.0000000e+00 0.0000000e+00 4.0687500e+05 
0.0000000e+00 0.0000000e+00 4.8562500e+05 
0.0000000e+00 0.0000000e+00 5.6437500e+05 
0.0000000e+00 0.0000000e+00 6.4312500e+05 
0.0000000e+00 0.0000000e+00 7.2187500e+05 
0.0000000e+00 0.0000000e+00 8.0062500e+05 
0.0000000e+00 0.0000000e+00 8.7937500e+05 
0.0000000e+00 0.0000000e+00 9.5812500e+05 
0.0000000e+00 0.0000000e+00 1.0368750e+06 
0.0000000e+00 0.0000000e+00 1.1156250e+06 
0.0000000e+00 0.0000000e+00 1.1943750e+06 
0.0000000e+00 0.0000000e+00 1.2731250e+06 
FORCE 3 20  float
0.0000000e+00 7.8750000e+05 0.0000000e+00 
0.0000000e+00 7.8750000e+05 0.0000000e+00 
0.0000000e+00 7.8750000e+05 0.0000000e+00 
0.0000000e+00 7.8750000e+05 0.0000000e+00 
0.0000000e+00 7.8750000e+05 0.0000000e+00 
0.0000000e+00 7.8750000e+05 0.0000000e+00 
0.0000000e+00 7.8750000e+05 0.0000000e+00 
0.0000000e+00 7.8750000e+05 0.0000000e+00 
0.0000000e+00 7.8750000e+05 0.0000000e+00 
0.0000000e+00 7.8750000e+05 0.0000000e+00 
0.0000000e+00 7.8750000e+05 0.0000000e+00 
0.0000000e+00 7.8750000e+05 0.0000000e+00 
0.0000000e+00 7.8750000e+05 0.0000000e+00 
0.0000000e+00 7.8750000e+05 0.0000000e+00 
0.0000000e+00 7.8750000e+05 0.0000000e+00 
0.0000000e+00 7.8750000e+05 0.0000000e+00 
0.0000000e+00 7.8750000e+05 0.0000000e+00 
0.0000000e+00 7.8750000e+05 0.0000000e+00 
0.0000000e+00 7.8750000e+05 0.0000000e+00 
0.0000000e+00 7.8750000e+05 0.0000000e+00 
