# vtk DataFile Version 4.0
vtk output
ASCII
DATASET UNSTRUCTURED_GRID
POINTS 86 float
0.0000000e+00 0.0000000e+00 0.0000000e+00 
0.0000000e+00 0.0000000e+00 6.0000002e-01 
0.0000000e+00 0.0000000e+00 1.2000000e+00 
0.0000000e+00 0.0000000e+00 1.8000000e+00 
0.0000000e+00 0.0000000e+00 2.4000001e+00 
0.0000000e+00 0.0000000e+00 3.0000000e+00 
0.0000000e+00 0.0000000e+00 3.5999999e+00 
0.0000000e+00 0.0000000e+00 4.1999998e+00 
0.0000000e+00 0.0000000e+00 4.8000002e+00 
0.0000000e+00 0.0000000e+00 5.4000001e+00 
0.0000000e+00 0.0000000e+00 6.0000000e+00 
0.0000000e+00 0.0000000e+00 6.5999999e+00 
0.0000000e+00 0.0000000e+00 7.1999998e+00 
0.0000000e+00 0.0000000e+00 7.8000002e+00 
0.0000000e+00 0.0000000e+00 8.3999996e+00 
0.0000000e+00 0.0000000e+00 9.0000000e+00 
0.0000000e+00 0.0000000e+00 9.6000004e+00 
0.0000000e+00 0.0000000e+00 1.0200000e+01 
0.0000000e+00 0.0000000e+00 1.0800000e+01 
0.0000000e+00 0.0000000e+00 1.1400000e+01 
0.0000000e+00 0.0000000e+00 1.2000000e+01 
0.0000000e+00 0.0000000e+00 1.2600000e+01 
0.0000000e+00 0.0000000e+00 1.3200000e+01 
0.0000000e+00 0.0000000e+00 1.3800000e+01 
0.0000000e+00 0.0000000e+00 1.4400000e+01 
0.0000000e+00 0.0000000e+00 1.5000000e+01 
0.0000000e+00 0.0000000e+00 1.5600000e+01 
0.0000000e+00 0.0000000e+00 1.6200001e+01 
0.0000000e+00 0.0000000e+00 1.6799999e+01 
0.0000000e+00 0.0000000e+00 1.7400000e+01 
0.0000000e+00 0.0000000e+00 1.8000000e+01 
6.0000000e+00 0.0000000e+00 0.0000000e+00 
6.0000000e+00 0.0000000e+00 6.0000002e-01 
6.0000000e+00 0.0000000e+00 1.2000000e+00 
6.0000000e+00 0.0000000e+00 1.8000000e+00 
6.0000000e+00 0.0000000e+00 2.4000001e+00 
6.0000000e+00 0.0000000e+00 3.0000000e+00 
6.0000000e+00 0.0000000e+00 3.5999999e+00 
6.0000000e+00 0.0000000e+00 4.1999998e+00 
6.0000000e+00 0.0000000e+00 4.8000002e+00 
6.0000000e+00 0.0000000e+00 5.4000001e+00 
6.0000000e+00 0.0000000e+00 6.0000000e+00 
6.0000000e+00 0.0000000e+00 6.5999999e+00 
6.0000000e+00 0.0000000e+00 7.1999998e+00 
6.0000000e+00 0.0000000e+00 7.8000002e+00 
6.0000000e+00 0.0000000e+00 8.3999996e+00 
6.0000000e+00 0.0000000e+00 9.0000000e+00 
6.0000000e+00 0.0000000e+00 9.6000004e+00 
6.0000000e+00 0.0000000e+00 1.0200000e+01 
6.0000000e+00 0.0000000e+00 1.0800000e+01 
6.0000000e+00 0.0000000e+00 1.1400000e+01 
6.0000000e+00 0.0000000e+00 1.2000000e+01 
6.0000000e+00 0.0000000e+00 1.2600000e+01 
6.0000000e+00 0.0000000e+00 1.3200000e+01 
6.0000000e+00 0.0000000e+00 1.3800000e+01 
6.0000000e+00 0.0000000e+00 1.4400000e+01 
6.0000000e+00 0.0000000e+00 1.5000000e+01 
6.0000000e+00 0.0000000e+00 1.5600000e+01 
6.0000000e+00 0.0000000e+00 1.6200001e+01 
6.0000000e+00 0.0000000e+00 1.6799999e+01 
6.0000000e+00 0.0000000e+00 1.7400000e+01 
6.0000000e+00 0.0000000e+00 1.8000000e+01 
1.2000000e+00 0.0000000e+00 3.0000000e+00 
2.4000001e+00 0.0000000e+00 3.0000000e+00 
3.5999999e+00 0.0000000e+00 3.0000000e+00 
4.8000002e+00 0.0000000e+00 3.0000000e+00 
1.2000000e+00 0.0000000e+00 6.0000000e+00 
2.4000001e+00 0.0000000e+00 6.0000000e+00 
3.5999999e+00 0.0000000e+00 6.0000000e+00 
4.8000002e+00 0.0000000e+00 6.0000000e+00 
1.2000000e+00 0.0000000e+00 9.0000000e+00 
2.4000001e+00 0.0000000e+00 9.0000000e+00 
3.5999999e+00 0.0000000e+00 9.0000000e+00 
4.8000002e+00 0.0000000e+00 9.0000000e+00 
1.2000000e+00 0.0000000e+00 1.2000000e+01 
2.4000001e+00 0.0000000e+00 1.2000000e+01 
3.5999999e+00 0.0000000e+00 1.2000000e+01 
4.8000002e+00 0.0000000e+00 1.2000000e+01 
1.2000000e+00 0.0000000e+00 1.5000000e+01 
2.4000001e+00 0.0000000e+00 1.5000000e+01 
3.5999999e+00 0.0000000e+00 1.5000000e+01 
4.8000002e+00 0.0000000e+00 1.5000000e+01 
1.2000000e+00 0.0000000e+00 1.8000000e+01 
2.4000001e+00 0.0000000e+00 1.8000000e+01 
3.5999999e+00 0.0000000e+00 1.8000000e+01 
4.8000002e+00 0.0000000e+00 1.8000000e+01 

CELLS 90 270
2 0 1
2 1 2
2 2 3
2 3 4
2 4 5
2 5 6
2 6 7
2 7 8
2 8 9
2 9 10
2 10 11
2 11 12
2 12 13
2 13 14
2 14 15
2 15 16
2 16 17
2 17 18
2 18 19
2 19 20
2 20 21
2 21 22
2 22 23
2 23 24
2 24 25
2 25 26
2 26 27
2 27 28
2 28 29
2 29 30
2 31 32
2 32 33
2 33 34
2 34 35
2 35 36
2 36 37
2 37 38
2 38 39
2 39 40
2 40 41
2 41 42
2 42 43
2 43 44
2 44 45
2 45 46
2 46 47
2 47 48
2 48 49
2 49 50
2 50 51
2 51 52
2 52 53
2 53 54
2 54 55
2 55 56
2 56 57
2 57 58
2 58 59
2 59 60
2 60 61
2 5 62
2 62 63
2 63 64
2 64 65
2 65 36
2 10 66
2 66 67
2 67 68
2 68 69
2 69 41
2 15 70
2 70 71
2 71 72
2 72 73
2 73 46
2 20 74
2 74 75
2 75 76
2 76 77
2 77 51
2 25 78
2 78 79
2 79 80
2 80 81
2 81 56
2 30 82
2 82 83
2 83 84
2 84 85
2 85 61

CELL_TYPES 90
3
3
3
3
3
3
3
3
3
3
3
3
3
3
3
3
3
3
3
3
3
3
3
3
3
3
3
3
3
3
3
3
3
3
3
3
3
3
3
3
3
3
3
3
3
3
3
3
3
3
3
3
3
3
3
3
3
3
3
3
3
3
3
3
3
3
3
3
3
3
3
3
3
3
3
3
3
3
3
3
3
3
3
3
3
3
3
3
3
3
POINT_DATA 86
FIELD FieldData 7
DISPLACEMENT 3 86  float
0.0000000e+00 0.0000000e+00 0.0000000e+00 
6.2491212e-02 0.0000000e+00 3.1776000e-03 
1.2224392e-01 0.0000000e+00 6.3311998e-03 
1.7659160e-01 0.0000000e+00 9.4608003e-03 
2.2295417e-01 0.0000000e+00 1.2566400e-02 
2.5882351e-01 0.0000000e+00 1.5672000e-02 
2.9016119e-01 0.0000000e+00 1.7810285e-02 
3.2306078e-01 0.0000000e+00 1.9924570e-02 
3.5527691e-01 0.0000000e+00 2.2038857e-02 
3.8459298e-01 0.0000000e+00 2.4129141e-02 
4.0886438e-01 0.0000000e+00 2.6195427e-02 
4.3134862e-01 0.0000000e+00 2.7635794e-02 
4.5552307e-01 0.0000000e+00 2.9052161e-02 
4.7968829e-01 0.0000000e+00 3.0468527e-02 
5.0217360e-01 0.0000000e+00 3.1860895e-02 
5.2136582e-01 0.0000000e+00 3.3253264e-02 
5.3941762e-01 0.0000000e+00 3.4189686e-02 
5.5861753e-01 0.0000000e+00 3.5102114e-02 
5.7763571e-01 0.0000000e+00 3.5990540e-02 
5.9522861e-01 0.0000000e+00 3.6854967e-02 
6.1023927e-01 0.0000000e+00 3.7695393e-02 
6.2416542e-01 0.0000000e+00 3.8197778e-02 
6.3862002e-01 0.0000000e+00 3.8676161e-02 
6.5274823e-01 0.0000000e+00 3.9130546e-02 
6.6578156e-01 0.0000000e+00 3.9560933e-02 
6.7703789e-01 0.0000000e+00 3.9967317e-02 
6.8741846e-01 0.0000000e+00 4.0177800e-02 
6.9786763e-01 0.0000000e+00 4.0364288e-02 
7.0789778e-01 0.0000000e+00 4.0526770e-02 
7.1710759e-01 0.0000000e+00 4.0665258e-02 
7.2516775e-01 0.0000000e+00 4.0803742e-02 
0.0000000e+00 0.0000000e+00 0.0000000e+00 
6.2262867e-02 0.0000000e+00 -1.6656000e-03 
1.2184983e-01 0.0000000e+00 -3.3551999e-03 
1.7615703e-01 0.0000000e+00 -5.0687999e-03 
2.2265254e-01 0.0000000e+00 -6.7824000e-03 
2.5883329e-01 0.0000000e+00 -8.5199997e-03 
2.9041815e-01 0.0000000e+00 -9.4102854e-03 
3.2332522e-01 0.0000000e+00 -1.0324570e-02 
3.5545108e-01 0.0000000e+00 -1.1238856e-02 
3.8472113e-01 0.0000000e+00 -1.2177141e-02 
4.0913278e-01 0.0000000e+00 -1.3139427e-02 
4.3181345e-01 0.0000000e+00 -1.3595793e-02 
4.5601627e-01 0.0000000e+00 -1.4076161e-02 
4.8005673e-01 0.0000000e+00 -1.4580528e-02 
5.0233674e-01 0.0000000e+00 -1.5108895e-02 
5.2134454e-01 0.0000000e+00 -1.5661262e-02 
5.3920329e-01 0.0000000e+00 -1.5853688e-02 
5.5817384e-01 0.0000000e+00 -1.6070114e-02 
5.7706600e-01 0.0000000e+00 -1.6286539e-02 
5.9470409e-01 0.0000000e+00 -1.6502965e-02 
6.0992670e-01 0.0000000e+00 -1.6743392e-02 
6.2399435e-01 0.0000000e+00 -1.6765777e-02 
6.3839811e-01 0.0000000e+00 -1.6812162e-02 
6.5242326e-01 0.0000000e+00 -1.6858546e-02 
6.6538382e-01 0.0000000e+00 -1.6928932e-02 
6.7666590e-01 0.0000000e+00 -1.7023316e-02 
6.8700808e-01 0.0000000e+00 -1.6993802e-02 
6.9732177e-01 0.0000000e+00 -1.6964287e-02 
7.0731711e-01 0.0000000e+00 -1.6934771e-02 
7.1671849e-01 0.0000000e+00 -1.6929256e-02 
7.2532243e-01 0.0000000e+00 -1.6947741e-02 
2.5892144e-01 0.0000000e+00 -1.4850405e-02 
2.5897142e-01 0.0000000e+00 -5.7089464e-03 
2.5897336e-01 0.0000000e+00 1.5928915e-02 
2.5892735e-01 0.0000000e+00 2.3586918e-02 
4.0897566e-01 0.0000000e+00 2.3236547e-03 
4.0908694e-01 0.0000000e+00 3.3748120e-03 
4.0915021e-01 0.0000000e+00 1.2128850e-02 
4.0916550e-01 0.0000000e+00 1.1941720e-02 
5.2141917e-01 0.0000000e+00 1.2037608e-02 
5.2142453e-01 0.0000000e+00 8.2639912e-03 
5.2142984e-01 0.0000000e+00 1.0068509e-02 
5.2138722e-01 0.0000000e+00 5.8176587e-03 
6.1026311e-01 0.0000000e+00 1.9722626e-02 
6.1023903e-01 0.0000000e+00 1.3311464e-02 
6.1016691e-01 0.0000000e+00 1.0108729e-02 
6.1004680e-01 0.0000000e+00 2.4524368e-03 
6.7704988e-01 0.0000000e+00 2.4733396e-02 
6.7701387e-01 0.0000000e+00 1.6034011e-02 
6.7692989e-01 0.0000000e+00 8.9184446e-03 
6.7679787e-01 0.0000000e+00 -8.7282486e-04 
7.2529471e-01 0.0000000e+00 2.8422303e-02 
7.2537363e-01 0.0000000e+00 1.8716803e-02 
7.2540456e-01 0.0000000e+00 9.0812733e-03 
7.2538751e-01 0.0000000e+00 -2.3990523e-03 
ROTATION 3 86  float
0.0000000e+00 1.0491672e-01 0.0000000e+00 
0.0000000e+00 1.0262263e-01 0.0000000e+00 
0.0000000e+00 9.5812358e-02 0.0000000e+00 
0.0000000e+00 8.4629908e-02 0.0000000e+00 
0.0000000e+00 6.9219276e-02 0.0000000e+00 
0.0000000e+00 4.9652465e-02 0.0000000e+00 
0.0000000e+00 5.4162797e-02 0.0000000e+00 
0.0000000e+00 5.4882817e-02 0.0000000e+00 
0.0000000e+00 5.1884536e-02 0.0000000e+00 
0.0000000e+00 4.5239944e-02 0.0000000e+00 
0.0000000e+00 3.5093043e-02 0.0000000e+00 
0.0000000e+00 3.9362330e-02 0.0000000e+00 
0.0000000e+00 4.0751144e-02 0.0000000e+00 
0.0000000e+00 3.9331485e-02 0.0000000e+00 
0.0000000e+00 3.5175357e-02 0.0000000e+00 
0.0000000e+00 2.8354757e-02 0.0000000e+00 
0.0000000e+00 3.1424500e-02 0.0000000e+00 
0.0000000e+00 3.2205798e-02 0.0000000e+00 
0.0000000e+00 3.0842640e-02 0.0000000e+00 
0.0000000e+00 2.7479030e-02 0.0000000e+00 
0.0000000e+00 2.2258969e-02 0.0000000e+00 
0.0000000e+00 2.3900118e-02 0.0000000e+00 
0.0000000e+00 2.4044482e-02 0.0000000e+00 
0.0000000e+00 2.2836059e-02 0.0000000e+00 
0.0000000e+00 2.0418851e-02 0.0000000e+00 
0.0000000e+00 1.6936857e-02 0.0000000e+00 
0.0000000e+00 1.7505603e-02 0.0000000e+00 
0.0000000e+00 1.7189560e-02 0.0000000e+00 
0.0000000e+00 1.6132733e-02 0.0000000e+00 
0.0000000e+00 1.4479118e-02 0.0000000e+00 
0.0000000e+00 1.2300719e-02 0.0000000e+00 
0.0000000e+00 1.0451875e-01 0.0000000e+00 
0.0000000e+00 1.0227683e-01 0.0000000e+00 
0.0000000e+00 9.5623106e-02 0.0000000e+00 
0.0000000e+00 8.4701553e-02 0.0000000e+00 
0.0000000e+00 6.9584191e-02 0.0000000e+00 
0.0000000e+00 5.0342999e-02 0.0000000e+00 
0.0000000e+00 5.4335546e-02 0.0000000e+00 
0.0000000e+00 5.4774400e-02 0.0000000e+00 
0.0000000e+00 5.1731564e-02 0.0000000e+00 
0.0000000e+00 4.5279033e-02 0.0000000e+00 
0.0000000e+00 3.5560809e-02 0.0000000e+00 
0.0000000e+00 3.9549503e-02 0.0000000e+00 
0.0000000e+00 4.0658668e-02 0.0000000e+00 
0.0000000e+00 3.9032303e-02 0.0000000e+00 
0.0000000e+00 3.4814414e-02 0.0000000e+00 
0.0000000e+00 2.8148992e-02 0.0000000e+00 
0.0000000e+00 3.1029688e-02 0.0000000e+00 
0.0000000e+00 3.1878836e-02 0.0000000e+00 
0.0000000e+00 3.0768437e-02 0.0000000e+00 
0.0000000e+00 2.7698489e-02 0.0000000e+00 
0.0000000e+00 2.2740992e-02 0.0000000e+00 
0.0000000e+00 2.3932746e-02 0.0000000e+00 
0.0000000e+00 2.3885285e-02 0.0000000e+00 
0.0000000e+00 2.2670612e-02 0.0000000e+00 
0.0000000e+00 2.0360723e-02 0.0000000e+00 
0.0000000e+00 1.7099619e-02 0.0000000e+00 
0.0000000e+00 1.7293777e-02 0.0000000e+00 
0.0000000e+00 1.7004721e-02 0.0000000e+00 
0.0000000e+00 1.6232451e-02 0.0000000e+00 
0.0000000e+00 1.5048969e-02 0.0000000e+00 
0.0000000e+00 1.3598272e-02 0.0000000e+00 
0.0000000e+00 5.0874692e-03 0.0000000e+00 
0.0000000e+00 -1.6549975e-02 0.0000000e+00 
0.0000000e+00 -1.5835868e-02 0.0000000e+00 
0.0000000e+00 6.6537894e-03 0.0000000e+00 
0.0000000e+00 7.1009160e-03 0.0000000e+00 
0.0000000e+00 -6.4451713e-03 0.0000000e+00 
0.0000000e+00 -5.8332183e-03 0.0000000e+00 
0.0000000e+00 8.3607752e-03 0.0000000e+00 
0.0000000e+00 8.7324316e-03 0.0000000e+00 
0.0000000e+00 -8.1130635e-04 0.0000000e+00 
0.0000000e+00 -5.6445913e-04 0.0000000e+00 
0.0000000e+00 9.1849733e-03 0.0000000e+00 
0.0000000e+00 8.9518055e-03 0.0000000e+00 
0.0000000e+00 2.8936262e-03 0.0000000e+00 
0.0000000e+00 3.5084307e-03 0.0000000e+00 
0.0000000e+00 1.0220219e-02 0.0000000e+00 
0.0000000e+00 9.2366105e-03 0.0000000e+00 
0.0000000e+00 5.9499629e-03 0.0000000e+00 
0.0000000e+00 6.5009152e-03 0.0000000e+00 
0.0000000e+00 1.0313467e-02 0.0000000e+00 
0.0000000e+00 8.7929508e-03 0.0000000e+00 
0.0000000e+00 7.7448227e-03 0.0000000e+00 
0.0000000e+00 8.5803336e-03 0.0000000e+00 
0.0000000e+00 1.0723483e-02 0.0000000e+00 
REACTION 3 86  float
-3.1862362e+01 -0.0000000e+00 -1.3239999e+02 
-4.5474735e-13 -0.0000000e+00 -0.0000000e+00 
-6.8212103e-12 -0.0000000e+00 2.8421709e-14 
-6.8212103e-12 -0.0000000e+00 -1.1368684e-13 
-8.6401997e-12 -0.0000000e+00 -5.6843419e-14 
3.6379788e-12 -0.0000000e+00 2.9274361e-12 
-9.0949470e-13 -0.0000000e+00 3.4106051e-13 
-1.4551915e-11 -0.0000000e+00 -0.0000000e+00 
5.6843419e-12 -0.0000000e+00 3.4106051e-13 
2.5011104e-12 -0.0000000e+00 -2.2737368e-13 
2.7739588e-11 -0.0000000e+00 -2.2239988e-12 
-5.4569682e-12 -0.0000000e+00 2.7284841e-12 
-2.5011104e-12 -0.0000000e+00 -2.2737368e-13 
-1.1368684e-11 -0.0000000e+00 2.2737368e-13 
2.5465852e-11 -0.0000000e+00 4.5474735e-13 
1.6825652e-11 -0.0000000e+00 -1.3500312e-12 
-1.7280399e-11 -0.0000000e+00 -6.8212103e-13 
-4.5474735e-12 -0.0000000e+00 2.2737368e-13 
-1.7280399e-11 -0.0000000e+00 9.0949470e-13 
-4.3200998e-12 -0.0000000e+00 -2.2737368e-13 
-3.0581759e-11 -0.0000000e+00 1.5631940e-12 
5.5706550e-12 -0.0000000e+00 -2.2737368e-12 
-3.0240699e-11 -0.0000000e+00 -2.2737368e-13 
-4.7748472e-12 -0.0000000e+00 6.8212103e-13 
3.9790393e-12 -0.0000000e+00 2.2737368e-13 
1.0572876e-11 -0.0000000e+00 1.2946089e-11 
6.2641448e-11 -0.0000000e+00 -0.0000000e+00 
-5.3660187e-11 -0.0000000e+00 -0.0000000e+00 
-3.8085091e-11 -0.0000000e+00 -0.0000000e+00 
-6.8212103e-12 -0.0000000e+00 -0.0000000e+00 
3.1832315e-12 -0.0000000e+00 -2.5579538e-13 
-3.1137638e+01 -0.0000000e+00 6.9400002e+01 
-2.2737368e-12 -0.0000000e+00 2.8421709e-14 
-4.0927262e-12 -0.0000000e+00 -1.2789769e-13 
-5.4569682e-12 -0.0000000e+00 1.1368684e-13 
-1.8189894e-12 -0.0000000e+00 1.1368684e-13 
9.0949470e-12 -0.0000000e+00 -5.6843419e-14 
-3.0013325e-11 -0.0000000e+00 -5.6843419e-14 
-7.2759576e-12 -0.0000000e+00 -1.1368684e-13 
1.1368684e-11 -0.0000000e+00 1.1368684e-13 
4.0927262e-12 -0.0000000e+00 -3.9790393e-13 
-1.2960300e-11 -0.0000000e+00 -5.6843419e-14 
-4.7748472e-12 -0.0000000e+00 -2.2737368e-13 
-8.6401997e-12 -0.0000000e+00 -0.0000000e+00 
-5.2295945e-12 -0.0000000e+00 -3.4106051e-13 
7.4578566e-11 -0.0000000e+00 -0.0000000e+00 
-1.1368684e-12 -0.0000000e+00 1.7053026e-13 
-6.3664629e-12 -0.0000000e+00 -0.0000000e+00 
1.3187673e-11 -0.0000000e+00 -2.2737368e-13 
-3.4106051e-11 -0.0000000e+00 -1.1368684e-13 
-1.9326762e-12 -0.0000000e+00 -2.2737368e-13 
5.2295945e-12 -0.0000000e+00 -2.8421709e-14 
9.8907549e-12 -0.0000000e+00 -4.5496940e-13 
6.8212103e-12 -0.0000000e+00 -1.1368684e-13 
1.8189894e-12 -0.0000000e+00 -1.1368684e-13 
-5.1727511e-11 -0.0000000e+00 -0.0000000e+00 
-1.5575097e-11 -0.0000000e+00 1.7053026e-13 
-1.3187673e-11 -0.0000000e+00 -0.0000000e+00 
-1.9781510e-11 -0.0000000e+00 -0.0000000e+00 
1.8417268e-11 -0.0000000e+00 2.2715163e-13 
-1.6712187e-11 -0.0000000e+00 -1.1390888e-13 
-1.9667823e-11 -0.0000000e+00 1.4210855e-13 
1.8187674e-12 -0.0000000e+00 -3.0411229e-12 
-4.5476956e-12 -0.0000000e+00 2.8421709e-13 
-9.0971675e-13 -0.0000000e+00 1.4210855e-14 
-2.7287061e-12 -0.0000000e+00 1.5631940e-13 
-3.6379788e-12 -0.0000000e+00 1.4139800e-12 
1.8187674e-12 -0.0000000e+00 6.8212103e-13 
-3.6382009e-12 -0.0000000e+00 -2.9842795e-13 
-1.8192114e-12 -0.0000000e+00 5.9685590e-13 
-2.2204460e-16 -0.0000000e+00 7.5317530e-13 
-3.6379788e-12 -0.0000000e+00 3.1263880e-13 
-3.6382009e-12 -0.0000000e+00 5.6843419e-14 
1.8189894e-12 -0.0000000e+00 -6.2527761e-13 
-3.6382009e-12 -0.0000000e+00 3.7445602e-12 
1.8187674e-12 -0.0000000e+00 -8.0291329e-13 
-1.8189894e-12 -0.0000000e+00 1.4210855e-14 
-3.6379788e-12 -0.0000000e+00 -8.5265128e-13 
-2.2204460e-16 -0.0000000e+00 -1.1013412e-11 
-3.6382009e-12 -0.0000000e+00 4.2632564e-14 
-3.6379788e-12 -0.0000000e+00 7.1054274e-14 
1.8189894e-12 -0.0000000e+00 1.7053026e-13 
-3.6382009e-12 -0.0000000e+00 2.8421709e-14 
-2.2204460e-16 -0.0000000e+00 -1.5631940e-13 
-3.6382009e-12 -0.0000000e+00 -1.2811974e-13 
3.6377568e-12 -0.0000000e+00 2.8199665e-14 
REACTION_MOMENT 3 86  float
-0.0000000e+00 4.2064130e-12 -0.0000000e+00 
-0.0000000e+00 2.9558578e-12 -0.0000000e+00 
-0.0000000e+00 3.0695446e-12 -0.0000000e+00 
-0.0000000e+00 6.8212103e-13 -0.0000000e+00 
-0.0000000e+00 6.1959327e-12 -0.0000000e+00 
-0.0000000e+00 -6.4233063e-12 -0.0000000e+00 
-0.0000000e+00 2.8990144e-12 -0.0000000e+00 
-0.0000000e+00 4.7180038e-12 -0.0000000e+00 
-0.0000000e+00 5.6843419e-14 -0.0000000e+00 
-0.0000000e+00 9.7202246e-12 -0.0000000e+00 
-0.0000000e+00 -7.1054274e-12 -0.0000000e+00 
-0.0000000e+00 1.8815172e-11 -0.0000000e+00 
-0.0000000e+00 1.8076207e-11 -0.0000000e+00 
-0.0000000e+00 -9.8907549e-12 -0.0000000e+00 
-0.0000000e+00 -5.8832939e-12 -0.0000000e+00 
-0.0000000e+00 1.5546675e-11 -0.0000000e+00 
-0.0000000e+00 7.5601747e-12 -0.0000000e+00 
-0.0000000e+00 -8.9812602e-12 -0.0000000e+00 
-0.0000000e+00 -1.2732926e-11 -0.0000000e+00 
-0.0000000e+00 3.5242920e-12 -0.0000000e+00 
-0.0000000e+00 3.5811354e-12 -0.0000000e+00 
-0.0000000e+00 -9.9191766e-12 -0.0000000e+00 
-0.0000000e+00 -2.9842795e-12 -0.0000000e+00 
-0.0000000e+00 -9.6633812e-12 -0.0000000e+00 
-0.0000000e+00 3.3537617e-12 -0.0000000e+00 
-0.0000000e+00 -1.9078072e-11 -0.0000000e+00 
-0.0000000e+00 2.5352165e-11 -0.0000000e+00 
-0.0000000e+00 3.6465053e-11 -0.0000000e+00 
-0.0000000e+00 1.6058266e-12 -0.0000000e+00 
-0.0000000e+00 -2.0165203e-11 -0.0000000e+00 
-0.0000000e+00 -3.5527137e-12 -0.0000000e+00 
-0.0000000e+00 3.4106051e-13 -0.0000000e+00 
-0.0000000e+00 1.1368684e-13 -0.0000000e+00 
-0.0000000e+00 -0.0000000e+00 -0.0000000e+00 
-0.0000000e+00 -0.0000000e+00 -0.0000000e+00 
-0.0000000e+00 1.4949819e-11 -0.0000000e+00 
-0.0000000e+00 1.1709744e-11 -0.0000000e+00 
-0.0000000e+00 1.0061285e-11 -0.0000000e+00 
-0.0000000e+00 -3.2969183e-12 -0.0000000e+00 
-0.0000000e+00 -6.8212103e-12 -0.0000000e+00 
-0.0000000e+00 2.5579538e-12 -0.0000000e+00 
-0.0000000e+00 7.9012352e-12 -0.0000000e+00 
-0.0000000e+00 1.9213076e-11 -0.0000000e+00 
-0.0000000e+00 -2.1032065e-12 -0.0000000e+00 
-0.0000000e+00 1.0231815e-11 -0.0000000e+00 
-0.0000000e+00 1.1084467e-12 -0.0000000e+00 
-0.0000000e+00 -9.2086339e-12 -0.0000000e+00 
-0.0000000e+00 -3.9790393e-13 -0.0000000e+00 
-0.0000000e+00 3.4106051e-12 -0.0000000e+00 
-0.0000000e+00 -1.7053026e-13 -0.0000000e+00 
-0.0000000e+00 1.1254997e-11 -0.0000000e+00 
-0.0000000e+00 2.7000624e-12 -0.0000000e+00 
-0.0000000e+00 -2.0463631e-11 -0.0000000e+00 
-0.0000000e+00 -3.6379788e-12 -0.0000000e+00 
-0.0000000e+00 -1.0061285e-11 -0.0000000e+00 
-0.0000000e+00 -1.8644641e-11 -0.0000000e+00 
-0.0000000e+00 -8.4412477e-12 -0.0000000e+00 
-0.0000000e+00 2.8990144e-12 -0.0000000e+00 
-0.0000000e+00 -3.7914560e-11 -0.0000000e+00 
-0.0000000e+00 4.4906301e-12 -0.0000000e+00 
-0.0000000e+00 -8.3133500e-12 -0.0000000e+00 
-0.0000000e+00 2.4584779e-12 -0.0000000e+00 
-0.0000000e+00 -6.2527761e-13 -0.0000000e+00 
-0.0000000e+00 1.1368684e-13 -0.0000000e+00 
-0.0000000e+00 -8.8817842e-14 -0.0000000e+00 
-0.0000000e+00 1.1368684e-13 -0.0000000e+00 
-0.0000000e+00 7.8159701e-14 -0.0000000e+00 
-0.0000000e+00 -9.4146912e-13 -0.0000000e+00 
-0.0000000e+00 -2.2026825e-13 -0.0000000e+00 
-0.0000000e+00 -5.6843419e-14 -0.0000000e+00 
-0.0000000e+00 -7.9225515e-13 -0.0000000e+00 
-0.0000000e+00 -4.6185278e-14 -0.0000000e+00 
-0.0000000e+00 -2.7888802e-13 -0.0000000e+00 
-0.0000000e+00 -2.9132252e-13 -0.0000000e+00 
-0.0000000e+00 4.2632564e-13 -0.0000000e+00 
-0.0000000e+00 -5.9685590e-13 -0.0000000e+00 
-0.0000000e+00 1.9184654e-13 -0.0000000e+00 
-0.0000000e+00 -4.2632564e-14 -0.0000000e+00 
-0.0000000e+00 -3.3324454e-12 -0.0000000e+00 
-0.0000000e+00 -6.0751404e-13 -0.0000000e+00 
-0.0000000e+00 9.9475983e-14 -0.0000000e+00 
-0.0000000e+00 3.2684966e-13 -0.0000000e+00 
-0.0000000e+00 2.8421709e-14 -0.0000000e+00 
-0.0000000e+00 -0.0000000e+00 -0.0000000e+00 
-0.0000000e+00 -2.8421709e-14 -0.0000000e+00 
-0.0000000e+00 7.1054274e-15 -0.0000000e+00 
VOLUME_ACCELERATION 3 86  float
0.0000000e+00 0.0000000e+00 0.0000000e+00 
0.0000000e+00 0.0000000e+00 0.0000000e+00 
0.0000000e+00 0.0000000e+00 0.0000000e+00 
0.0000000e+00 0.0000000e+00 0.0000000e+00 
0.0000000e+00 0.0000000e+00 0.0000000e+00 
0.0000000e+00 0.0000000e+00 0.0000000e+00 
0.0000000e+00 0.0000000e+00 0.0000000e+00 
0.0000000e+00 0.0000000e+00 0.0000000e+00 
0.0000000e+00 0.0000000e+00 0.0000000e+00 
0.0000000e+00 0.0000000e+00 0.0000000e+00 
0.0000000e+00 0.0000000e+00 0.0000000e+00 
0.0000000e+00 0.0000000e+00 0.0000000e+00 
0.0000000e+00 0.0000000e+00 0.0000000e+00 
0.0000000e+00 0.0000000e+00 0.0000000e+00 
0.0000000e+00 0.0000000e+00 0.0000000e+00 
0.0000000e+00 0.0000000e+00 0.0000000e+00 
0.0000000e+00 0.0000000e+00 0.0000000e+00 
0.0000000e+00 0.0000000e+00 0.0000000e+00 
0.0000000e+00 0.0000000e+00 0.0000000e+00 
0.0000000e+00 0.0000000e+00 0.0000000e+00 
0.0000000e+00 0.0000000e+00 0.0000000e+00 
0.0000000e+00 0.0000000e+00 0.0000000e+00 
0.0000000e+00 0.0000000e+00 0.0000000e+00 
0.0000000e+00 0.0000000e+00 0.0000000e+00 
0.0000000e+00 0.0000000e+00 0.0000000e+00 
0.0000000e+00 0.0000000e+00 0.0000000e+00 
0.0000000e+00 0.0000000e+00 0.0000000e+00 
0.0000000e+00 0.0000000e+00 0.0000000e+00 
0.0000000e+00 0.0000000e+00 0.0000000e+00 
0.0000000e+00 0.0000000e+00 0.0000000e+00 
0.0000000e+00 0.0000000e+00 0.0000000e+00 
0.0000000e+00 0.0000000e+00 0.0000000e+00 
0.0000000e+00 0.0000000e+00 0.0000000e+00 
0.0000000e+00 0.0000000e+00 0.0000000e+00 
0.0000000e+00 0.0000000e+00 0.0000000e+00 
0.0000000e+00 0.0000000e+00 0.0000000e+00 
0.0000000e+00 0.0000000e+00 0.0000000e+00 
0.0000000e+00 0.0000000e+00 0.0000000e+00 
0.0000000e+00 0.0000000e+00 0.0000000e+00 
0.0000000e+00 0.0000000e+00 0.0000000e+00 
0.0000000e+00 0.0000000e+00 0.0000000e+00 
0.0000000e+00 0.0000000e+00 0.0000000e+00 
0.0000000e+00 0.0000000e+00 0.0000000e+00 
0.0000000e+00 0.0000000e+00 0.0000000e+00 
0.0000000e+00 0.0000000e+00 0.0000000e+00 
0.0000000e+00 0.0000000e+00 0.0000000e+00 
0.0000000e+00 0.0000000e+00 0.0000000e+00 
0.0000000e+00 0.0000000e+00 0.0000000e+00 
0.0000000e+00 0.0000000e+00 0.0000000e+00 
0.0000000e+00 0.0000000e+00 0.0000000e+00 
0.0000000e+00 0.0000000e+00 0.0000000e+00 
0.0000000e+00 0.0000000e+00 0.0000000e+00 
0.0000000e+00 0.0000000e+00 0.0000000e+00 
0.0000000e+00 0.0000000e+00 0.0000000e+00 
0.0000000e+00 0.0000000e+00 0.0000000e+00 
0.0000000e+00 0.0000000e+00 0.0000000e+00 
0.0000000e+00 0.0000000e+00 0.0000000e+00 
0.0000000e+00 0.0000000e+00 0.0000000e+00 
0.0000000e+00 0.0000000e+00 0.0000000e+00 
0.0000000e+00 0.0000000e+00 0.0000000e+00 
0.0000000e+00 0.0000000e+00 0.0000000e+00 
0.0000000e+00 0.0000000e+00 0.0000000e+00 
0.0000000e+00 0.0000000e+00 0.0000000e+00 
0.0000000e+00 0.0000000e+00 0.0000000e+00 
0.0000000e+00 0.0000000e+00 0.0000000e+00 
0.0000000e+00 0.0000000e+00 0.0000000e+00 
0.0000000e+00 0.0000000e+00 0.0000000e+00 
0.0000000e+00 0.0000000e+00 0.0000000e+00 
0.0000000e+00 0.0000000e+00 0.0000000e+00 
0.0000000e+00 0.0000000e+00 0.0000000e+00 
0.0000000e+00 0.0000000e+00 0.0000000e+00 
0.0000000e+00 0.0000000e+00 0.0000000e+00 
0.0000000e+00 0.0000000e+00 0.0000000e+00 
0.0000000e+00 0.0000000e+00 0.0000000e+00 
0.0000000e+00 0.0000000e+00 0.0000000e+00 
0.0000000e+00 0.0000000e+00 0.0000000e+00 
0.0000000e+00 0.0000000e+00 0.0000000e+00 
0.0000000e+00 0.0000000e+00 0.0000000e+00 
0.0000000e+00 0.0000000e+00 0.0000000e+00 
0.0000000e+00 0.0000000e+00 0.0000000e+00 
0.0000000e+00 0.0000000e+00 0.0000000e+00 
0.0000000e+00 0.0000000e+00 0.0000000e+00 
0.0000000e+00 0.0000000e+00 0.0000000e+00 
0.0000000e+00 0.0000000e+00 0.0000000e+00 
0.0000000e+00 0.0000000e+00 0.0000000e+00 
0.0000000e+00 0.0000000e+00 0.0000000e+00 
POINT_LOAD 3 86  float
0.0000000e+00 0.0000000e+00 0.0000000e+00 
1.0000000e+00 0.0000000e+00 1.0000000e+00 
1.0000000e+00 0.0000000e+00 1.0000000e+00 
1.0000000e+00 0.0000000e+00 1.0000000e+00 
0.0000000e+00 0.0000000e+00 0.0000000e+00 
0.0000000e+00 0.0000000e+00 0.0000000e+00 
1.0000000e+00 0.0000000e+00 1.0000000e+00 
0.0000000e+00 0.0000000e+00 0.0000000e+00 
1.0000000e+00 0.0000000e+00 1.0000000e+00 
1.0000000e+00 0.0000000e+00 1.0000000e+00 
1.0000000e+00 0.0000000e+00 1.0000000e+00 
1.0000000e+00 0.0000000e+00 1.0000000e+00 
0.0000000e+00 0.0000000e+00 0.0000000e+00 
1.0000000e+00 0.0000000e+00 1.0000000e+00 
0.0000000e+00 0.0000000e+00 0.0000000e+00 
1.0000000e+00 0.0000000e+00 1.0000000e+00 
1.0000000e+00 0.0000000e+00 1.0000000e+00 
1.0000000e+00 0.0000000e+00 1.0000000e+00 
1.0000000e+00 0.0000000e+00 1.0000000e+00 
1.0000000e+00 0.0000000e+00 1.0000000e+00 
1.0000000e+00 0.0000000e+00 1.0000000e+00 
1.0000000e+00 0.0000000e+00 1.0000000e+00 
1.0000000e+00 0.0000000e+00 1.0000000e+00 
1.0000000e+00 0.0000000e+00 1.0000000e+00 
1.0000000e+00 0.0000000e+00 1.0000000e+00 
0.0000000e+00 0.0000000e+00 0.0000000e+00 
1.0000000e+00 0.0000000e+00 1.0000000e+00 
1.0000000e+00 0.0000000e+00 1.0000000e+00 
1.0000000e+00 0.0000000e+00 1.0000000e+00 
0.0000000e+00 0.0000000e+00 0.0000000e+00 
1.0000000e+00 0.0000000e+00 1.0000000e+00 
0.0000000e+00 0.0000000e+00 0.0000000e+00 
1.0000000e+00 0.0000000e+00 1.0000000e+00 
1.0000000e+00 0.0000000e+00 1.0000000e+00 
0.0000000e+00 0.0000000e+00 0.0000000e+00 
1.0000000e+00 0.0000000e+00 1.0000000e+00 
1.0000000e+00 0.0000000e+00 1.0000000e+00 
1.0000000e+00 0.0000000e+00 1.0000000e+00 
0.0000000e+00 0.0000000e+00 0.0000000e+00 
1.0000000e+00 0.0000000e+00 1.0000000e+00 
1.0000000e+00 0.0000000e+00 1.0000000e+00 
1.0000000e+00 0.0000000e+00 1.0000000e+00 
1.0000000e+00 0.0000000e+00 1.0000000e+00 
1.0000000e+00 0.0000000e+00 1.0000000e+00 
1.0000000e+00 0.0000000e+00 1.0000000e+00 
1.0000000e+00 0.0000000e+00 1.0000000e+00 
1.0000000e+00 0.0000000e+00 1.0000000e+00 
1.0000000e+00 0.0000000e+00 1.0000000e+00 
0.0000000e+00 0.0000000e+00 0.0000000e+00 
0.0000000e+00 0.0000000e+00 0.0000000e+00 
1.0000000e+00 0.0000000e+00 1.0000000e+00 
1.0000000e+00 0.0000000e+00 1.0000000e+00 
1.0000000e+00 0.0000000e+00 1.0000000e+00 
0.0000000e+00 0.0000000e+00 0.0000000e+00 
1.0000000e+00 0.0000000e+00 1.0000000e+00 
1.0000000e+00 0.0000000e+00 1.0000000e+00 
0.0000000e+00 0.0000000e+00 0.0000000e+00 
0.0000000e+00 0.0000000e+00 0.0000000e+00 
0.0000000e+00 0.0000000e+00 0.0000000e+00 
1.0000000e+00 0.0000000e+00 1.0000000e+00 
1.0000000e+00 0.0000000e+00 1.0000000e+00 
0.0000000e+00 0.0000000e+00 0.0000000e+00 
1.0000000e+00 0.0000000e+00 1.0000000e+00 
1.0000000e+00 0.0000000e+00 1.0000000e+00 
1.0000000e+00 0.0000000e+00 1.0000000e+00 
1.0000000e+00 0.0000000e+00 1.0000000e+00 
0.0000000e+00 0.0000000e+00 0.0000000e+00 
1.0000000e+00 0.0000000e+00 1.0000000e+00 
1.0000000e+00 0.0000000e+00 1.0000000e+00 
1.0000000e+00 0.0000000e+00 1.0000000e+00 
1.0000000e+00 0.0000000e+00 1.0000000e+00 
0.0000000e+00 0.0000000e+00 0.0000000e+00 
1.0000000e+00 0.0000000e+00 1.0000000e+00 
0.0000000e+00 0.0000000e+00 0.0000000e+00 
1.0000000e+00 0.0000000e+00 1.0000000e+00 
1.0000000e+00 0.0000000e+00 1.0000000e+00 
1.0000000e+00 0.0000000e+00 1.0000000e+00 
0.0000000e+00 0.0000000e+00 0.0000000e+00 
1.0000000e+00 0.0000000e+00 1.0000000e+00 
1.0000000e+00 0.0000000e+00 1.0000000e+00 
1.0000000e+00 0.0000000e+00 1.0000000e+00 
0.0000000e+00 0.0000000e+00 0.0000000e+00 
1.0000000e+00 0.0000000e+00 1.0000000e+00 
1.0000000e+00 0.0000000e+00 1.0000000e+00 
1.0000000e+00 0.0000000e+00 1.0000000e+00 
1.0000000e+00 0.0000000e+00 1.0000000e+00 
POINT_MOMENT 3 86  float
0.0000000e+00 0.0000000e+00 0.0000000e+00 
0.0000000e+00 0.0000000e+00 0.0000000e+00 
0.0000000e+00 0.0000000e+00 0.0000000e+00 
0.0000000e+00 0.0000000e+00 0.0000000e+00 
0.0000000e+00 0.0000000e+00 0.0000000e+00 
0.0000000e+00 0.0000000e+00 0.0000000e+00 
0.0000000e+00 0.0000000e+00 0.0000000e+00 
0.0000000e+00 0.0000000e+00 0.0000000e+00 
0.0000000e+00 0.0000000e+00 0.0000000e+00 
0.0000000e+00 0.0000000e+00 0.0000000e+00 
0.0000000e+00 0.0000000e+00 0.0000000e+00 
0.0000000e+00 0.0000000e+00 0.0000000e+00 
0.0000000e+00 0.0000000e+00 0.0000000e+00 
0.0000000e+00 0.0000000e+00 0.0000000e+00 
0.0000000e+00 0.0000000e+00 0.0000000e+00 
0.0000000e+00 0.0000000e+00 0.0000000e+00 
0.0000000e+00 0.0000000e+00 0.0000000e+00 
0.0000000e+00 0.0000000e+00 0.0000000e+00 
0.0000000e+00 0.0000000e+00 0.0000000e+00 
0.0000000e+00 0.0000000e+00 0.0000000e+00 
0.0000000e+00 0.0000000e+00 0.0000000e+00 
0.0000000e+00 0.0000000e+00 0.0000000e+00 
0.0000000e+00 0.0000000e+00 0.0000000e+00 
0.0000000e+00 0.0000000e+00 0.0000000e+00 
0.0000000e+00 0.0000000e+00 0.0000000e+00 
0.0000000e+00 0.0000000e+00 0.0000000e+00 
0.0000000e+00 0.0000000e+00 0.0000000e+00 
0.0000000e+00 0.0000000e+00 0.0000000e+00 
0.0000000e+00 0.0000000e+00 0.0000000e+00 
0.0000000e+00 0.0000000e+00 0.0000000e+00 
0.0000000e+00 0.0000000e+00 0.0000000e+00 
0.0000000e+00 0.0000000e+00 0.0000000e+00 
0.0000000e+00 0.0000000e+00 0.0000000e+00 
0.0000000e+00 0.0000000e+00 0.0000000e+00 
0.0000000e+00 0.0000000e+00 0.0000000e+00 
0.0000000e+00 0.0000000e+00 0.0000000e+00 
0.0000000e+00 0.0000000e+00 0.0000000e+00 
0.0000000e+00 0.0000000e+00 0.0000000e+00 
0.0000000e+00 0.0000000e+00 0.0000000e+00 
0.0000000e+00 0.0000000e+00 0.0000000e+00 
0.0000000e+00 0.0000000e+00 0.0000000e+00 
0.0000000e+00 0.0000000e+00 0.0000000e+00 
0.0000000e+00 0.0000000e+00 0.0000000e+00 
0.0000000e+00 0.0000000e+00 0.0000000e+00 
0.0000000e+00 0.0000000e+00 0.0000000e+00 
0.0000000e+00 0.0000000e+00 0.0000000e+00 
0.0000000e+00 0.0000000e+00 0.0000000e+00 
0.0000000e+00 0.0000000e+00 0.0000000e+00 
0.0000000e+00 0.0000000e+00 0.0000000e+00 
0.0000000e+00 0.0000000e+00 0.0000000e+00 
0.0000000e+00 0.0000000e+00 0.0000000e+00 
0.0000000e+00 0.0000000e+00 0.0000000e+00 
0.0000000e+00 0.0000000e+00 0.0000000e+00 
0.0000000e+00 0.0000000e+00 0.0000000e+00 
0.0000000e+00 0.0000000e+00 0.0000000e+00 
0.0000000e+00 0.0000000e+00 0.0000000e+00 
0.0000000e+00 0.0000000e+00 0.0000000e+00 