# vtk DataFile Version 4.0
vtk output
ASCII
DATASET UNSTRUCTURED_GRID
POINTS 212 float
0.0000000e+00 0.0000000e+00 0.0000000e+00 
0.0000000e+00 0.0000000e+00 2.5000000e-01 
0.0000000e+00 0.0000000e+00 5.0000000e-01 
0.0000000e+00 0.0000000e+00 7.5000000e-01 
0.0000000e+00 0.0000000e+00 1.0000000e+00 
0.0000000e+00 0.0000000e+00 1.2500000e+00 
0.0000000e+00 0.0000000e+00 1.5000000e+00 
0.0000000e+00 0.0000000e+00 1.7500000e+00 
0.0000000e+00 0.0000000e+00 2.0000000e+00 
0.0000000e+00 0.0000000e+00 2.2500000e+00 
0.0000000e+00 0.0000000e+00 2.5000000e+00 
0.0000000e+00 0.0000000e+00 2.7500000e+00 
0.0000000e+00 0.0000000e+00 3.0000000e+00 
0.0000000e+00 0.0000000e+00 3.2500000e+00 
0.0000000e+00 0.0000000e+00 3.5000000e+00 
0.0000000e+00 0.0000000e+00 3.7500000e+00 
0.0000000e+00 0.0000000e+00 4.0000000e+00 
0.0000000e+00 0.0000000e+00 4.2500000e+00 
0.0000000e+00 0.0000000e+00 4.5000000e+00 
0.0000000e+00 0.0000000e+00 4.7500000e+00 
0.0000000e+00 0.0000000e+00 5.0000000e+00 
0.0000000e+00 0.0000000e+00 5.2500000e+00 
0.0000000e+00 0.0000000e+00 5.5000000e+00 
0.0000000e+00 0.0000000e+00 5.7500000e+00 
0.0000000e+00 0.0000000e+00 6.0000000e+00 
0.0000000e+00 0.0000000e+00 6.2500000e+00 
0.0000000e+00 0.0000000e+00 6.5000000e+00 
0.0000000e+00 0.0000000e+00 6.7500000e+00 
0.0000000e+00 0.0000000e+00 7.0000000e+00 
0.0000000e+00 0.0000000e+00 7.2500000e+00 
0.0000000e+00 0.0000000e+00 7.5000000e+00 
0.0000000e+00 0.0000000e+00 7.7500000e+00 
0.0000000e+00 0.0000000e+00 8.0000000e+00 
0.0000000e+00 0.0000000e+00 8.2500000e+00 
0.0000000e+00 0.0000000e+00 8.5000000e+00 
0.0000000e+00 0.0000000e+00 8.7500000e+00 
0.0000000e+00 0.0000000e+00 9.0000000e+00 
0.0000000e+00 0.0000000e+00 9.2500000e+00 
0.0000000e+00 0.0000000e+00 9.5000000e+00 
0.0000000e+00 0.0000000e+00 9.7500000e+00 
0.0000000e+00 0.0000000e+00 1.0000000e+01 
0.0000000e+00 0.0000000e+00 1.0250000e+01 
0.0000000e+00 0.0000000e+00 1.0500000e+01 
0.0000000e+00 0.0000000e+00 1.0750000e+01 
0.0000000e+00 0.0000000e+00 1.1000000e+01 
0.0000000e+00 0.0000000e+00 1.1250000e+01 
0.0000000e+00 0.0000000e+00 1.1500000e+01 
0.0000000e+00 0.0000000e+00 1.1750000e+01 
0.0000000e+00 0.0000000e+00 1.2000000e+01 
0.0000000e+00 0.0000000e+00 1.2250000e+01 
0.0000000e+00 0.0000000e+00 1.2500000e+01 
0.0000000e+00 0.0000000e+00 1.2750000e+01 
0.0000000e+00 0.0000000e+00 1.3000000e+01 
0.0000000e+00 0.0000000e+00 1.3250000e+01 
0.0000000e+00 0.0000000e+00 1.3500000e+01 
0.0000000e+00 0.0000000e+00 1.3750000e+01 
0.0000000e+00 0.0000000e+00 1.4000000e+01 
0.0000000e+00 0.0000000e+00 1.4250000e+01 
0.0000000e+00 0.0000000e+00 1.4500000e+01 
0.0000000e+00 0.0000000e+00 1.4750000e+01 
0.0000000e+00 0.0000000e+00 1.5000000e+01 
0.0000000e+00 0.0000000e+00 1.5250000e+01 
0.0000000e+00 0.0000000e+00 1.5500000e+01 
0.0000000e+00 0.0000000e+00 1.5750000e+01 
0.0000000e+00 0.0000000e+00 1.6000000e+01 
0.0000000e+00 0.0000000e+00 1.6250000e+01 
0.0000000e+00 0.0000000e+00 1.6500000e+01 
0.0000000e+00 0.0000000e+00 1.6750000e+01 
0.0000000e+00 0.0000000e+00 1.7000000e+01 
0.0000000e+00 0.0000000e+00 1.7250000e+01 
0.0000000e+00 0.0000000e+00 1.7500000e+01 
0.0000000e+00 0.0000000e+00 1.7750000e+01 
0.0000000e+00 0.0000000e+00 1.8000000e+01 
5.0000000e-01 0.0000000e+00 3.0000000e+00 
5.0000000e-01 0.0000000e+00 6.0000000e+00 
5.0000000e-01 0.0000000e+00 9.0000000e+00 
5.0000000e-01 0.0000000e+00 1.2000000e+01 
5.0000000e-01 0.0000000e+00 1.5000000e+01 
5.0000000e-01 0.0000000e+00 1.8000000e+01 
1.0000000e+00 0.0000000e+00 3.0000000e+00 
1.0000000e+00 0.0000000e+00 6.0000000e+00 
1.0000000e+00 0.0000000e+00 9.0000000e+00 
1.0000000e+00 0.0000000e+00 1.2000000e+01 
1.0000000e+00 0.0000000e+00 1.5000000e+01 
1.0000000e+00 0.0000000e+00 1.8000000e+01 
1.5000000e+00 0.0000000e+00 3.0000000e+00 
1.5000000e+00 0.0000000e+00 6.0000000e+00 
1.5000000e+00 0.0000000e+00 9.0000000e+00 
1.5000000e+00 0.0000000e+00 1.2000000e+01 
1.5000000e+00 0.0000000e+00 1.5000000e+01 
1.5000000e+00 0.0000000e+00 1.8000000e+01 
2.0000000e+00 0.0000000e+00 3.0000000e+00 
2.0000000e+00 0.0000000e+00 6.0000000e+00 
2.0000000e+00 0.0000000e+00 9.0000000e+00 
2.0000000e+00 0.0000000e+00 1.2000000e+01 
2.0000000e+00 0.0000000e+00 1.5000000e+01 
2.0000000e+00 0.0000000e+00 1.8000000e+01 
2.5000000e+00 0.0000000e+00 3.0000000e+00 
2.5000000e+00 0.0000000e+00 6.0000000e+00 
2.5000000e+00 0.0000000e+00 9.0000000e+00 
2.5000000e+00 0.0000000e+00 1.2000000e+01 
2.5000000e+00 0.0000000e+00 1.5000000e+01 
2.5000000e+00 0.0000000e+00 1.8000000e+01 
3.0000000e+00 0.0000000e+00 3.0000000e+00 
3.0000000e+00 0.0000000e+00 6.0000000e+00 
3.0000000e+00 0.0000000e+00 9.0000000e+00 
3.0000000e+00 0.0000000e+00 1.2000000e+01 
3.0000000e+00 0.0000000e+00 1.5000000e+01 
3.0000000e+00 0.0000000e+00 1.8000000e+01 
3.5000000e+00 0.0000000e+00 3.0000000e+00 
3.5000000e+00 0.0000000e+00 6.0000000e+00 
3.5000000e+00 0.0000000e+00 9.0000000e+00 
3.5000000e+00 0.0000000e+00 1.2000000e+01 
3.5000000e+00 0.0000000e+00 1.5000000e+01 
3.5000000e+00 0.0000000e+00 1.8000000e+01 
4.0000000e+00 0.0000000e+00 3.0000000e+00 
4.0000000e+00 0.0000000e+00 6.0000000e+00 
4.0000000e+00 0.0000000e+00 9.0000000e+00 
4.0000000e+00 0.0000000e+00 1.2000000e+01 
4.0000000e+00 0.0000000e+00 1.5000000e+01 
4.0000000e+00 0.0000000e+00 1.8000000e+01 
4.5000000e+00 0.0000000e+00 3.0000000e+00 
4.5000000e+00 0.0000000e+00 6.0000000e+00 
4.5000000e+00 0.0000000e+00 9.0000000e+00 
4.5000000e+00 0.0000000e+00 1.2000000e+01 
4.5000000e+00 0.0000000e+00 1.5000000e+01 
4.5000000e+00 0.0000000e+00 1.8000000e+01 
5.0000000e+00 0.0000000e+00 3.0000000e+00 
5.0000000e+00 0.0000000e+00 6.0000000e+00 
5.0000000e+00 0.0000000e+00 9.0000000e+00 
5.0000000e+00 0.0000000e+00 1.2000000e+01 
5.0000000e+00 0.0000000e+00 1.5000000e+01 
5.0000000e+00 0.0000000e+00 1.8000000e+01 
5.5000000e+00 0.0000000e+00 3.0000000e+00 
5.5000000e+00 0.0000000e+00 6.0000000e+00 
5.5000000e+00 0.0000000e+00 9.0000000e+00 
5.5000000e+00 0.0000000e+00 1.2000000e+01 
5.5000000e+00 0.0000000e+00 1.5000000e+01 
5.5000000e+00 0.0000000e+00 1.8000000e+01 
6.0000000e+00 0.0000000e+00 0.0000000e+00 
6.0000000e+00 0.0000000e+00 2.5000000e-01 
6.0000000e+00 0.0000000e+00 5.0000000e-01 
6.0000000e+00 0.0000000e+00 7.5000000e-01 
6.0000000e+00 0.0000000e+00 1.0000000e+00 
6.0000000e+00 0.0000000e+00 1.2500000e+00 
6.0000000e+00 0.0000000e+00 1.5000000e+00 
6.0000000e+00 0.0000000e+00 1.7500000e+00 
6.0000000e+00 0.0000000e+00 2.0000000e+00 
6.0000000e+00 0.0000000e+00 2.2500000e+00 
6.0000000e+00 0.0000000e+00 2.5000000e+00 
6.0000000e+00 0.0000000e+00 2.7500000e+00 
6.0000000e+00 0.0000000e+00 3.0000000e+00 
6.0000000e+00 0.0000000e+00 3.2500000e+00 
6.0000000e+00 0.0000000e+00 3.5000000e+00 
6.0000000e+00 0.0000000e+00 3.7500000e+00 
6.0000000e+00 0.0000000e+00 4.0000000e+00 
6.0000000e+00 0.0000000e+00 4.2500000e+00 
6.0000000e+00 0.0000000e+00 4.5000000e+00 
6.0000000e+00 0.0000000e+00 4.7500000e+00 
6.0000000e+00 0.0000000e+00 5.0000000e+00 
6.0000000e+00 0.0000000e+00 5.2500000e+00 
6.0000000e+00 0.0000000e+00 5.5000000e+00 
6.0000000e+00 0.0000000e+00 5.7500000e+00 
6.0000000e+00 0.0000000e+00 6.0000000e+00 
6.0000000e+00 0.0000000e+00 6.2500000e+00 
6.0000000e+00 0.0000000e+00 6.5000000e+00 
6.0000000e+00 0.0000000e+00 6.7500000e+00 
6.0000000e+00 0.0000000e+00 7.0000000e+00 
6.0000000e+00 0.0000000e+00 7.2500000e+00 
6.0000000e+00 0.0000000e+00 7.5000000e+00 
6.0000000e+00 0.0000000e+00 7.7500000e+00 
6.0000000e+00 0.0000000e+00 8.0000000e+00 
6.0000000e+00 0.0000000e+00 8.2500000e+00 
6.0000000e+00 0.0000000e+00 8.5000000e+00 
6.0000000e+00 0.0000000e+00 8.7500000e+00 
6.0000000e+00 0.0000000e+00 9.0000000e+00 
6.0000000e+00 0.0000000e+00 9.2500000e+00 
6.0000000e+00 0.0000000e+00 9.5000000e+00 
6.0000000e+00 0.0000000e+00 9.7500000e+00 
6.0000000e+00 0.0000000e+00 1.0000000e+01 
6.0000000e+00 0.0000000e+00 1.0250000e+01 
6.0000000e+00 0.0000000e+00 1.0500000e+01 
6.0000000e+00 0.0000000e+00 1.0750000e+01 
6.0000000e+00 0.0000000e+00 1.1000000e+01 
6.0000000e+00 0.0000000e+00 1.1250000e+01 
6.0000000e+00 0.0000000e+00 1.1500000e+01 
6.0000000e+00 0.0000000e+00 1.1750000e+01 
6.0000000e+00 0.0000000e+00 1.2000000e+01 
6.0000000e+00 0.0000000e+00 1.2250000e+01 
6.0000000e+00 0.0000000e+00 1.2500000e+01 
6.0000000e+00 0.0000000e+00 1.2750000e+01 
6.0000000e+00 0.0000000e+00 1.3000000e+01 
6.0000000e+00 0.0000000e+00 1.3250000e+01 
6.0000000e+00 0.0000000e+00 1.3500000e+01 
6.0000000e+00 0.0000000e+00 1.3750000e+01 
6.0000000e+00 0.0000000e+00 1.4000000e+01 
6.0000000e+00 0.0000000e+00 1.4250000e+01 
6.0000000e+00 0.0000000e+00 1.4500000e+01 
6.0000000e+00 0.0000000e+00 1.4750000e+01 
6.0000000e+00 0.0000000e+00 1.5000000e+01 
6.0000000e+00 0.0000000e+00 1.5250000e+01 
6.0000000e+00 0.0000000e+00 1.5500000e+01 
6.0000000e+00 0.0000000e+00 1.5750000e+01 
6.0000000e+00 0.0000000e+00 1.6000000e+01 
6.0000000e+00 0.0000000e+00 1.6250000e+01 
6.0000000e+00 0.0000000e+00 1.6500000e+01 
6.0000000e+00 0.0000000e+00 1.6750000e+01 
6.0000000e+00 0.0000000e+00 1.7000000e+01 
6.0000000e+00 0.0000000e+00 1.7250000e+01 
6.0000000e+00 0.0000000e+00 1.7500000e+01 
6.0000000e+00 0.0000000e+00 1.7750000e+01 
6.0000000e+00 0.0000000e+00 1.8000000e+01 

CELLS 216 648
2 0 1
2 1 2
2 2 3
2 3 4
2 4 5
2 5 6
2 6 7
2 7 8
2 8 9
2 9 10
2 10 11
2 11 12
2 12 13
2 13 14
2 14 15
2 15 16
2 16 17
2 17 18
2 18 19
2 19 20
2 20 21
2 21 22
2 22 23
2 23 24
2 24 25
2 25 26
2 26 27
2 27 28
2 28 29
2 29 30
2 30 31
2 31 32
2 32 33
2 33 34
2 34 35
2 35 36
2 36 37
2 37 38
2 38 39
2 39 40
2 40 41
2 41 42
2 42 43
2 43 44
2 44 45
2 45 46
2 46 47
2 47 48
2 48 49
2 49 50
2 50 51
2 51 52
2 52 53
2 53 54
2 54 55
2 55 56
2 56 57
2 57 58
2 58 59
2 59 60
2 60 61
2 61 62
2 62 63
2 63 64
2 64 65
2 65 66
2 66 67
2 67 68
2 68 69
2 69 70
2 70 71
2 71 72
2 139 140
2 140 141
2 141 142
2 142 143
2 143 144
2 144 145
2 145 146
2 146 147
2 147 148
2 148 149
2 149 150
2 150 151
2 151 152
2 152 153
2 153 154
2 154 155
2 155 156
2 156 157
2 157 158
2 158 159
2 159 160
2 160 161
2 161 162
2 162 163
2 163 164
2 164 165
2 165 166
2 166 167
2 167 168
2 168 169
2 169 170
2 170 171
2 171 172
2 172 173
2 173 174
2 174 175
2 175 176
2 176 177
2 177 178
2 178 179
2 179 180
2 180 181
2 181 182
2 182 183
2 183 184
2 184 185
2 185 186
2 186 187
2 187 188
2 188 189
2 189 190
2 190 191
2 191 192
2 192 193
2 193 194
2 194 195
2 195 196
2 196 197
2 197 198
2 198 199
2 199 200
2 200 201
2 201 202
2 202 203
2 203 204
2 204 205
2 205 206
2 206 207
2 207 208
2 208 209
2 209 210
2 210 211
2 12 73
2 73 79
2 79 85
2 85 91
2 91 97
2 97 103
2 103 109
2 109 115
2 115 121
2 121 127
2 127 133
2 133 151
2 24 74
2 74 80
2 80 86
2 86 92
2 92 98
2 98 104
2 104 110
2 110 116
2 116 122
2 122 128
2 128 134
2 134 163
2 36 75
2 75 81
2 81 87
2 87 93
2 93 99
2 99 105
2 105 111
2 111 117
2 117 123
2 123 129
2 129 135
2 135 175
2 48 76
2 76 82
2 82 88
2 88 94
2 94 100
2 100 106
2 106 112
2 112 118
2 118 124
2 124 130
2 130 136
2 136 187
2 60 77
2 77 83
2 83 89
2 89 95
2 95 101
2 101 107
2 107 113
2 113 119
2 119 125
2 125 131
2 131 137
2 137 199
2 72 78
2 78 84
2 84 90
2 90 96
2 96 102
2 102 108
2 108 114
2 114 120
2 120 126
2 126 132
2 132 138
2 138 211

CELL_TYPES 216
3
3
3
3
3
3
3
3
3
3
3
3
3
3
3
3
3
3
3
3
3
3
3
3
3
3
3
3
3
3
3
3
3
3
3
3
3
3
3
3
3
3
3
3
3
3
3
3
3
3
3
3
3
3
3
3
3
3
3
3
3
3
3
3
3
3
3
3
3
3
3
3
3
3
3
3
3
3
3
3
3
3
3
3
3
3
3
3
3
3
3
3
3
3
3
3
3
3
3
3
3
3
3
3
3
3
3
3
3
3
3
3
3
3
3
3
3
3
3
3
3
3
3
3
3
3
3
3
3
3
3
3
3
3
3
3
3
3
3
3
3
3
3
3
3
3
3
3
3
3
3
3
3
3
3
3
3
3
3
3
3
3
3
3
3
3
3
3
3
3
3
3
3
3
3
3
3
3
3
3
3
3
3
3
3
3
3
3
3
3
3
3
3
3
3
3
3
3
3
3
3
3
3
3
3
3
3
3
3
3
3
3
3
3
3
3
POINT_DATA 212
FIELD FieldData 8
DISPLACEMENT 3 212  float
0.0000000e+00 0.0000000e+00 0.0000000e+00 
-1.1061754e-03 0.0000000e+00 -2.3837096e-05 
-2.1659588e-03 0.0000000e+00 -4.7509107e-05 
-3.1329577e-03 0.0000000e+00 -7.1016038e-05 
-3.9607803e-03 0.0000000e+00 -9.4357878e-05 
-4.6030344e-03 0.0000000e+00 -1.1753464e-04 
-5.0133280e-03 0.0000000e+00 -1.4054631e-04 
-5.1452685e-03 0.0000000e+00 -1.6339291e-04 
-4.9524643e-03 0.0000000e+00 -1.8607441e-04 
-4.3885228e-03 0.0000000e+00 -2.0859083e-04 
-3.4070525e-03 0.0000000e+00 -2.3094217e-04 
-1.9616608e-03 0.0000000e+00 -2.5312841e-04 
-5.9555341e-06 0.0000000e+00 -2.7514959e-04 
1.7540838e-03 0.0000000e+00 -2.9500009e-04 
2.6836630e-03 0.0000000e+00 -3.1468549e-04 
2.9359516e-03 0.0000000e+00 -3.3420580e-04 
2.6641190e-03 0.0000000e+00 -3.5356104e-04 
2.0213351e-03 0.0000000e+00 -3.7275121e-04 
1.1607691e-03 0.0000000e+00 -3.9177627e-04 
2.3559092e-04 0.0000000e+00 -4.1063625e-04 
-6.0103007e-04 0.0000000e+00 -4.2933115e-04 
-1.1959242e-03 0.0000000e+00 -4.4786098e-04 
-1.3959219e-03 0.0000000e+00 -4.6622570e-04 
-1.0478537e-03 0.0000000e+00 -4.8442534e-04 
1.4500663e-06 0.0000000e+00 -5.0245994e-04 
1.0983520e-03 0.0000000e+00 -5.1832380e-04 
1.5718826e-03 0.0000000e+00 -5.3402258e-04 
1.5492131e-03 0.0000000e+00 -5.4955628e-04 
1.1575145e-03 0.0000000e+00 -5.6492497e-04 
5.2395806e-04 0.0000000e+00 -5.8012846e-04 
-2.2428510e-04 0.0000000e+00 -5.9516693e-04 
-9.6004375e-04 0.0000000e+00 -6.1004033e-04 
-1.5561468e-03 0.0000000e+00 -6.2474865e-04 
-1.8854229e-03 0.0000000e+00 -6.3929183e-04 
-1.8207011e-03 0.0000000e+00 -6.5366994e-04 
-1.2348100e-03 0.0000000e+00 -6.6788297e-04 
-5.7856204e-07 0.0000000e+00 -6.8193092e-04 
1.2146616e-03 0.0000000e+00 -6.9380825e-04 
1.7504945e-03 0.0000000e+00 -7.0552039e-04 
1.7444643e-03 0.0000000e+00 -7.1706751e-04 
1.3341152e-03 0.0000000e+00 -7.2844955e-04 
6.5699156e-04 0.0000000e+00 -7.3966652e-04 
-1.4936227e-04 0.0000000e+00 -7.5071835e-04 
-9.4740209e-04 0.0000000e+00 -7.6160510e-04 
-1.5995837e-03 0.0000000e+00 -7.7232678e-04 
-1.9683626e-03 0.0000000e+00 -7.8288344e-04 
-1.9161946e-03 0.0000000e+00 -7.9327490e-04 
-1.3055356e-03 0.0000000e+00 -8.0350135e-04 
1.1589391e-06 0.0000000e+00 -8.1356271e-04 
1.3458955e-03 0.0000000e+00 -8.2145340e-04 
2.0568280e-03 0.0000000e+00 -8.2917896e-04 
2.2507221e-03 0.0000000e+00 -8.3673949e-04 
2.0443434e-03 0.0000000e+00 -8.4413489e-04 
1.5544574e-03 0.0000000e+00 -8.5136521e-04 
8.9782954e-04 0.0000000e+00 -8.5843046e-04 
1.9122539e-04 0.0000000e+00 -8.6533063e-04 
-4.4858948e-04 0.0000000e+00 -8.7206572e-04 
-9.0484961e-04 0.0000000e+00 -8.7863574e-04 
-1.0607895e-03 0.0000000e+00 -8.8504062e-04 
-7.9964334e-04 0.0000000e+00 -8.9128048e-04 
-4.6459600e-06 0.0000000e+00 -8.9735520e-04 
6.3778862e-04 0.0000000e+00 -9.0125925e-04 
4.9677811e-04 0.0000000e+00 -9.0499822e-04 
-2.2761397e-04 0.0000000e+00 -9.0857211e-04 
-1.3353241e-03 0.0000000e+00 -9.1198093e-04 
-2.6262889e-03 0.0000000e+00 -9.1522466e-04 
-3.9004451e-03 0.0000000e+00 -9.1830333e-04 
-4.9577286e-03 0.0000000e+00 -9.2121685e-04 
-5.5980766e-03 0.0000000e+00 -9.2396536e-04 
-5.6214253e-03 0.0000000e+00 -9.2654873e-04 
-4.8277113e-03 0.0000000e+00 -9.2896703e-04 
-3.0168712e-03 0.0000000e+00 -9.3122025e-04 
1.1158581e-05 0.0000000e+00 -9.3330839e-04 
-4.9629448e-06 0.0000000e+00 -7.2574019e-03 
1.2083885e-06 0.0000000e+00 -6.0632410e-03 
-4.8213502e-07 0.0000000e+00 -6.5173712e-03 
9.6578265e-07 0.0000000e+00 -6.8319114e-03 
-3.8716335e-06 0.0000000e+00 -5.8162254e-03 
9.2988184e-06 0.0000000e+00 -1.0623369e-02 
-3.9703559e-06 0.0000000e+00 -1.7285177e-02 
9.6671090e-07 0.0000000e+00 -1.4927994e-02 
-3.8570801e-07 0.0000000e+00 -1.5606846e-02 
7.7262609e-07 0.0000000e+00 -1.6071038e-02 
-3.0973065e-06 0.0000000e+00 -1.4155780e-02 
7.4390546e-06 0.0000000e+00 -2.2866625e-02 
-2.9777671e-06 0.0000000e+00 -2.7769461e-02 
7.2503315e-07 0.0000000e+00 -2.4507707e-02 
-2.8928099e-07 0.0000000e+00 -2.5361340e-02 
5.7946960e-07 0.0000000e+00 -2.5941929e-02 
-2.3229800e-06 0.0000000e+00 -2.3327002e-02 
5.5792907e-06 0.0000000e+00 -3.5074059e-02 
-1.9851780e-06 0.0000000e+00 -3.6696579e-02 
4.8335545e-07 0.0000000e+00 -3.2788698e-02 
-1.9285397e-07 0.0000000e+00 -3.3767179e-02 
3.8631310e-07 0.0000000e+00 -3.4430906e-02 
-1.5486532e-06 0.0000000e+00 -3.1316217e-02 
3.7195273e-06 0.0000000e+00 -4.5231998e-02 
-9.9258898e-07 0.0000000e+00 -4.2628184e-02 
2.4167775e-07 0.0000000e+00 -3.8332630e-02 
-9.6426952e-08 0.0000000e+00 -3.9386015e-02 
1.9315658e-07 0.0000000e+00 -4.0099632e-02 
-7.7432657e-07 0.0000000e+00 -3.6685083e-02 
1.8597636e-06 0.0000000e+00 -5.1902097e-02 
2.5222613e-14 0.0000000e+00 -4.4701274e-02 
4.3918438e-14 0.0000000e+00 -4.0276498e-02 
6.0435537e-14 0.0000000e+00 -4.1354854e-02 
7.6215557e-14 0.0000000e+00 -4.2085093e-02 
9.2166197e-14 0.0000000e+00 -3.8570594e-02 
1.0367153e-13 0.0000000e+00 -5.4221354e-02 
9.9258898e-07 0.0000000e+00 -4.2628184e-02 
-2.4167767e-07 0.0000000e+00 -3.8332630e-02 
9.6427073e-08 0.0000000e+00 -3.9386015e-02 
-1.9315644e-07 0.0000000e+00 -4.0099632e-02 
7.7432674e-07 0.0000000e+00 -3.6685083e-02 
-1.8597635e-06 0.0000000e+00 -5.1902097e-02 
1.9851780e-06 0.0000000e+00 -3.6696579e-02 
-4.8335534e-07 0.0000000e+00 -3.2788698e-02 
1.9285409e-07 0.0000000e+00 -3.3767179e-02 
-3.8631293e-07 0.0000000e+00 -3.4430906e-02 
1.5486535e-06 0.0000000e+00 -3.1316217e-02 
-3.7195271e-06 0.0000000e+00 -4.5231998e-02 
2.9777671e-06 0.0000000e+00 -2.7769461e-02 
-7.2503309e-07 0.0000000e+00 -2.4507707e-02 
2.8928110e-07 0.0000000e+00 -2.5361340e-02 
-5.7946943e-07 0.0000000e+00 -2.5941929e-02 
2.3229802e-06 0.0000000e+00 -2.3327002e-02 
-5.5792907e-06 0.0000000e+00 -3.5074059e-02 
3.9703559e-06 0.0000000e+00 -1.7285177e-02 
-9.6671079e-07 0.0000000e+00 -1.4927994e-02 
3.8570812e-07 0.0000000e+00 -1.5606846e-02 
-7.7262598e-07 0.0000000e+00 -1.6071038e-02 
3.0973067e-06 0.0000000e+00 -1.4155780e-02 
-7.4390541e-06 0.0000000e+00 -2.2866625e-02 
4.9629452e-06 0.0000000e+00 -7.2574019e-03 
-1.2083884e-06 0.0000000e+00 -6.0632410e-03 
4.8213514e-07 0.0000000e+00 -6.5173712e-03 
-9.6578242e-07 0.0000000e+00 -6.8319114e-03 
3.8716335e-06 0.0000000e+00 -5.8162254e-03 
-9.2988175e-06 0.0000000e+00 -1.0623369e-02 
0.0000000e+00 0.0000000e+00 0.0000000e+00 
1.1061754e-03 0.0000000e+00 -2.3837096e-05 
2.1659588e-03 0.0000000e+00 -4.7509107e-05 
3.1329577e-03 0.0000000e+00 -7.1016038e-05 
3.9607803e-03 0.0000000e+00 -9.4357878e-05 
4.6030344e-03 0.0000000e+00 -1.1753464e-04 
5.0133280e-03 0.0000000e+00 -1.4054631e-04 
5.1452685e-03 0.0000000e+00 -1.6339291e-04 
4.9524643e-03 0.0000000e+00 -1.8607441e-04 
4.3885228e-03 0.0000000e+00 -2.0859083e-04 
3.4070525e-03 0.0000000e+00 -2.3094217e-04 
1.9616608e-03 0.0000000e+00 -2.5312841e-04 
5.9555341e-06 0.0000000e+00 -2.7514959e-04 
-1.7540838e-03 0.0000000e+00 -2.9500009e-04 
-2.6836630e-03 0.0000000e+00 -3.1468549e-04 
-2.9359516e-03 0.0000000e+00 -3.3420580e-04 
-2.6641190e-03 0.0000000e+00 -3.5356104e-04 
-2.0213351e-03 0.0000000e+00 -3.7275121e-04 
-1.1607691e-03 0.0000000e+00 -3.9177627e-04 
-2.3559092e-04 0.0000000e+00 -4.1063625e-04 
6.0103007e-04 0.0000000e+00 -4.2933115e-04 
1.1959242e-03 0.0000000e+00 -4.4786098e-04 
1.3959219e-03 0.0000000e+00 -4.6622570e-04 
1.0478537e-03 0.0000000e+00 -4.8442534e-04 
-1.4500662e-06 0.0000000e+00 -5.0245994e-04 
-1.0983520e-03 0.0000000e+00 -5.1832380e-04 
-1.5718826e-03 0.0000000e+00 -5.3402258e-04 
-1.5492131e-03 0.0000000e+00 -5.4955628e-04 
-1.1575145e-03 0.0000000e+00 -5.6492497e-04 
-5.2395806e-04 0.0000000e+00 -5.8012846e-04 
2.2428510e-04 0.0000000e+00 -5.9516693e-04 
9.6004375e-04 0.0000000e+00 -6.1004033e-04 
1.5561468e-03 0.0000000e+00 -6.2474865e-04 
1.8854229e-03 0.0000000e+00 -6.3929183e-04 
1.8207011e-03 0.0000000e+00 -6.5366994e-04 
1.2348100e-03 0.0000000e+00 -6.6788297e-04 
5.7856215e-07 0.0000000e+00 -6.8193092e-04 
-1.2146616e-03 0.0000000e+00 -6.9380825e-04 
-1.7504945e-03 0.0000000e+00 -7.0552039e-04 
-1.7444643e-03 0.0000000e+00 -7.1706751e-04 
-1.3341152e-03 0.0000000e+00 -7.2844955e-04 
-6.5699156e-04 0.0000000e+00 -7.3966652e-04 
1.4936227e-04 0.0000000e+00 -7.5071835e-04 
9.4740209e-04 0.0000000e+00 -7.6160510e-04 
1.5995837e-03 0.0000000e+00 -7.7232678e-04 
1.9683626e-03 0.0000000e+00 -7.8288344e-04 
1.9161946e-03 0.0000000e+00 -7.9327490e-04 
1.3055356e-03 0.0000000e+00 -8.0350135e-04 
-1.1589390e-06 0.0000000e+00 -8.1356271e-04 
-1.3458955e-03 0.0000000e+00 -8.2145340e-04 
-2.0568280e-03 0.0000000e+00 -8.2917896e-04 
-2.2507221e-03 0.0000000e+00 -8.3673949e-04 
-2.0443434e-03 0.0000000e+00 -8.4413489e-04 
-1.5544574e-03 0.0000000e+00 -8.5136521e-04 
-8.9782954e-04 0.0000000e+00 -8.5843046e-04 
-1.9122539e-04 0.0000000e+00 -8.6533063e-04 
4.4858948e-04 0.0000000e+00 -8.7206572e-04 
9.0484961e-04 0.0000000e+00 -8.7863574e-04 
1.0607895e-03 0.0000000e+00 -8.8504062e-04 
7.9964334e-04 0.0000000e+00 -8.9128048e-04 
4.6459600e-06 0.0000000e+00 -8.9735520e-04 
-6.3778862e-04 0.0000000e+00 -9.0125925e-04 
-4.9677811e-04 0.0000000e+00 -9.0499822e-04 
2.2761397e-04 0.0000000e+00 -9.0857211e-04 
1.3353241e-03 0.0000000e+00 -9.1198093e-04 
2.6262889e-03 0.0000000e+00 -9.1522466e-04 
3.9004451e-03 0.0000000e+00 -9.1830333e-04 
4.9577286e-03 0.0000000e+00 -9.2121685e-04 
5.5980766e-03 0.0000000e+00 -9.2396536e-04 
5.6214253e-03 0.0000000e+00 -9.2654873e-04 
4.8277113e-03 0.0000000e+00 -9.2896703e-04 
3.0168712e-03 0.0000000e+00 -9.3122025e-04 
-1.1158581e-05 0.0000000e+00 -9.3330839e-04 
ROTATION 3 212  float
0.0000000e+00 -4.4556297e-03 0.0000000e+00 
0.0000000e+00 -4.3628453e-03 0.0000000e+00 
0.0000000e+00 -4.0844926e-03 0.0000000e+00 
0.0000000e+00 -3.6205715e-03 0.0000000e+00 
0.0000000e+00 -2.9710815e-03 0.0000000e+00 
0.0000000e+00 -2.1360232e-03 0.0000000e+00 
0.0000000e+00 -1.1153963e-03 0.0000000e+00 
0.0000000e+00 9.0799083e-05 0.0000000e+00 
0.0000000e+00 1.4825630e-03 0.0000000e+00 
0.0000000e+00 3.0598955e-03 0.0000000e+00 
0.0000000e+00 4.8227962e-03 0.0000000e+00 
0.0000000e+00 6.7712660e-03 0.0000000e+00 
0.0000000e+00 8.9053037e-03 0.0000000e+00 
0.0000000e+00 5.2771238e-03 0.0000000e+00 
0.0000000e+00 2.2616223e-03 0.0000000e+00 
0.0000000e+00 -1.4120100e-04 0.0000000e+00 
0.0000000e+00 -1.9313460e-03 0.0000000e+00 
0.0000000e+00 -3.1088127e-03 0.0000000e+00 
0.0000000e+00 -3.6736012e-03 0.0000000e+00 
0.0000000e+00 -3.6257114e-03 0.0000000e+00 
0.0000000e+00 -2.9651432e-03 0.0000000e+00 
0.0000000e+00 -1.6918968e-03 0.0000000e+00 
0.0000000e+00 1.9402792e-04 0.0000000e+00 
0.0000000e+00 2.6926310e-03 0.0000000e+00 
0.0000000e+00 5.8039124e-03 0.0000000e+00 
0.0000000e+00 3.0560845e-03 0.0000000e+00 
0.0000000e+00 8.1694132e-04 0.0000000e+00 
0.0000000e+00 -9.1351714e-04 0.0000000e+00 
0.0000000e+00 -2.1352910e-03 0.0000000e+00 
0.0000000e+00 -2.8483800e-03 0.0000000e+00 
0.0000000e+00 -3.0527844e-03 0.0000000e+00 
0.0000000e+00 -2.7485040e-03 0.0000000e+00 
0.0000000e+00 -1.9355391e-03 0.0000000e+00 
0.0000000e+00 -6.1388937e-04 0.0000000e+00 
0.0000000e+00 1.2164450e-03 0.0000000e+00 
0.0000000e+00 3.5554641e-03 0.0000000e+00 
0.0000000e+00 6.4031677e-03 0.0000000e+00 
0.0000000e+00 3.4104500e-03 0.0000000e+00 
0.0000000e+00 9.6790900e-04 0.0000000e+00 
0.0000000e+00 -9.2445483e-04 0.0000000e+00 
0.0000000e+00 -2.2666415e-03 0.0000000e+00 
0.0000000e+00 -3.0586510e-03 0.0000000e+00 
0.0000000e+00 -3.3004836e-03 0.0000000e+00 
0.0000000e+00 -2.9921390e-03 0.0000000e+00 
0.0000000e+00 -2.1336172e-03 0.0000000e+00 
0.0000000e+00 -7.2491821e-04 0.0000000e+00 
0.0000000e+00 1.2339578e-03 0.0000000e+00 
0.0000000e+00 3.7430108e-03 0.0000000e+00 
0.0000000e+00 6.8022413e-03 0.0000000e+00 
0.0000000e+00 4.0334943e-03 0.0000000e+00 
0.0000000e+00 1.7318097e-03 0.0000000e+00 
0.0000000e+00 -1.0281278e-04 0.0000000e+00 
0.0000000e+00 -1.4703732e-03 0.0000000e+00 
0.0000000e+00 -2.3708714e-03 0.0000000e+00 
0.0000000e+00 -2.8043077e-03 0.0000000e+00 
0.0000000e+00 -2.7706816e-03 0.0000000e+00 
0.0000000e+00 -2.2699938e-03 0.0000000e+00 
0.0000000e+00 -1.3022436e-03 0.0000000e+00 
0.0000000e+00 1.3256879e-04 0.0000000e+00 
0.0000000e+00 2.0344432e-03 0.0000000e+00 
0.0000000e+00 4.4033797e-03 0.0000000e+00 
0.0000000e+00 8.6947251e-04 0.0000000e+00 
0.0000000e+00 -1.8641808e-03 0.0000000e+00 
0.0000000e+00 -3.7975803e-03 0.0000000e+00 
0.0000000e+00 -4.9307258e-03 0.0000000e+00 
0.0000000e+00 -5.2636173e-03 0.0000000e+00 
0.0000000e+00 -4.7962554e-03 0.0000000e+00 
0.0000000e+00 -3.5286390e-03 0.0000000e+00 
0.0000000e+00 -1.4607690e-03 0.0000000e+00 
0.0000000e+00 1.4073550e-03 0.0000000e+00 
0.0000000e+00 5.0757327e-03 0.0000000e+00 
0.0000000e+00 9.5443642e-03 0.0000000e+00 
0.0000000e+00 1.4813250e-02 0.0000000e+00 
0.0000000e+00 1.7968923e-02 0.0000000e+00 
0.0000000e+00 1.5384429e-02 0.0000000e+00 
0.0000000e+00 1.5883809e-02 0.0000000e+00 
0.0000000e+00 1.6216369e-02 0.0000000e+00 
0.0000000e+00 1.4217318e-02 0.0000000e+00 
0.0000000e+00 2.2892211e-02 0.0000000e+00 
0.0000000e+00 2.1279175e-02 0.0000000e+00 
0.0000000e+00 1.9211581e-02 0.0000000e+00 
0.0000000e+00 1.9611085e-02 0.0000000e+00 
0.0000000e+00 1.9877134e-02 0.0000000e+00 
0.0000000e+00 1.8277893e-02 0.0000000e+00 
0.0000000e+00 2.5217805e-02 0.0000000e+00 
0.0000000e+00 1.9986738e-02 0.0000000e+00 
0.0000000e+00 1.8436041e-02 0.0000000e+00 
0.0000000e+00 1.8735670e-02 0.0000000e+00 
0.0000000e+00 1.8935205e-02 0.0000000e+00 
0.0000000e+00 1.7735776e-02 0.0000000e+00 
0.0000000e+00 2.2940710e-02 0.0000000e+00 
0.0000000e+00 1.5242280e-02 0.0000000e+00 
0.0000000e+00 1.4208483e-02 0.0000000e+00 
0.0000000e+00 1.4408235e-02 0.0000000e+00 
0.0000000e+00 1.4541258e-02 0.0000000e+00 
0.0000000e+00 1.3741638e-02 0.0000000e+00 
0.0000000e+00 1.7211596e-02 0.0000000e+00 
0.0000000e+00 8.1964759e-03 0.0000000e+00 
0.0000000e+00 7.6795775e-03 0.0000000e+00 
0.0000000e+00 7.7794534e-03 0.0000000e+00 
0.0000000e+00 7.8459661e-03 0.0000000e+00 
0.0000000e+00 7.4461554e-03 0.0000000e+00 
0.0000000e+00 9.1811335e-03 0.0000000e+00 
0.0000000e+00 -3.1485832e-15 0.0000000e+00 
0.0000000e+00 -2.1816956e-15 0.0000000e+00 
0.0000000e+00 -1.8841915e-15 0.0000000e+00 
0.0000000e+00 -2.3304475e-15 0.0000000e+00 
0.0000000e+00 -1.7106476e-15 0.0000000e+00 
0.0000000e+00 -6.4382927e-16 0.0000000e+00 
0.0000000e+00 -8.1964759e-03 0.0000000e+00 
0.0000000e+00 -7.6795775e-03 0.0000000e+00 
0.0000000e+00 -7.7794534e-03 0.0000000e+00 
0.0000000e+00 -7.8459661e-03 0.0000000e+00 
0.0000000e+00 -7.4461554e-03 0.0000000e+00 
0.0000000e+00 -9.1811335e-03 0.0000000e+00 
0.0000000e+00 -1.5242280e-02 0.0000000e+00 
0.0000000e+00 -1.4208483e-02 0.0000000e+00 
0.0000000e+00 -1.4408235e-02 0.0000000e+00 
0.0000000e+00 -1.4541258e-02 0.0000000e+00 
0.0000000e+00 -1.3741638e-02 0.0000000e+00 
0.0000000e+00 -1.7211596e-02 0.0000000e+00 
0.0000000e+00 -1.9986738e-02 0.0000000e+00 
0.0000000e+00 -1.8436041e-02 0.0000000e+00 
0.0000000e+00 -1.8735670e-02 0.0000000e+00 
0.0000000e+00 -1.8935205e-02 0.0000000e+00 
0.0000000e+00 -1.7735776e-02 0.0000000e+00 
0.0000000e+00 -2.2940710e-02 0.0000000e+00 
0.0000000e+00 -2.1279175e-02 0.0000000e+00 
0.0000000e+00 -1.9211581e-02 0.0000000e+00 
0.0000000e+00 -1.9611085e-02 0.0000000e+00 
0.0000000e+00 -1.9877134e-02 0.0000000e+00 
0.0000000e+00 -1.8277893e-02 0.0000000e+00 
0.0000000e+00 -2.5217805e-02 0.0000000e+00 
0.0000000e+00 -1.7968923e-02 0.0000000e+00 
0.0000000e+00 -1.5384429e-02 0.0000000e+00 
0.0000000e+00 -1.5883809e-02 0.0000000e+00 
0.0000000e+00 -1.6216369e-02 0.0000000e+00 
0.0000000e+00 -1.4217318e-02 0.0000000e+00 
0.0000000e+00 -2.2892211e-02 0.0000000e+00 
0.0000000e+00 4.4556297e-03 0.0000000e+00 
0.0000000e+00 4.3628453e-03 0.0000000e+00 
0.0000000e+00 4.0844926e-03 0.0000000e+00 
0.0000000e+00 3.6205715e-03 0.0000000e+00 
0.0000000e+00 2.9710815e-03 0.0000000e+00 
0.0000000e+00 2.1360232e-03 0.0000000e+00 
0.0000000e+00 1.1153963e-03 0.0000000e+00 
0.0000000e+00 -9.0799083e-05 0.0000000e+00 
0.0000000e+00 -1.4825630e-03 0.0000000e+00 
0.0000000e+00 -3.0598955e-03 0.0000000e+00 
0.0000000e+00 -4.8227962e-03 0.0000000e+00 
0.0000000e+00 -6.7712660e-03 0.0000000e+00 
0.0000000e+00 -8.9053037e-03 0.0000000e+00 
0.0000000e+00 -5.2771238e-03 0.0000000e+00 
0.0000000e+00 -2.2616223e-03 0.0000000e+00 
0.0000000e+00 1.4120100e-04 0.0000000e+00 
0.0000000e+00 1.9313460e-03 0.0000000e+00 
0.0000000e+00 3.1088127e-03 0.0000000e+00 
0.0000000e+00 3.6736012e-03 0.0000000e+00 
0.0000000e+00 3.6257114e-03 0.0000000e+00 
0.0000000e+00 2.9651432e-03 0.0000000e+00 
0.0000000e+00 1.6918968e-03 0.0000000e+00 
0.0000000e+00 -1.9402792e-04 0.0000000e+00 
0.0000000e+00 -2.6926310e-03 0.0000000e+00 
0.0000000e+00 -5.8039124e-03 0.0000000e+00 
0.0000000e+00 -3.0560845e-03 0.0000000e+00 
0.0000000e+00 -8.1694132e-04 0.0000000e+00 
0.0000000e+00 9.1351714e-04 0.0000000e+00 
0.0000000e+00 2.1352910e-03 0.0000000e+00 
0.0000000e+00 2.8483800e-03 0.0000000e+00 
0.0000000e+00 3.0527844e-03 0.0000000e+00 
0.0000000e+00 2.7485040e-03 0.0000000e+00 
0.0000000e+00 1.9355391e-03 0.0000000e+00 
0.0000000e+00 6.1388937e-04 0.0000000e+00 
0.0000000e+00 -1.2164450e-03 0.0000000e+00 
0.0000000e+00 -3.5554641e-03 0.0000000e+00 
0.0000000e+00 -6.4031677e-03 0.0000000e+00 
0.0000000e+00 -3.4104500e-03 0.0000000e+00 
0.0000000e+00 -9.6790900e-04 0.0000000e+00 
0.0000000e+00 9.2445483e-04 0.0000000e+00 
0.0000000e+00 2.2666415e-03 0.0000000e+00 
0.0000000e+00 3.0586510e-03 0.0000000e+00 
0.0000000e+00 3.3004836e-03 0.0000000e+00 
0.0000000e+00 2.9921390e-03 0.0000000e+00 
0.0000000e+00 2.1336172e-03 0.0000000e+00 
0.0000000e+00 7.2491821e-04 0.0000000e+00 
0.0000000e+00 -1.2339578e-03 0.0000000e+00 
0.0000000e+00 -3.7430108e-03 0.0000000e+00 
0.0000000e+00 -6.8022413e-03 0.0000000e+00 
0.0000000e+00 -4.0334943e-03 0.0000000e+00 
0.0000000e+00 -1.7318097e-03 0.0000000e+00 
0.0000000e+00 1.0281278e-04 0.0000000e+00 
0.0000000e+00 1.4703732e-03 0.0000000e+00 
0.0000000e+00 2.3708714e-03 0.0000000e+00 
0.0000000e+00 2.8043077e-03 0.0000000e+00 
0.0000000e+00 2.7706816e-03 0.0000000e+00 
0.0000000e+00 2.2699938e-03 0.0000000e+00 
0.0000000e+00 1.3022436e-03 0.0000000e+00 
0.0000000e+00 -1.3256879e-04 0.0000000e+00 
0.0000000e+00 -2.0344432e-03 0.0000000e+00 
0.0000000e+00 -4.4033797e-03 0.0000000e+00 
0.0000000e+00 -8.6947251e-04 0.0000000e+00 
0.0000000e+00 1.8641808e-03 0.0000000e+00 
0.0000000e+00 3.7975803e-03 0.0000000e+00 
0.0000000e+00 4.9307258e-03 0.0000000e+00 