# vtk DataFile Version 4.0
vtk output
ASCII
DATASET UNSTRUCTURED_GRID
POINTS 21 float
0.0000000e+00 0.0000000e+00 0.0000000e+00 
1.0000000e-01 0.0000000e+00 0.0000000e+00 
2.0000000e-01 0.0000000e+00 0.0000000e+00 
3.0000001e-01 0.0000000e+00 0.0000000e+00 
4.0000001e-01 0.0000000e+00 0.0000000e+00 
5.0000000e-01 0.0000000e+00 0.0000000e+00 
6.0000002e-01 0.0000000e+00 0.0000000e+00 
6.9999999e-01 0.0000000e+00 0.0000000e+00 
8.0000001e-01 0.0000000e+00 0.0000000e+00 
8.9999998e-01 0.0000000e+00 0.0000000e+00 
1.0000000e+00 0.0000000e+00 0.0000000e+00 
1.1000000e+00 0.0000000e+00 0.0000000e+00 
1.2000000e+00 0.0000000e+00 0.0000000e+00 
1.3000000e+00 0.0000000e+00 0.0000000e+00 
1.4000000e+00 0.0000000e+00 0.0000000e+00 
1.5000000e+00 0.0000000e+00 0.0000000e+00 
1.6000000e+00 0.0000000e+00 0.0000000e+00 
1.7000000e+00 0.0000000e+00 0.0000000e+00 
1.8000000e+00 0.0000000e+00 0.0000000e+00 
1.9000000e+00 0.0000000e+00 0.0000000e+00 
2.0000000e+00 0.0000000e+00 0.0000000e+00 

CELLS 20 60
2 0 1
2 1 2
2 2 3
2 3 4
2 4 5
2 5 6
2 6 7
2 7 8
2 8 9
2 9 10
2 10 11
2 11 12
2 12 13
2 13 14
2 14 15
2 15 16
2 16 17
2 17 18
2 18 19
2 19 20

CELL_TYPES 20
3
3
3
3
3
3
3
3
3
3
3
3
3
3
3
3
3
3
3
3
POINT_DATA 21
FIELD FieldData 6
DISPLACEMENT 3 21  float
0.0000000e+00 0.0000000e+00 0.0000000e+00 
0.0000000e+00 -1.4183561e-05 0.0000000e+00 
0.0000000e+00 -5.0919378e-05 0.0000000e+00 
0.0000000e+00 -1.0219236e-04 0.0000000e+00 
0.0000000e+00 -1.6093037e-04 0.0000000e+00 
0.0000000e+00 -2.2100424e-04 0.0000000e+00 
0.0000000e+00 -2.7722772e-04 0.0000000e+00 
0.0000000e+00 -3.2535754e-04 0.0000000e+00 
0.0000000e+00 -3.6209336e-04 0.0000000e+00 
0.0000000e+00 -3.8507779e-04 0.0000000e+00 
0.0000000e+00 -3.9289644e-04 0.0000000e+00 
0.0000000e+00 -3.8507779e-04 0.0000000e+00 
0.0000000e+00 -3.6209336e-04 0.0000000e+00 
0.0000000e+00 -3.2535754e-04 0.0000000e+00 
0.0000000e+00 -2.7722772e-04 0.0000000e+00 
0.0000000e+00 -2.2100424e-04 0.0000000e+00 
0.0000000e+00 -1.6093037e-04 0.0000000e+00 
0.0000000e+00 -1.0219236e-04 0.0000000e+00 
0.0000000e+00 -5.0919378e-05 0.0000000e+00 
0.0000000e+00 -1.4183561e-05 0.0000000e+00 
0.0000000e+00 0.0000000e+00 0.0000000e+00 
REACTION 3 21  float
-4.7755461e+00 1.0000000e+04 0.0000000e+00 
-3.3176380e+01 -7.2699073e-03 0.0000000e+00 
-3.8217300e+01 -1.1783534e-02 0.0000000e+00 
-2.5022921e+01 -8.1976652e-03 0.0000000e+00 
-5.3446021e+00 -1.4006925e-03 0.0000000e+00 
1.2855076e+01 5.6411447e-03 0.0000000e+00 
2.4861053e+01 8.6432584e-03 0.0000000e+00 
2.8664547e+01 8.1377728e-03 0.0000000e+00 
2.4421787e+01 4.2642662e-03 0.0000000e+00 
1.3912772e+01 -1.4838883e-04 0.0000000e+00 
2.7048279e-07 1.3542651e-03 0.0000000e+00 
-1.3912772e+01 2.8324840e-03 0.0000000e+00 
-2.4421789e+01 5.8009033e-03 0.0000000e+00 
-2.8664547e+01 7.4036457e-03 0.0000000e+00 
-2.4861053e+01 9.3771033e-03 0.0000000e+00 
-1.2855076e+01 5.6411447e-03 0.0000000e+00 
5.3446021e+00 -1.4012577e-03 0.0000000e+00 
2.5022921e+01 -8.1976652e-03 0.0000000e+00 
3.8217300e+01 -1.1783252e-02 0.0000000e+00 
3.3176380e+01 -7.2699073e-03 0.0000000e+00 
4.7755461e+00 1.0000000e+04 0.0000000e+00 
ROTATION 3 21  float
0.0000000e+00 0.0000000e+00 0.0000000e+00 
0.0000000e+00 0.0000000e+00 -2.6874116e-04 
0.0000000e+00 0.0000000e+00 -4.5261669e-04 
0.0000000e+00 0.0000000e+00 -5.6105608e-04 
0.0000000e+00 0.0000000e+00 -6.0348894e-04 
0.0000000e+00 0.0000000e+00 -5.8934465e-04 
0.0000000e+00 0.0000000e+00 -5.2805280e-04 
0.0000000e+00 0.0000000e+00 -4.2904291e-04 
0.0000000e+00 0.0000000e+00 -3.0174447e-04 
0.0000000e+00 0.0000000e+00 -1.5558698e-04 
0.0000000e+00 0.0000000e+00 2.9273065e-17 
0.0000000e+00 0.0000000e+00 1.5558698e-04 
0.0000000e+00 0.0000000e+00 3.0174447e-04 
0.0000000e+00 0.0000000e+00 4.2904291e-04 
0.0000000e+00 0.0000000e+00 5.2805280e-04 
0.0000000e+00 0.0000000e+00 5.8934465e-04 
0.0000000e+00 0.0000000e+00 6.0348894e-04 
0.0000000e+00 0.0000000e+00 5.6105608e-04 
0.0000000e+00 0.0000000e+00 4.5261669e-04 
0.0000000e+00 0.0000000e+00 2.6874116e-04 
0.0000000e+00 0.0000000e+00 0.0000000e+00 
REACTION_MOMENT 3 21  float
0.0000000e+00 0.0000000e+00 3.3250000e+03 
0.0000000e+00 0.0000000e+00 -1.1395109e-03 
0.0000000e+00 0.0000000e+00 -3.9744708e-03 
0.0000000e+00 0.0000000e+00 -7.2123432e-03 
0.0000000e+00 0.0000000e+00 -8.9397514e-03 
0.0000000e+00 0.0000000e+00 -8.4217992e-03 
0.0000000e+00 0.0000000e+00 -6.2086373e-03 
0.0000000e+00 0.0000000e+00 -3.5108151e-03 
0.0000000e+00 0.0000000e+00 -1.4325425e-03 
0.0000000e+00 0.0000000e+00 -4.9193535e-04 
0.0000000e+00 0.0000000e+00 -2.2586198e-04 
0.0000000e+00 0.0000000e+00 1.8925655e-04 
0.0000000e+00 0.0000000e+00 1.3557393e-03 
0.0000000e+00 0.0000000e+00 3.4741373e-03 
0.0000000e+00 0.0000000e+00 6.1719455e-03 
0.0000000e+00 0.0000000e+00 8.4217992e-03 
0.0000000e+00 0.0000000e+00 8.9397235e-03 
0.0000000e+00 0.0000000e+00 7.2122845e-03 
0.0000000e+00 0.0000000e+00 3.9744284e-03 
0.0000000e+00 0.0000000e+00 1.1394831e-03 
0.0000000e+00 0.0000000e+00 -3.3250000e+03 
FORCE 3 21  float
6.1229844e+00 -9.4999990e+03 0.0000000e+00 
2.3598724e+01 -8.9999893e+03 0.0000000e+00 
6.0544575e+01 -7.9999595e+03 0.0000000e+00 
9.2512383e+01 -6.9999263e+03 0.0000000e+00 
1.0742543e+02 -5.9999092e+03 0.0000000e+00 
1.0302624e+02 -4.9999146e+03 0.0000000e+00 
8.3358429e+01 -3.9999373e+03 0.0000000e+00 
5.5789806e+01 -2.9999648e+03 0.0000000e+00 
2.8576759e+01 -1.9999858e+03 0.0000000e+00 
8.9698305e+00 -9.9999524e+02 0.0000000e+00 
1.8606080e+00 2.2586137e-03 0.0000000e+00 
8.9698305e+00 9.9999829e+02 0.0000000e+00 
2.8576759e+01 1.9999866e+03 0.0000000e+00 
5.5789806e+01 2.9999651e+03 0.0000000e+00 
8.3358429e+01 3.9999377e+03 0.0000000e+00 
1.0302624e+02 4.9999146e+03 0.0000000e+00 
1.0742543e+02 5.9999092e+03 0.0000000e+00 
9.2512383e+01 6.9999263e+03 0.0000000e+00 
6.0544575e+01 7.9999595e+03 0.0000000e+00 
2.3598724e+01 8.9999893e+03 0.0000000e+00 
6.1229844e+00 9.4999990e+03 0.0000000e+00 
MOMENT 3 21  float
0.0000000e+00 0.0000000e+00 2.9522036e+03 
0.0000000e+00 0.0000000e+00 2.3946206e+03 
0.0000000e+00 0.0000000e+00 1.5446206e+03 
0.0000000e+00 0.0000000e+00 7.9462067e+02 
0.0000000e+00 0.0000000e+00 1.4462080e+02 
0.0000000e+00 0.0000000e+00 -4.0537903e+02 
0.0000000e+00 0.0000000e+00 -8.5537891e+02 
0.0000000e+00 0.0000000e+00 -1.2053789e+03 
0.0000000e+00 0.0000000e+00 -1.4553790e+03 
0.0000000e+00 0.0000000e+00 -1.6053792e+03 
0.0000000e+00 0.0000000e+00 -1.6553792e+03 
0.0000000e+00 0.0000000e+00 -1.6053792e+03 
0.0000000e+00 0.0000000e+00 -1.4553790e+03 
0.0000000e+00 0.0000000e+00 -1.2053789e+03 
0.0000000e+00 0.0000000e+00 -8.5537891e+02 
0.0000000e+00 0.0000000e+00 -4.0537903e+02 
0.0000000e+00 0.0000000e+00 1.4462080e+02 
0.0000000e+00 0.0000000e+00 7.9462067e+02 
0.0000000e+00 0.0000000e+00 1.5446206e+03 
0.0000000e+00 0.0000000e+00 2.3946206e+03 
0.0000000e+00 0.0000000e+00 2.9522036e+03 
CELL_DATA 20
FIELD FieldData 2
FORCE 3 20  float
6.1229844e+00 -9.4999990e+03 0.0000000e+00 
4.1074467e+01 -8.4999785e+03 0.0000000e+00 
8.0014679e+01 -7.4999409e+03 0.0000000e+00 
1.0501009e+02 -6.4999121e+03 0.0000000e+00 
1.0984077e+02 -5.4999058e+03 0.0000000e+00 
9.6211700e+01 -4.4999229e+03 0.0000000e+00 
7.0505150e+01 -3.4999514e+03 0.0000000e+00 
4.1074467e+01 -2.4999780e+03 0.0000000e+00 
1.6079052e+01 -1.4999935e+03 0.0000000e+00 
1.8606080e+00 -4.9999692e+02 0.0000000e+00 
1.8606081e+00 5.0000143e+02 0.0000000e+00 
1.6079052e+01 1.4999951e+03 0.0000000e+00 
4.1074467e+01 2.4999780e+03 0.0000000e+00 
7.0505150e+01 3.4999521e+03 0.0000000e+00 
9.6211700e+01 4.4999229e+03 0.0000000e+00 
1.0984077e+02 5.4999058e+03 0.0000000e+00 
1.0501009e+02 6.4999121e+03 0.0000000e+00 
8.0014679e+01 7.4999409e+03 0.0000000e+00 
4.1074467e+01 8.4999785e+03 0.0000000e+00 
6.1229844e+00 9.4999990e+03 0.0000000e+00 
MOMENT 3 20  float
0.0000000e+00 0.0000000e+00 2.8500000e+03 
0.0000000e+00 0.0000000e+00 1.9499999e+03 
0.0000000e+00 0.0000000e+00 1.1499999e+03 
0.0000000e+00 0.0000000e+00 4.4999997e+02 
0.0000000e+00 0.0000000e+00 -1.4999998e+02 
0.0000000e+00 0.0000000e+00 -6.4999994e+02 
0.0000000e+00 0.0000000e+00 -1.0499999e+03 
0.0000000e+00 0.0000000e+00 -1.3500000e+03 
0.0000000e+00 0.0000000e+00 -1.5500000e+03 
0.0000000e+00 0.0000000e+00 -1.6500000e+03 
0.0000000e+00 0.0000000e+00 -1.6500000e+03 
0.0000000e+00 0.0000000e+00 -1.5500000e+03 
0.0000000e+00 0.0000000e+00 -1.3500000e+03 
0.0000000e+00 0.0000000e+00 -1.0499999e+03 
0.0000000e+00 0.0000000e+00 -6.4999994e+02 
0.0000000e+00 0.0000000e+00 -1.4999998e+02 
0.0000000e+00 0.0000000e+00 4.4999997e+02 
0.0000000e+00 0.0000000e+00 1.1499999e+03 
0.0000000e+00 0.0000000e+00 1.9499999e+03 
0.0000000e+00 0.0000000e+00 2.8500000e+03 
