# vtk DataFile Version 4.0
vtk output
ASCII
DATASET UNSTRUCTURED_GRID
POINTS 10 float
0.0000000e+00 0.0000000e+00 0.0000000e+00 
0.0000000e+00 2.0000000e+00 0.0000000e+00 
2.0000000e+00 2.0000000e+00 0.0000000e+00 
2.0000000e+00 0.0000000e+00 0.0000000e+00 
0.0000000e+00 6.6666669e-01 0.0000000e+00 
0.0000000e+00 1.3333334e+00 0.0000000e+00 
6.6666669e-01 2.0000000e+00 0.0000000e+00 
1.3333334e+00 2.0000000e+00 0.0000000e+00 
2.0000000e+00 1.3333334e+00 0.0000000e+00 
2.0000000e+00 6.6666669e-01 0.0000000e+00 

CELLS 9 27
2 0 4
2 4 5
2 5 1
2 1 6
2 6 7
2 7 2
2 2 8
2 8 9
2 9 3

CELL_TYPES 9
3
3
3
3
3
3
3
3
3
POINT_DATA 10
FIELD FieldData 6
DISPLACEMENT 3 10  float
0.0000000e+00 0.0000000e+00 0.0000000e+00 
1.4744594e-06 -3.3184006e-05 0.0000000e+00 
-1.4744594e-06 -3.3184006e-05 0.0000000e+00 
0.0000000e+00 0.0000000e+00 0.0000000e+00 
-3.3386494e-04 -1.1061335e-05 0.0000000e+00 
-4.1696255e-04 -2.2122671e-05 0.0000000e+00 
4.9148645e-07 -8.4858737e-04 0.0000000e+00 
-4.9148645e-07 -8.4858737e-04 0.0000000e+00 
4.1696255e-04 -2.2122671e-05 0.0000000e+00 
3.3386494e-04 -1.1061335e-05 0.0000000e+00 
REACTION 3 10  float
8.8388770e+02 9.9250283e+03 0.0000000e+00 
-4.4853815e+02 1.1859674e+02 0.0000000e+00 
4.4853815e+02 1.1859674e+02 0.0000000e+00 
-8.8388770e+02 9.9250283e+03 0.0000000e+00 
3.5484719e+00 7.0566299e+01 0.0000000e+00 
7.0968680e+00 -1.1471113e+02 0.0000000e+00 
4.4266309e+02 5.1024389e-01 0.0000000e+00 
-4.4266309e+02 5.1024389e-01 0.0000000e+00 
-7.0968680e+00 -1.1471113e+02 0.0000000e+00 
-3.5484722e+00 7.0566299e+01 0.0000000e+00 
ROTATION 3 10  float
0.0000000e+00 0.0000000e+00 5.6348921e-04 
0.0000000e+00 0.0000000e+00 -1.1291901e-03 
0.0000000e+00 0.0000000e+00 1.1291901e-03 
0.0000000e+00 0.0000000e+00 -5.6348921e-04 
0.0000000e+00 0.0000000e+00 3.7541374e-04 
0.0000000e+00 0.0000000e+00 -1.8881272e-04 
0.0000000e+00 0.0000000e+00 -8.4670831e-04 
0.0000000e+00 0.0000000e+00 8.4670831e-04 
0.0000000e+00 0.0000000e+00 1.8881272e-04 
0.0000000e+00 0.0000000e+00 -3.7541374e-04 
REACTION_MOMENT 3 10  float
0.0000000e+00 0.0000000e+00 -1.6108105e-01 
0.0000000e+00 0.0000000e+00 6.1794740e-01 
0.0000000e+00 0.0000000e+00 -6.1794740e-01 
0.0000000e+00 0.0000000e+00 1.6108105e-01 
0.0000000e+00 0.0000000e+00 -2.6557991e-01 
0.0000000e+00 0.0000000e+00 -8.3511427e-02 
0.0000000e+00 0.0000000e+00 7.9152837e-02 
0.0000000e+00 0.0000000e+00 -7.9152837e-02 
0.0000000e+00 0.0000000e+00 8.3511434e-02 
0.0000000e+00 0.0000000e+00 2.6557994e-01 
FORCE 3 10  float
-9.9245840e+03 8.8885809e+02 0.0000000e+00 
-5.1596050e+03 -2.8892090e+03 0.0000000e+00 
-5.1596050e+03 2.8892090e+03 0.0000000e+00 
-9.9245840e+03 -8.8885809e+02 0.0000000e+00 
-9.9600342e+03 8.8877008e+02 0.0000000e+00 
-9.9384629e+03 8.8850653e+02 0.0000000e+00 
-6.6324945e+02 -3.3333459e+03 0.0000000e+00 
-6.6324945e+02 3.3333459e+03 0.0000000e+00 
-9.9384629e+03 -8.8850653e+02 0.0000000e+00 
-9.9600342e+03 -8.8877008e+02 0.0000000e+00 
MOMENT 3 10  float
0.0000000e+00 0.0000000e+00 2.3237051e+02 
0.0000000e+00 0.0000000e+00 7.8877374e+02 
0.0000000e+00 0.0000000e+00 7.8877374e+02 
0.0000000e+00 0.0000000e+00 2.3237051e+02 
0.0000000e+00 0.0000000e+00 5.9224536e+02 
0.0000000e+00 0.0000000e+00 1.1844929e+03 
0.0000000e+00 0.0000000e+00 -1.7950503e+03 
0.0000000e+00 0.0000000e+00 -1.7950503e+03 
0.0000000e+00 0.0000000e+00 1.1844929e+03 
0.0000000e+00 0.0000000e+00 5.9224536e+02 
CELL_DATA 9
FIELD FieldData 2
FORCE 3 9  float
0.0000000e+00 0.0000000e+00 0.0000000e+00 
0.0000000e+00 0.0000000e+00 0.0000000e+00 
0.0000000e+00 0.0000000e+00 0.0000000e+00 
0.0000000e+00 0.0000000e+00 0.0000000e+00 
0.0000000e+00 0.0000000e+00 0.0000000e+00 
0.0000000e+00 0.0000000e+00 0.0000000e+00 
0.0000000e+00 0.0000000e+00 0.0000000e+00 
0.0000000e+00 0.0000000e+00 0.0000000e+00 
0.0000000e+00 0.0000000e+00 0.0000000e+00 
MOMENT 3 9  float
0.0000000e+00 0.0000000e+00 0.0000000e+00 
0.0000000e+00 0.0000000e+00 0.0000000e+00 
0.0000000e+00 0.0000000e+00 0.0000000e+00 
0.0000000e+00 0.0000000e+00 0.0000000e+00 
0.0000000e+00 0.0000000e+00 0.0000000e+00 
0.0000000e+00 0.0000000e+00 0.0000000e+00 
0.0000000e+00 0.0000000e+00 0.0000000e+00 
0.0000000e+00 0.0000000e+00 0.0000000e+00 
0.0000000e+00 0.0000000e+00 0.0000000e+00 
