# vtk DataFile Version 4.0
vtk output
ASCII
DATASET UNSTRUCTURED_GRID
POINTS 212 float
0.0000000e+00 0.0000000e+00 0.0000000e+00 
0.0000000e+00 0.0000000e+00 2.5000000e-01 
0.0000000e+00 0.0000000e+00 5.0000000e-01 
0.0000000e+00 0.0000000e+00 7.5000000e-01 
0.0000000e+00 0.0000000e+00 1.0000000e+00 
0.0000000e+00 0.0000000e+00 1.2500000e+00 
0.0000000e+00 0.0000000e+00 1.5000000e+00 
0.0000000e+00 0.0000000e+00 1.7500000e+00 
0.0000000e+00 0.0000000e+00 2.0000000e+00 
0.0000000e+00 0.0000000e+00 2.2500000e+00 
0.0000000e+00 0.0000000e+00 2.5000000e+00 
0.0000000e+00 0.0000000e+00 2.7500000e+00 
0.0000000e+00 0.0000000e+00 3.0000000e+00 
0.0000000e+00 0.0000000e+00 3.2500000e+00 
0.0000000e+00 0.0000000e+00 3.5000000e+00 
0.0000000e+00 0.0000000e+00 3.7500000e+00 
0.0000000e+00 0.0000000e+00 4.0000000e+00 
0.0000000e+00 0.0000000e+00 4.2500000e+00 
0.0000000e+00 0.0000000e+00 4.5000000e+00 
0.0000000e+00 0.0000000e+00 4.7500000e+00 
0.0000000e+00 0.0000000e+00 5.0000000e+00 
0.0000000e+00 0.0000000e+00 5.2500000e+00 
0.0000000e+00 0.0000000e+00 5.5000000e+00 
0.0000000e+00 0.0000000e+00 5.7500000e+00 
0.0000000e+00 0.0000000e+00 6.0000000e+00 
0.0000000e+00 0.0000000e+00 6.2500000e+00 
0.0000000e+00 0.0000000e+00 6.5000000e+00 
0.0000000e+00 0.0000000e+00 6.7500000e+00 
0.0000000e+00 0.0000000e+00 7.0000000e+00 
0.0000000e+00 0.0000000e+00 7.2500000e+00 
0.0000000e+00 0.0000000e+00 7.5000000e+00 
0.0000000e+00 0.0000000e+00 7.7500000e+00 
0.0000000e+00 0.0000000e+00 8.0000000e+00 
0.0000000e+00 0.0000000e+00 8.2500000e+00 
0.0000000e+00 0.0000000e+00 8.5000000e+00 
0.0000000e+00 0.0000000e+00 8.7500000e+00 
0.0000000e+00 0.0000000e+00 9.0000000e+00 
0.0000000e+00 0.0000000e+00 9.2500000e+00 
0.0000000e+00 0.0000000e+00 9.5000000e+00 
0.0000000e+00 0.0000000e+00 9.7500000e+00 
0.0000000e+00 0.0000000e+00 1.0000000e+01 
0.0000000e+00 0.0000000e+00 1.0250000e+01 
0.0000000e+00 0.0000000e+00 1.0500000e+01 
0.0000000e+00 0.0000000e+00 1.0750000e+01 
0.0000000e+00 0.0000000e+00 1.1000000e+01 
0.0000000e+00 0.0000000e+00 1.1250000e+01 
0.0000000e+00 0.0000000e+00 1.1500000e+01 
0.0000000e+00 0.0000000e+00 1.1750000e+01 
0.0000000e+00 0.0000000e+00 1.2000000e+01 
0.0000000e+00 0.0000000e+00 1.2250000e+01 
0.0000000e+00 0.0000000e+00 1.2500000e+01 
0.0000000e+00 0.0000000e+00 1.2750000e+01 
0.0000000e+00 0.0000000e+00 1.3000000e+01 
0.0000000e+00 0.0000000e+00 1.3250000e+01 
0.0000000e+00 0.0000000e+00 1.3500000e+01 
0.0000000e+00 0.0000000e+00 1.3750000e+01 
0.0000000e+00 0.0000000e+00 1.4000000e+01 
0.0000000e+00 0.0000000e+00 1.4250000e+01 
0.0000000e+00 0.0000000e+00 1.4500000e+01 
0.0000000e+00 0.0000000e+00 1.4750000e+01 
0.0000000e+00 0.0000000e+00 1.5000000e+01 
0.0000000e+00 0.0000000e+00 1.5250000e+01 
0.0000000e+00 0.0000000e+00 1.5500000e+01 
0.0000000e+00 0.0000000e+00 1.5750000e+01 
0.0000000e+00 0.0000000e+00 1.6000000e+01 
0.0000000e+00 0.0000000e+00 1.6250000e+01 
0.0000000e+00 0.0000000e+00 1.6500000e+01 
0.0000000e+00 0.0000000e+00 1.6750000e+01 
0.0000000e+00 0.0000000e+00 1.7000000e+01 
0.0000000e+00 0.0000000e+00 1.7250000e+01 
0.0000000e+00 0.0000000e+00 1.7500000e+01 
0.0000000e+00 0.0000000e+00 1.7750000e+01 
0.0000000e+00 0.0000000e+00 1.8000000e+01 
5.0000000e-01 0.0000000e+00 3.0000000e+00 
5.0000000e-01 0.0000000e+00 6.0000000e+00 
5.0000000e-01 0.0000000e+00 9.0000000e+00 
5.0000000e-01 0.0000000e+00 1.2000000e+01 
5.0000000e-01 0.0000000e+00 1.5000000e+01 
5.0000000e-01 0.0000000e+00 1.8000000e+01 
1.0000000e+00 0.0000000e+00 3.0000000e+00 
1.0000000e+00 0.0000000e+00 6.0000000e+00 
1.0000000e+00 0.0000000e+00 9.0000000e+00 
1.0000000e+00 0.0000000e+00 1.2000000e+01 
1.0000000e+00 0.0000000e+00 1.5000000e+01 
1.0000000e+00 0.0000000e+00 1.8000000e+01 
1.5000000e+00 0.0000000e+00 3.0000000e+00 
1.5000000e+00 0.0000000e+00 6.0000000e+00 
1.5000000e+00 0.0000000e+00 9.0000000e+00 
1.5000000e+00 0.0000000e+00 1.2000000e+01 
1.5000000e+00 0.0000000e+00 1.5000000e+01 
1.5000000e+00 0.0000000e+00 1.8000000e+01 
2.0000000e+00 0.0000000e+00 3.0000000e+00 
2.0000000e+00 0.0000000e+00 6.0000000e+00 
2.0000000e+00 0.0000000e+00 9.0000000e+00 
2.0000000e+00 0.0000000e+00 1.2000000e+01 
2.0000000e+00 0.0000000e+00 1.5000000e+01 
2.0000000e+00 0.0000000e+00 1.8000000e+01 
2.5000000e+00 0.0000000e+00 3.0000000e+00 
2.5000000e+00 0.0000000e+00 6.0000000e+00 
2.5000000e+00 0.0000000e+00 9.0000000e+00 
2.5000000e+00 0.0000000e+00 1.2000000e+01 
2.5000000e+00 0.0000000e+00 1.5000000e+01 
2.5000000e+00 0.0000000e+00 1.8000000e+01 
3.0000000e+00 0.0000000e+00 3.0000000e+00 
3.0000000e+00 0.0000000e+00 6.0000000e+00 
3.0000000e+00 0.0000000e+00 9.0000000e+00 
3.0000000e+00 0.0000000e+00 1.2000000e+01 
3.0000000e+00 0.0000000e+00 1.5000000e+01 
3.0000000e+00 0.0000000e+00 1.8000000e+01 
3.5000000e+00 0.0000000e+00 3.0000000e+00 
3.5000000e+00 0.0000000e+00 6.0000000e+00 
3.5000000e+00 0.0000000e+00 9.0000000e+00 
3.5000000e+00 0.0000000e+00 1.2000000e+01 
3.5000000e+00 0.0000000e+00 1.5000000e+01 
3.5000000e+00 0.0000000e+00 1.8000000e+01 
4.0000000e+00 0.0000000e+00 3.0000000e+00 
4.0000000e+00 0.0000000e+00 6.0000000e+00 
4.0000000e+00 0.0000000e+00 9.0000000e+00 
4.0000000e+00 0.0000000e+00 1.2000000e+01 
4.0000000e+00 0.0000000e+00 1.5000000e+01 
4.0000000e+00 0.0000000e+00 1.8000000e+01 
4.5000000e+00 0.0000000e+00 3.0000000e+00 
4.5000000e+00 0.0000000e+00 6.0000000e+00 
4.5000000e+00 0.0000000e+00 9.0000000e+00 
4.5000000e+00 0.0000000e+00 1.2000000e+01 
4.5000000e+00 0.0000000e+00 1.5000000e+01 
4.5000000e+00 0.0000000e+00 1.8000000e+01 
5.0000000e+00 0.0000000e+00 3.0000000e+00 
5.0000000e+00 0.0000000e+00 6.0000000e+00 
5.0000000e+00 0.0000000e+00 9.0000000e+00 
5.0000000e+00 0.0000000e+00 1.2000000e+01 
5.0000000e+00 0.0000000e+00 1.5000000e+01 
5.0000000e+00 0.0000000e+00 1.8000000e+01 
5.5000000e+00 0.0000000e+00 3.0000000e+00 
5.5000000e+00 0.0000000e+00 6.0000000e+00 
5.5000000e+00 0.0000000e+00 9.0000000e+00 
5.5000000e+00 0.0000000e+00 1.2000000e+01 
5.5000000e+00 0.0000000e+00 1.5000000e+01 
5.5000000e+00 0.0000000e+00 1.8000000e+01 
6.0000000e+00 0.0000000e+00 0.0000000e+00 
6.0000000e+00 0.0000000e+00 2.5000000e-01 
6.0000000e+00 0.0000000e+00 5.0000000e-01 
6.0000000e+00 0.0000000e+00 7.5000000e-01 
6.0000000e+00 0.0000000e+00 1.0000000e+00 
6.0000000e+00 0.0000000e+00 1.2500000e+00 
6.0000000e+00 0.0000000e+00 1.5000000e+00 
6.0000000e+00 0.0000000e+00 1.7500000e+00 
6.0000000e+00 0.0000000e+00 2.0000000e+00 
6.0000000e+00 0.0000000e+00 2.2500000e+00 
6.0000000e+00 0.0000000e+00 2.5000000e+00 
6.0000000e+00 0.0000000e+00 2.7500000e+00 
6.0000000e+00 0.0000000e+00 3.0000000e+00 
6.0000000e+00 0.0000000e+00 3.2500000e+00 
6.0000000e+00 0.0000000e+00 3.5000000e+00 
6.0000000e+00 0.0000000e+00 3.7500000e+00 
6.0000000e+00 0.0000000e+00 4.0000000e+00 
6.0000000e+00 0.0000000e+00 4.2500000e+00 
6.0000000e+00 0.0000000e+00 4.5000000e+00 
6.0000000e+00 0.0000000e+00 4.7500000e+00 
6.0000000e+00 0.0000000e+00 5.0000000e+00 
6.0000000e+00 0.0000000e+00 5.2500000e+00 
6.0000000e+00 0.0000000e+00 5.5000000e+00 
6.0000000e+00 0.0000000e+00 5.7500000e+00 
6.0000000e+00 0.0000000e+00 6.0000000e+00 
6.0000000e+00 0.0000000e+00 6.2500000e+00 
6.0000000e+00 0.0000000e+00 6.5000000e+00 
6.0000000e+00 0.0000000e+00 6.7500000e+00 
6.0000000e+00 0.0000000e+00 7.0000000e+00 
6.0000000e+00 0.0000000e+00 7.2500000e+00 
6.0000000e+00 0.0000000e+00 7.5000000e+00 
6.0000000e+00 0.0000000e+00 7.7500000e+00 
6.0000000e+00 0.0000000e+00 8.0000000e+00 
6.0000000e+00 0.0000000e+00 8.2500000e+00 
6.0000000e+00 0.0000000e+00 8.5000000e+00 
6.0000000e+00 0.0000000e+00 8.7500000e+00 
6.0000000e+00 0.0000000e+00 9.0000000e+00 
6.0000000e+00 0.0000000e+00 9.2500000e+00 
6.0000000e+00 0.0000000e+00 9.5000000e+00 
6.0000000e+00 0.0000000e+00 9.7500000e+00 
6.0000000e+00 0.0000000e+00 1.0000000e+01 
6.0000000e+00 0.0000000e+00 1.0250000e+01 
6.0000000e+00 0.0000000e+00 1.0500000e+01 
6.0000000e+00 0.0000000e+00 1.0750000e+01 
6.0000000e+00 0.0000000e+00 1.1000000e+01 
6.0000000e+00 0.0000000e+00 1.1250000e+01 
6.0000000e+00 0.0000000e+00 1.1500000e+01 
6.0000000e+00 0.0000000e+00 1.1750000e+01 
6.0000000e+00 0.0000000e+00 1.2000000e+01 
6.0000000e+00 0.0000000e+00 1.2250000e+01 
6.0000000e+00 0.0000000e+00 1.2500000e+01 
6.0000000e+00 0.0000000e+00 1.2750000e+01 
6.0000000e+00 0.0000000e+00 1.3000000e+01 
6.0000000e+00 0.0000000e+00 1.3250000e+01 
6.0000000e+00 0.0000000e+00 1.3500000e+01 
6.0000000e+00 0.0000000e+00 1.3750000e+01 
6.0000000e+00 0.0000000e+00 1.4000000e+01 
6.0000000e+00 0.0000000e+00 1.4250000e+01 
6.0000000e+00 0.0000000e+00 1.4500000e+01 
6.0000000e+00 0.0000000e+00 1.4750000e+01 
6.0000000e+00 0.0000000e+00 1.5000000e+01 
6.0000000e+00 0.0000000e+00 1.5250000e+01 
6.0000000e+00 0.0000000e+00 1.5500000e+01 
6.0000000e+00 0.0000000e+00 1.5750000e+01 
6.0000000e+00 0.0000000e+00 1.6000000e+01 
6.0000000e+00 0.0000000e+00 1.6250000e+01 
6.0000000e+00 0.0000000e+00 1.6500000e+01 
6.0000000e+00 0.0000000e+00 1.6750000e+01 
6.0000000e+00 0.0000000e+00 1.7000000e+01 
6.0000000e+00 0.0000000e+00 1.7250000e+01 
6.0000000e+00 0.0000000e+00 1.7500000e+01 
6.0000000e+00 0.0000000e+00 1.7750000e+01 
6.0000000e+00 0.0000000e+00 1.8000000e+01 

CELLS 216 648
2 0 1
2 1 2
2 2 3
2 3 4
2 4 5
2 5 6
2 6 7
2 7 8
2 8 9
2 9 10
2 10 11
2 11 12
2 12 13
2 13 14
2 14 15
2 15 16
2 16 17
2 17 18
2 18 19
2 19 20
2 20 21
2 21 22
2 22 23
2 23 24
2 24 25
2 25 26
2 26 27
2 27 28
2 28 29
2 29 30
2 30 31
2 31 32
2 32 33
2 33 34
2 34 35
2 35 36
2 36 37
2 37 38
2 38 39
2 39 40
2 40 41
2 41 42
2 42 43
2 43 44
2 44 45
2 45 46
2 46 47
2 47 48
2 48 49
2 49 50
2 50 51
2 51 52
2 52 53
2 53 54
2 54 55
2 55 56
2 56 57
2 57 58
2 58 59
2 59 60
2 60 61
2 61 62
2 62 63
2 63 64
2 64 65
2 65 66
2 66 67
2 67 68
2 68 69
2 69 70
2 70 71
2 71 72
2 139 140
2 140 141
2 141 142
2 142 143
2 143 144
2 144 145
2 145 146
2 146 147
2 147 148
2 148 149
2 149 150
2 150 151
2 151 152
2 152 153
2 153 154
2 154 155
2 155 156
2 156 157
2 157 158
2 158 159
2 159 160
2 160 161
2 161 162
2 162 163
2 163 164
2 164 165
2 165 166
2 166 167
2 167 168
2 168 169
2 169 170
2 170 171
2 171 172
2 172 173
2 173 174
2 174 175
2 175 176
2 176 177
2 177 178
2 178 179
2 179 180
2 180 181
2 181 182
2 182 183
2 183 184
2 184 185
2 185 186
2 186 187
2 187 188
2 188 189
2 189 190
2 190 191
2 191 192
2 192 193
2 193 194
2 194 195
2 195 196
2 196 197
2 197 198
2 198 199
2 199 200
2 200 201
2 201 202
2 202 203
2 203 204
2 204 205
2 205 206
2 206 207
2 207 208
2 208 209
2 209 210
2 210 211
2 12 73
2 73 79
2 79 85
2 85 91
2 91 97
2 97 103
2 103 109
2 109 115
2 115 121
2 121 127
2 127 133
2 133 151
2 24 74
2 74 80
2 80 86
2 86 92
2 92 98
2 98 104
2 104 110
2 110 116
2 116 122
2 122 128
2 128 134
2 134 163
2 36 75
2 75 81
2 81 87
2 87 93
2 93 99
2 99 105
2 105 111
2 111 117
2 117 123
2 123 129
2 129 135
2 135 175
2 48 76
2 76 82
2 82 88
2 88 94
2 94 100
2 100 106
2 106 112
2 112 118
2 118 124
2 124 130
2 130 136
2 136 187
2 60 77
2 77 83
2 83 89
2 89 95
2 95 101
2 101 107
2 107 113
2 113 119
2 119 125
2 125 131
2 131 137
2 137 199
2 72 78
2 78 84
2 84 90
2 90 96
2 96 102
2 102 108
2 108 114
2 114 120
2 120 126
2 126 132
2 132 138
2 138 211

CELL_TYPES 216
3
3
3
3
3
3
3
3
3
3
3
3
3
3
3
3
3
3
3
3
3
3
3
3
3
3
3
3
3
3
3
3
3
3
3
3
3
3
3
3
3
3
3
3
3
3
3
3
3
3
3
3
3
3
3
3
3
3
3
3
3
3
3
3
3
3
3
3
3
3
3
3
3
3
3
3
3
3
3
3
3
3
3
3
3
3
3
3
3
3
3
3
3
3
3
3
3
3
3
3
3
3
3
3
3
3
3
3
3
3
3
3
3
3
3
3
3
3
3
3
3
3
3
3
3
3
3
3
3
3
3
3
3
3
3
3
3
3
3
3
3
3
3
3
3
3
3
3
3
3
3
3
3
3
3
3
3
3
3
3
3
3
3
3
3
3
3
3
3
3
3
3
3
3
3
3
3
3
3
3
3
3
3
3
3
3
3
3
3
3
3
3
3
3
3
3
3
3
3
3
3
3
3
3
3
3
3
3
3
3
3
3
3
3
3
3
POINT_DATA 212
FIELD FieldData 3
ADJOINT_DISPLACEMENT 3 212  float
0.0000000e+00 0.0000000e+00 0.0000000e+00 
-7.0582805e-06 0.0000000e+00 -7.2763331e-18 
-1.3806452e-05 0.0000000e+00 -1.4552666e-17 
-1.9934403e-05 0.0000000e+00 -2.1829000e-17 
-2.5132027e-05 0.0000000e+00 -2.9105333e-17 
-2.9089211e-05 0.0000000e+00 -3.6381667e-17 
-3.1495845e-05 0.0000000e+00 -4.3658000e-17 
-3.2041826e-05 0.0000000e+00 -5.0934334e-17 
-3.0417037e-05 0.0000000e+00 -5.8210665e-17 
-2.6311371e-05 0.0000000e+00 -6.5487002e-17 
-1.9414718e-05 0.0000000e+00 -7.2763333e-17 
-9.4169691e-06 0.0000000e+00 -8.0039670e-17 
3.9919855e-06 0.0000000e+00 -8.7316001e-17 
2.1377458e-05 0.0000000e+00 -7.7240213e-17 
4.1789244e-05 0.0000000e+00 -6.7153712e-17 
6.3264190e-05 0.0000000e+00 -5.7069010e-17 
8.3839128e-05 0.0000000e+00 -4.6986519e-17 
1.0155090e-04 0.0000000e+00 -3.6903201e-17 
1.1443635e-04 0.0000000e+00 -2.6819234e-17 
1.2053231e-04 0.0000000e+00 -1.6735282e-17 
1.1787562e-04 0.0000000e+00 -6.6513746e-18 
1.0450312e-04 0.0000000e+00 3.4325392e-18 
7.8451660e-05 0.0000000e+00 1.3516452e-17 
3.7758069e-05 0.0000000e+00 2.3600373e-17 
-1.9540810e-05 0.0000000e+00 3.3684297e-17 
-9.6314187e-05 0.0000000e+00 5.7064504e-17 
-1.8801283e-04 0.0000000e+00 8.0505512e-17 
-2.8547220e-04 0.0000000e+00 1.0394634e-16 
-3.7952777e-04 0.0000000e+00 1.2736112e-16 
-4.6101506e-04 0.0000000e+00 1.5075831e-16 
-5.2076956e-04 0.0000000e+00 1.7415187e-16 
-5.4962665e-04 0.0000000e+00 1.9754355e-16 
-5.3842197e-04 0.0000000e+00 2.2093548e-16 
-4.7799083e-04 0.0000000e+00 2.4432784e-16 
-3.5916883e-04 0.0000000e+00 2.6771932e-16 
-1.7279142e-04 0.0000000e+00 2.9111067e-16 
9.0305934e-05 0.0000000e+00 3.1450190e-16 
4.4340483e-04 0.0000000e+00 3.4988877e-16 
8.6550321e-04 0.0000000e+00 3.8538665e-16 
1.3143402e-03 0.0000000e+00 4.2084800e-16 
1.7476548e-03 0.0000000e+00 4.5626631e-16 
2.1231859e-03 0.0000000e+00 4.9165011e-16 
2.3986727e-03 0.0000000e+00 5.2705715e-16 
2.5318544e-03 0.0000000e+00 5.6246879e-16 
2.4804696e-03 0.0000000e+00 5.9787593e-16 
2.2022580e-03 0.0000000e+00 6.3328196e-16 
1.6549579e-03 0.0000000e+00 6.6868725e-16 
7.9630880e-04 0.0000000e+00 7.0409005e-16 
-4.1595037e-04 0.0000000e+00 7.3949147e-16 
-2.0430675e-03 0.0000000e+00 7.8770708e-16 
-3.9883791e-03 0.0000000e+00 8.3488215e-16 
-6.0572806e-03 0.0000000e+00 8.8157866e-16 
-8.0551654e-03 0.0000000e+00 9.2838591e-16 
-9.7874291e-03 0.0000000e+00 9.7475948e-16 
-1.1059465e-02 0.0000000e+00 1.0208650e-15 
-1.1676668e-02 0.0000000e+00 1.0669682e-15 
-1.1444433e-02 0.0000000e+00 1.1130574e-15 
-1.0168155e-02 0.0000000e+00 1.1591453e-15 
-7.6532266e-03 0.0000000e+00 1.2052389e-15 
-3.7050443e-03 0.0000000e+00 1.2513258e-15 
1.8709985e-03 0.0000000e+00 1.2974115e-15 
9.3608825e-03 0.0000000e+00 1.3403858e-15 
1.8340286e-02 0.0000000e+00 1.3889292e-15 
2.7938357e-02 0.0000000e+00 1.4384442e-15 
3.7284244e-02 0.0000000e+00 1.4881170e-15 
4.5507103e-02 0.0000000e+00 1.5366733e-15 
5.1736075e-02 0.0000000e+00 1.5854328e-15 
5.5100314e-02 0.0000000e+00 1.6341871e-15 
5.4728970e-02 0.0000000e+00 1.6829994e-15 
4.9751189e-02 0.0000000e+00 1.7318012e-15 
3.9296124e-02 0.0000000e+00 1.7805749e-15 
2.2492925e-02 0.0000000e+00 1.8293303e-15 
-1.5292608e-03 0.0000000e+00 1.8781281e-15 
3.3266547e-06 0.0000000e+00 -2.7899534e-05 
-1.6284008e-05 0.0000000e+00 1.2146917e-04 
7.5254946e-05 0.0000000e+00 -5.5827230e-04 
-3.4662531e-04 0.0000000e+00 2.5724438e-03 
1.5591655e-03 0.0000000e+00 -1.1833875e-02 
-1.2743840e-03 0.0000000e+00 7.2023600e-02 
2.6613238e-06 0.0000000e+00 -5.0726427e-05 
-1.3027206e-05 0.0000000e+00 2.2085303e-04 
6.0203954e-05 0.0000000e+00 -1.0150406e-03 
-2.7730025e-04 0.0000000e+00 4.6771704e-03 
1.2473324e-03 0.0000000e+00 -2.1516139e-02 
-1.0195072e-03 0.0000000e+00 1.7640655e-01 
1.9959928e-06 0.0000000e+00 -6.8480673e-05 
-9.7704051e-06 0.0000000e+00 2.9815160e-04 
4.5152967e-05 0.0000000e+00 -1.3703047e-03 
-2.0797519e-04 0.0000000e+00 6.3141803e-03 
9.3549927e-04 0.0000000e+00 -2.9046787e-02 
-7.6463039e-04 0.0000000e+00 3.1314883e-01 
1.3306618e-06 0.0000000e+00 -8.1162281e-05 
-6.5136032e-06 0.0000000e+00 3.5336486e-04 
3.0101977e-05 0.0000000e+00 -1.6240649e-03 
-1.3865012e-04 0.0000000e+00 7.4834730e-03 
6.2366622e-04 0.0000000e+00 -3.4425821e-02 
-5.0975359e-04 0.0000000e+00 4.8225045e-01 
6.6533084e-07 0.0000000e+00 -8.8771245e-05 
-3.2568018e-06 0.0000000e+00 3.8649281e-04 
1.5050989e-05 0.0000000e+00 -1.7763209e-03 
-6.9325062e-05 0.0000000e+00 8.1850486e-03 
3.1183311e-04 0.0000000e+00 -3.7653241e-02 
-2.5487680e-04 0.0000000e+00 6.8371147e-01 
-1.1766800e-13 0.0000000e+00 -9.1307564e-05 
-1.9076463e-13 0.0000000e+00 3.9753548e-04 
-2.5426699e-13 0.0000000e+00 -1.8270729e-03 
-3.1470494e-13 0.0000000e+00 8.4189074e-03 
-3.6083078e-13 0.0000000e+00 -3.8729049e-02 
-3.6711725e-13 0.0000000e+00 9.1753179e-01 
-6.6533107e-07 0.0000000e+00 -8.8771245e-05 
3.2568014e-06 0.0000000e+00 3.8649281e-04 
-1.5050989e-05 0.0000000e+00 -1.7763209e-03 
6.9325062e-05 0.0000000e+00 8.1850486e-03 
-3.1183311e-04 0.0000000e+00 -3.7653241e-02 
2.5487680e-04 0.0000000e+00 6.8371147e-01 
-1.3306620e-06 0.0000000e+00 -8.1162281e-05 
6.5136032e-06 0.0000000e+00 3.5336486e-04 
-3.0101977e-05 0.0000000e+00 -1.6240649e-03 
1.3865012e-04 0.0000000e+00 7.4834730e-03 
-6.2366622e-04 0.0000000e+00 -3.4425821e-02 
5.0975359e-04 0.0000000e+00 4.8225045e-01 
-1.9959930e-06 0.0000000e+00 -6.8480673e-05 
9.7704051e-06 0.0000000e+00 2.9815160e-04 
-4.5152967e-05 0.0000000e+00 -1.3703047e-03 
2.0797519e-04 0.0000000e+00 6.3141803e-03 
-9.3549927e-04 0.0000000e+00 -2.9046787e-02 
7.6463039e-04 0.0000000e+00 3.1314883e-01 
-2.6613241e-06 0.0000000e+00 -5.0726427e-05 
1.3027206e-05 0.0000000e+00 2.2085303e-04 
-6.0203954e-05 0.0000000e+00 -1.0150406e-03 
2.7730025e-04 0.0000000e+00 4.6771704e-03 
-1.2473324e-03 0.0000000e+00 -2.1516139e-02 
1.0195072e-03 0.0000000e+00 1.7640655e-01 
-3.3266549e-06 0.0000000e+00 -2.7899534e-05 
1.6284008e-05 0.0000000e+00 1.2146917e-04 
-7.5254946e-05 0.0000000e+00 -5.5827230e-04 
3.4662531e-04 0.0000000e+00 2.5724438e-03 
-1.5591655e-03 0.0000000e+00 -1.1833875e-02 
1.2743840e-03 0.0000000e+00 7.2023600e-02 
0.0000000e+00 0.0000000e+00 0.0000000e+00 
7.0582805e-06 0.0000000e+00 5.6086207e-17 
1.3806452e-05 0.0000000e+00 1.1217241e-16 
1.9934403e-05 0.0000000e+00 1.6825863e-16 
2.5132025e-05 0.0000000e+00 2.2434486e-16 
2.9089211e-05 0.0000000e+00 2.8043106e-16 
3.1495845e-05 0.0000000e+00 3.3651730e-16 
3.2041826e-05 0.0000000e+00 3.9260350e-16 
3.0417035e-05 0.0000000e+00 4.4868971e-16 
2.6311371e-05 0.0000000e+00 5.0477605e-16 
1.9414718e-05 0.0000000e+00 5.6086234e-16 
9.4169691e-06 0.0000000e+00 6.1694857e-16 
-3.9919860e-06 0.0000000e+00 6.7303486e-16 
-2.1377458e-05 0.0000000e+00 7.1177237e-16 
-4.1789244e-05 0.0000000e+00 7.5050989e-16 
-6.3264190e-05 0.0000000e+00 7.8924741e-16 
-8.3839128e-05 0.0000000e+00 8.2798492e-16 
-1.0155090e-04 0.0000000e+00 8.6672249e-16 
-1.1443635e-04 0.0000000e+00 9.0546012e-16 
-1.2053231e-04 0.0000000e+00 9.4419768e-16 
-1.1787562e-04 0.0000000e+00 9.8293515e-16 
-1.0450312e-04 0.0000000e+00 1.0216727e-15 
-7.8451660e-05 0.0000000e+00 1.0604103e-15 
-3.7758069e-05 0.0000000e+00 1.0991479e-15 
1.9540810e-05 0.0000000e+00 1.1378853e-15 
9.6314187e-05 0.0000000e+00 1.1632549e-15 
1.8801283e-04 0.0000000e+00 1.1886247e-15 
2.8547220e-04 0.0000000e+00 1.2139944e-15 
3.7952777e-04 0.0000000e+00 1.2393643e-15 
4.6101506e-04 0.0000000e+00 1.2647343e-15 
5.2076956e-04 0.0000000e+00 1.2901041e-15 
5.4962665e-04 0.0000000e+00 1.3154738e-15 
5.3842197e-04 0.0000000e+00 1.3408436e-15 
4.7799083e-04 0.0000000e+00 1.3662133e-15 
3.5916883e-04 0.0000000e+00 1.3915832e-15 
1.7279142e-04 0.0000000e+00 1.4169530e-15 
-9.0305934e-05 0.0000000e+00 1.4423228e-15 
-4.4340483e-04 0.0000000e+00 1.4552729e-15 
-8.6550321e-04 0.0000000e+00 1.4682239e-15 
-1.3143402e-03 0.0000000e+00 1.4811775e-15 
-1.7476548e-03 0.0000000e+00 1.4941306e-15 
-2.1231859e-03 0.0000000e+00 1.5070834e-15 
-2.3986727e-03 0.0000000e+00 1.5200360e-15 
-2.5318544e-03 0.0000000e+00 1.5329904e-15 
-2.4804696e-03 0.0000000e+00 1.5459446e-15 
-2.2022580e-03 0.0000000e+00 1.5588987e-15 
-1.6549579e-03 0.0000000e+00 1.5718528e-15 
-7.9630880e-04 0.0000000e+00 1.5848070e-15 
4.1595037e-04 0.0000000e+00 1.5977612e-15 
2.0430675e-03 0.0000000e+00 1.5993214e-15 
3.9883791e-03 0.0000000e+00 1.6008882e-15 
6.0572806e-03 0.0000000e+00 1.6024545e-15 
8.0551654e-03 0.0000000e+00 1.6040162e-15 
9.7874291e-03 0.0000000e+00 1.6055902e-15 
1.1059465e-02 0.0000000e+00 1.6071604e-15 
1.1676668e-02 0.0000000e+00 1.6087316e-15 
1.1444433e-02 0.0000000e+00 1.6103009e-15 
1.0168155e-02 0.0000000e+00 1.6118689e-15 
7.6532266e-03 0.0000000e+00 1.6134366e-15 
3.7050443e-03 0.0000000e+00 1.6150042e-15 
-1.8709985e-03 0.0000000e+00 1.6165715e-15 
-9.3608825e-03 0.0000000e+00 1.6133372e-15 
-1.8340286e-02 0.0000000e+00 1.6101101e-15 
-2.7938357e-02 0.0000000e+00 1.6068542e-15 
-3.7284244e-02 0.0000000e+00 1.6035889e-15 
-4.5507103e-02 0.0000000e+00 1.6003530e-15 
-5.1736075e-02 0.0000000e+00 1.5971120e-15 
-5.5100314e-02 0.0000000e+00 1.5938437e-15 
-5.4728970e-02 0.0000000e+00 1.5906507e-15 
-4.9751189e-02 0.0000000e+00 1.5874277e-15 
-3.9296124e-02 0.0000000e+00 1.5841942e-15 
-2.2492925e-02 0.0000000e+00 1.5809761e-15 
1.5292608e-03 0.0000000e+00 1.5777579e-15 
ADJOINT_ROTATION 3 212  float
0.0000000e+00 -2.8439863e-05 0.0000000e+00 
0.0000000e+00 -2.7819642e-05 0.0000000e+00 
0.0000000e+00 -2.5958985e-05 0.0000000e+00 
0.0000000e+00 -2.2857888e-05 0.0000000e+00 
0.0000000e+00 -1.8516354e-05 0.0000000e+00 
0.0000000e+00 -1.2934381e-05 0.0000000e+00 
0.0000000e+00 -6.1119690e-06 0.0000000e+00 
0.0000000e+00 1.9508811e-06 0.0000000e+00 
0.0000000e+00 1.1254170e-05 0.0000000e+00 
0.0000000e+00 2.1797898e-05 0.0000000e+00 
0.0000000e+00 3.3582062e-05 0.0000000e+00 
0.0000000e+00 4.6606667e-05 0.0000000e+00 
0.0000000e+00 6.0871709e-05 0.0000000e+00 
0.0000000e+00 7.6903292e-05 0.0000000e+00 
0.0000000e+00 8.5082233e-05 0.0000000e+00 
0.0000000e+00 8.5408537e-05 0.0000000e+00 
0.0000000e+00 7.7882192e-05 0.0000000e+00 
0.0000000e+00 6.2503212e-05 0.0000000e+00 
0.0000000e+00 3.9271585e-05 0.0000000e+00 
0.0000000e+00 8.1873186e-06 0.0000000e+00 
0.0000000e+00 -3.0749590e-05 0.0000000e+00 
0.0000000e+00 -7.7539138e-05 0.0000000e+00 
0.0000000e+00 -1.3218133e-04 0.0000000e+00 
0.0000000e+00 -1.9467616e-04 0.0000000e+00 
0.0000000e+00 -2.6502364e-04 0.0000000e+00 
0.0000000e+00 -3.4305372e-04 0.0000000e+00 
0.0000000e+00 -3.8442569e-04 0.0000000e+00 
0.0000000e+00 -3.8913960e-04 0.0000000e+00 
0.0000000e+00 -3.5719544e-04 0.0000000e+00 
0.0000000e+00 -2.8859320e-04 0.0000000e+00 
0.0000000e+00 -1.8333287e-04 0.0000000e+00 
0.0000000e+00 -4.1414482e-05 0.0000000e+00 
0.0000000e+00 1.3716199e-04 0.0000000e+00 
0.0000000e+00 3.5239654e-04 0.0000000e+00 
0.0000000e+00 6.0428918e-04 0.0000000e+00 
0.0000000e+00 8.9283986e-04 0.0000000e+00 
0.0000000e+00 1.2180486e-03 0.0000000e+00 
0.0000000e+00 1.5785686e-03 0.0000000e+00 
0.0000000e+00 1.7700447e-03 0.0000000e+00 
0.0000000e+00 1.7924770e-03 0.0000000e+00 
0.0000000e+00 1.6458655e-03 0.0000000e+00 
0.0000000e+00 1.3302101e-03 0.0000000e+00 
0.0000000e+00 8.4551086e-04 0.0000000e+00 
0.0000000e+00 1.9176785e-04 0.0000000e+00 
0.0000000e+00 -6.3101901e-04 0.0000000e+00 
0.0000000e+00 -1.6228497e-03 0.0000000e+00 
0.0000000e+00 -2.7837241e-03 0.0000000e+00 
0.0000000e+00 -4.1136425e-03 0.0000000e+00 
0.0000000e+00 -5.6126048e-03 0.0000000e+00 
0.0000000e+00 -7.2745951e-03 0.0000000e+00 
0.0000000e+00 -8.1581632e-03 0.0000000e+00 
0.0000000e+00 -8.2633095e-03 0.0000000e+00 
0.0000000e+00 -7.5900336e-03 0.0000000e+00 
0.0000000e+00 -6.1383354e-03 0.0000000e+00 
0.0000000e+00 -3.9082156e-03 0.0000000e+00 
0.0000000e+00 -8.9967385e-04 0.0000000e+00 
0.0000000e+00 2.8872900e-03 0.0000000e+00 
0.0000000e+00 7.4526761e-03 0.0000000e+00 
0.0000000e+00 1.2796484e-02 0.0000000e+00 
0.0000000e+00 1.8918714e-02 0.0000000e+00 
0.0000000e+00 2.5819365e-02 0.0000000e+00 
0.0000000e+00 3.3519141e-02 0.0000000e+00 
0.0000000e+00 3.7735514e-02 0.0000000e+00 
0.0000000e+00 3.8468488e-02 0.0000000e+00 
0.0000000e+00 3.5718057e-02 0.0000000e+00 
0.0000000e+00 2.9484225e-02 0.0000000e+00 
0.0000000e+00 1.9766992e-02 0.0000000e+00 
0.0000000e+00 6.5663559e-03 0.0000000e+00 
0.0000000e+00 -1.0117682e-02 0.0000000e+00 
0.0000000e+00 -3.0285120e-02 0.0000000e+00 
0.0000000e+00 -5.3935964e-02 0.0000000e+00 
0.0000000e+00 -8.1070207e-02 0.0000000e+00 
0.0000000e+00 -1.1168785e-01 0.0000000e+00 
0.0000000e+00 5.0726427e-05 0.0000000e+00 
0.0000000e+00 -2.2085303e-04 0.0000000e+00 
0.0000000e+00 1.0150406e-03 0.0000000e+00 
0.0000000e+00 -4.6771704e-03 0.0000000e+00 
0.0000000e+00 2.1516139e-02 0.0000000e+00 
0.0000000e+00 -1.7640655e-01 0.0000000e+00 
0.0000000e+00 4.0581141e-05 0.0000000e+00 
0.0000000e+00 -1.7668243e-04 0.0000000e+00 
0.0000000e+00 8.1203243e-04 0.0000000e+00 
0.0000000e+00 -3.7417365e-03 0.0000000e+00 
0.0000000e+00 1.7212911e-02 0.0000000e+00 
0.0000000e+00 -2.4112523e-01 0.0000000e+00 
0.0000000e+00 3.0435855e-05 0.0000000e+00 
0.0000000e+00 -1.3251182e-04 0.0000000e+00 
0.0000000e+00 6.0902431e-04 0.0000000e+00 
0.0000000e+00 -2.8063024e-03 0.0000000e+00 
0.0000000e+00 1.2909682e-02 0.0000000e+00 
0.0000000e+00 -3.0584392e-01 0.0000000e+00 
0.0000000e+00 2.0290570e-05 0.0000000e+00 
0.0000000e+00 -8.8341214e-05 0.0000000e+00 
0.0000000e+00 4.0601622e-04 0.0000000e+00 
0.0000000e+00 -1.8708683e-03 0.0000000e+00 
0.0000000e+00 8.6064553e-03 0.0000000e+00 
0.0000000e+00 -3.7056261e-01 0.0000000e+00 
0.0000000e+00 1.0145285e-05 0.0000000e+00 
0.0000000e+00 -4.4170607e-05 0.0000000e+00 
0.0000000e+00 2.0300811e-04 0.0000000e+00 
0.0000000e+00 -9.3543413e-04 0.0000000e+00 
0.0000000e+00 4.3032276e-03 0.0000000e+00 
0.0000000e+00 -4.3528131e-01 0.0000000e+00 
0.0000000e+00 1.1255927e-14 0.0000000e+00 
0.0000000e+00 8.5827663e-15 0.0000000e+00 
0.0000000e+00 8.0040107e-15 0.0000000e+00 
0.0000000e+00 7.5914328e-15 0.0000000e+00 
0.0000000e+00 2.8360910e-15 0.0000000e+00 
0.0000000e+00 -5.0000000e-01 0.0000000e+00 
0.0000000e+00 -1.0145285e-05 0.0000000e+00 
0.0000000e+00 4.4170607e-05 0.0000000e+00 
0.0000000e+00 -2.0300811e-04 0.0000000e+00 
0.0000000e+00 9.3543413e-04 0.0000000e+00 
0.0000000e+00 -4.3032276e-03 0.0000000e+00 
0.0000000e+00 4.3528131e-01 0.0000000e+00 
0.0000000e+00 -2.0290570e-05 0.0000000e+00 
0.0000000e+00 8.8341214e-05 0.0000000e+00 
0.0000000e+00 -4.0601622e-04 0.0000000e+00 
0.0000000e+00 1.8708683e-03 0.0000000e+00 
0.0000000e+00 -8.6064553e-03 0.0000000e+00 
0.0000000e+00 3.7056261e-01 0.0000000e+00 
0.0000000e+00 -3.0435855e-05 0.0000000e+00 
0.0000000e+00 1.3251182e-04 0.0000000e+00 
0.0000000e+00 -6.0902431e-04 0.0000000e+00 
0.0000000e+00 2.8063024e-03 0.0000000e+00 
0.0000000e+00 -1.2909682e-02 0.0000000e+00 
0.0000000e+00 3.0584392e-01 0.0000000e+00 
0.0000000e+00 -4.0581141e-05 0.0000000e+00 
0.0000000e+00 1.7668243e-04 0.0000000e+00 
0.0000000e+00 -8.1203243e-04 0.0000000e+00 
0.0000000e+00 3.7417365e-03 0.0000000e+00 
0.0000000e+00 -1.7212911e-02 0.0000000e+00 
0.0000000e+00 2.4112523e-01 0.0000000e+00 
0.0000000e+00 -5.0726427e-05 0.0000000e+00 
0.0000000e+00 2.2085303e-04 0.0000000e+00 
0.0000000e+00 -1.0150406e-03 0.0000000e+00 
0.0000000e+00 4.6771704e-03 0.0000000e+00 
0.0000000e+00 -2.1516139e-02 0.0000000e+00 
0.0000000e+00 1.7640655e-01 0.0000000e+00 
0.0000000e+00 2.8439863e-05 0.0000000e+00 
0.0000000e+00 2.7819642e-05 0.0000000e+00 
0.0000000e+00 2.5958985e-05 0.0000000e+00 
0.0000000e+00 2.2857888e-05 0.0000000e+00 
0.0000000e+00 1.8516354e-05 0.0000000e+00 
0.0000000e+00 1.2934381e-05 0.0000000e+00 
0.0000000e+00 6.1119690e-06 0.0000000e+00 
0.0000000e+00 -1.9508811e-06 0.0000000e+00 
0.0000000e+00 -1.1254170e-05 0.0000000e+00 
0.0000000e+00 -2.1797898e-05 0.0000000e+00 
0.0000000e+00 -3.3582062e-05 0.0000000e+00 
0.0000000e+00 -4.6606667e-05 0.0000000e+00 
0.0000000e+00 -6.0871709e-05 0.0000000e+00 
0.0000000e+00 -7.6903292e-05 0.0000000e+00 
0.0000000e+00 -8.5082233e-05 0.0000000e+00 
0.0000000e+00 -8.5408537e-05 0.0000000e+00 
0.0000000e+00 -7.7882192e-05 0.0000000e+00 
0.0000000e+00 -6.2503212e-05 0.0000000e+00 
0.0000000e+00 -3.9271585e-05 0.0000000e+00 
0.0000000e+00 -8.1873186e-06 0.0000000e+00 
0.0000000e+00 3.0749590e-05 0.0000000e+00 
0.0000000e+00 7.7539138e-05 0.0000000e+00 
0.0000000e+00 1.3218133e-04 0.0000000e+00 
0.0000000e+00 1.9467616e-04 0.0000000e+00 
0.0000000e+00 2.6502364e-04 0.0000000e+00 
0.0000000e+00 3.4305372e-04 0.0000000e+00 
0.0000000e+00 3.8442569e-04 0.0000000e+00 
0.0000000e+00 3.8913960e-04 0.0000000e+00 
0.0000000e+00 3.5719544e-04 0.0000000e+00 
0.0000000e+00 2.8859320e-04 0.0000000e+00 
0.0000000e+00 1.8333287e-04 0.0000000e+00 
0.0000000e+00 4.1414482e-05 0.0000000e+00 
0.0000000e+00 -1.3716199e-04 0.0000000e+00 
0.0000000e+00 -3.5239654e-04 0.0000000e+00 
0.0000000e+00 -6.0428918e-04 0.0000000e+00 
0.0000000e+00 -8.9283986e-04 0.0000000e+00 
0.0000000e+00 -1.2180486e-03 0.0000000e+00 
0.0000000e+00 -1.5785686e-03 0.0000000e+00 
0.0000000e+00 -1.7700447e-03 0.0000000e+00 
0.0000000e+00 -1.7924770e-03 0.0000000e+00 
0.0000000e+00 -1.6458655e-03 0.0000000e+00 
0.0000000e+00 -1.3302101e-03 0.0000000e+00 
0.0000000e+00 -8.4551086e-04 0.0000000e+00 
0.0000000e+00 -1.9176785e-04 0.0000000e+00 
0.0000000e+00 6.3101901e-04 0.0000000e+00 
0.0000000e+00 1.6228497e-03 0.0000000e+00 
0.0000000e+00 2.7837241e-03 0.0000000e+00 
0.0000000e+00 4.1136425e-03 0.0000000e+00 
0.0000000e+00 5.6126048e-03 0.0000000e+00 
0.0000000e+00 7.2745951e-03 0.0000000e+00 
0.0000000e+00 8.1581632e-03 0.0000000e+00 
0.0000000e+00 8.2633095e-03 0.0000000e+00 
0.0000000e+00 7.5900336e-03 0.0000000e+00 
0.0000000e+00 6.1383354e-03 0.0000000e+00 
0.0000000e+00 3.9082156e-03 0.0000000e+00 
0.0000000e+00 8.9967385e-04 0.0000000e+00 
0.0000000e+00 -2.8872900e-03 0.0000000e+00 
0.0000000e+00 -7.4526761e-03 0.0000000e+00 
0.0000000e+00 -1.2796484e-02 0.0000000e+00 
0.0000000e+00 -1.8918714e-02 0.0000000e+00 
0.0000000e+00 -2.5819365e-02 0.0000000e+00 
0.0000000e+00 -3.3519141e-02 0.0000000e+00 
0.0000000e+00 -3.7735514e-02 0.0000000e+00 
0.0000000e+00 -3.8468488e-02 0.0000000e+00 
0.0000000e+00 -3.5718057e-02 0.0000000e+00 
0.0000000e+00 -2.9484225e-02 0.0000000e+00 
0.0000000e+00 -1.9766992e-02 0.0000000e+00 
0.0000000e+00 -6.5663559e-03 0.0000000e+00 