# vtk DataFile Version 4.0
vtk output
ASCII
DATASET UNSTRUCTURED_GRID
POINTS 86 float
0.0000000e+00 0.0000000e+00 0.0000000e+00 
0.0000000e+00 0.0000000e+00 6.0000002e-01 
0.0000000e+00 0.0000000e+00 1.2000000e+00 
0.0000000e+00 0.0000000e+00 1.8000000e+00 
0.0000000e+00 0.0000000e+00 2.4000001e+00 
0.0000000e+00 0.0000000e+00 3.0000000e+00 
0.0000000e+00 0.0000000e+00 3.5999999e+00 
0.0000000e+00 0.0000000e+00 4.1999998e+00 
0.0000000e+00 0.0000000e+00 4.8000002e+00 
0.0000000e+00 0.0000000e+00 5.4000001e+00 
0.0000000e+00 0.0000000e+00 6.0000000e+00 
0.0000000e+00 0.0000000e+00 6.5999999e+00 
0.0000000e+00 0.0000000e+00 7.1999998e+00 
0.0000000e+00 0.0000000e+00 7.8000002e+00 
0.0000000e+00 0.0000000e+00 8.3999996e+00 
0.0000000e+00 0.0000000e+00 9.0000000e+00 
0.0000000e+00 0.0000000e+00 9.6000004e+00 
0.0000000e+00 0.0000000e+00 1.0200000e+01 
0.0000000e+00 0.0000000e+00 1.0800000e+01 
0.0000000e+00 0.0000000e+00 1.1400000e+01 
0.0000000e+00 0.0000000e+00 1.2000000e+01 
0.0000000e+00 0.0000000e+00 1.2600000e+01 
0.0000000e+00 0.0000000e+00 1.3200000e+01 
0.0000000e+00 0.0000000e+00 1.3800000e+01 
0.0000000e+00 0.0000000e+00 1.4400000e+01 
0.0000000e+00 0.0000000e+00 1.5000000e+01 
0.0000000e+00 0.0000000e+00 1.5600000e+01 
0.0000000e+00 0.0000000e+00 1.6200001e+01 
0.0000000e+00 0.0000000e+00 1.6799999e+01 
0.0000000e+00 0.0000000e+00 1.7400000e+01 
0.0000000e+00 0.0000000e+00 1.8000000e+01 
6.0000000e+00 0.0000000e+00 0.0000000e+00 
6.0000000e+00 0.0000000e+00 6.0000002e-01 
6.0000000e+00 0.0000000e+00 1.2000000e+00 
6.0000000e+00 0.0000000e+00 1.8000000e+00 
6.0000000e+00 0.0000000e+00 2.4000001e+00 
6.0000000e+00 0.0000000e+00 3.0000000e+00 
6.0000000e+00 0.0000000e+00 3.5999999e+00 
6.0000000e+00 0.0000000e+00 4.1999998e+00 
6.0000000e+00 0.0000000e+00 4.8000002e+00 
6.0000000e+00 0.0000000e+00 5.4000001e+00 
6.0000000e+00 0.0000000e+00 6.0000000e+00 
6.0000000e+00 0.0000000e+00 6.5999999e+00 
6.0000000e+00 0.0000000e+00 7.1999998e+00 
6.0000000e+00 0.0000000e+00 7.8000002e+00 
6.0000000e+00 0.0000000e+00 8.3999996e+00 
6.0000000e+00 0.0000000e+00 9.0000000e+00 
6.0000000e+00 0.0000000e+00 9.6000004e+00 
6.0000000e+00 0.0000000e+00 1.0200000e+01 
6.0000000e+00 0.0000000e+00 1.0800000e+01 
6.0000000e+00 0.0000000e+00 1.1400000e+01 
6.0000000e+00 0.0000000e+00 1.2000000e+01 
6.0000000e+00 0.0000000e+00 1.2600000e+01 
6.0000000e+00 0.0000000e+00 1.3200000e+01 
6.0000000e+00 0.0000000e+00 1.3800000e+01 
6.0000000e+00 0.0000000e+00 1.4400000e+01 
6.0000000e+00 0.0000000e+00 1.5000000e+01 
6.0000000e+00 0.0000000e+00 1.5600000e+01 
6.0000000e+00 0.0000000e+00 1.6200001e+01 
6.0000000e+00 0.0000000e+00 1.6799999e+01 
6.0000000e+00 0.0000000e+00 1.7400000e+01 
6.0000000e+00 0.0000000e+00 1.8000000e+01 
1.2000000e+00 0.0000000e+00 3.0000000e+00 
2.4000001e+00 0.0000000e+00 3.0000000e+00 
3.5999999e+00 0.0000000e+00 3.0000000e+00 
4.8000002e+00 0.0000000e+00 3.0000000e+00 
1.2000000e+00 0.0000000e+00 6.0000000e+00 
2.4000001e+00 0.0000000e+00 6.0000000e+00 
3.5999999e+00 0.0000000e+00 6.0000000e+00 
4.8000002e+00 0.0000000e+00 6.0000000e+00 
1.2000000e+00 0.0000000e+00 9.0000000e+00 
2.4000001e+00 0.0000000e+00 9.0000000e+00 
3.5999999e+00 0.0000000e+00 9.0000000e+00 
4.8000002e+00 0.0000000e+00 9.0000000e+00 
1.2000000e+00 0.0000000e+00 1.2000000e+01 
2.4000001e+00 0.0000000e+00 1.2000000e+01 
3.5999999e+00 0.0000000e+00 1.2000000e+01 
4.8000002e+00 0.0000000e+00 1.2000000e+01 
1.2000000e+00 0.0000000e+00 1.5000000e+01 
2.4000001e+00 0.0000000e+00 1.5000000e+01 
3.5999999e+00 0.0000000e+00 1.5000000e+01 
4.8000002e+00 0.0000000e+00 1.5000000e+01 
1.2000000e+00 0.0000000e+00 1.8000000e+01 
2.4000001e+00 0.0000000e+00 1.8000000e+01 
3.5999999e+00 0.0000000e+00 1.8000000e+01 
4.8000002e+00 0.0000000e+00 1.8000000e+01 

CELLS 90 270
2 0 1
2 1 2
2 2 3
2 3 4
2 4 5
2 5 6
2 6 7
2 7 8
2 8 9
2 9 10
2 10 11
2 11 12
2 12 13
2 13 14
2 14 15
2 15 16
2 16 17
2 17 18
2 18 19
2 19 20
2 20 21
2 21 22
2 22 23
2 23 24
2 24 25
2 25 26
2 26 27
2 27 28
2 28 29
2 29 30
2 31 32
2 32 33
2 33 34
2 34 35
2 35 36
2 36 37
2 37 38
2 38 39
2 39 40
2 40 41
2 41 42
2 42 43
2 43 44
2 44 45
2 45 46
2 46 47
2 47 48
2 48 49
2 49 50
2 50 51
2 51 52
2 52 53
2 53 54
2 54 55
2 55 56
2 56 57
2 57 58
2 58 59
2 59 60
2 60 61
2 5 62
2 62 63
2 63 64
2 64 65
2 65 36
2 10 66
2 66 67
2 67 68
2 68 69
2 69 41
2 15 70
2 70 71
2 71 72
2 72 73
2 73 46
2 20 74
2 74 75
2 75 76
2 76 77
2 77 51
2 25 78
2 78 79
2 79 80
2 80 81
2 81 56
2 30 82
2 82 83
2 83 84
2 84 85
2 85 61

CELL_TYPES 90
3
3
3
3
3
3
3
3
3
3
3
3
3
3
3
3
3
3
3
3
3
3
3
3
3
3
3
3
3
3
3
3
3
3
3
3
3
3
3
3
3
3
3
3
3
3
3
3
3
3
3
3
3
3
3
3
3
3
3
3
3
3
3
3
3
3
3
3
3
3
3
3
3
3
3
3
3
3
3
3
3
3
3
3
3
3
3
3
3
3
POINT_DATA 86
FIELD FieldData 3
ADJOINT_DISPLACEMENT 3 86  float
0.0000000e+00 0.0000000e+00 0.0000000e+00 
1.5094400e-04 0.0000000e+00 1.7127843e-16 
2.8687136e-04 0.0000000e+00 3.4255685e-16 
3.9276542e-04 0.0000000e+00 5.1383528e-16 
4.5360948e-04 0.0000000e+00 6.8511371e-16 
4.5438696e-04 0.0000000e+00 8.5639213e-16 
4.1236402e-04 0.0000000e+00 -3.0302192e-09 
4.1491774e-04 0.0000000e+00 -6.0604388e-09 
5.5219757e-04 0.0000000e+00 -9.0906589e-09 
9.1435306e-04 0.0000000e+00 -1.2120879e-08 
1.5915338e-03 0.0000000e+00 -1.5151098e-08 
2.7529064e-03 0.0000000e+00 -3.0302299e-08 
4.2469050e-03 0.0000000e+00 -4.5453501e-08 
5.6825788e-03 0.0000000e+00 -6.0604705e-08 
6.6689788e-03 0.0000000e+00 -7.5755906e-08 
6.8151550e-03 0.0000000e+00 -9.0907108e-08 
6.3787415e-03 0.0000000e+00 -1.6363340e-07 
6.9916053e-03 0.0000000e+00 -2.3635970e-07 
1.0324143e-02 0.0000000e+00 -3.0908598e-07 
1.8046752e-02 0.0000000e+00 -3.8181227e-07 
3.1829827e-02 0.0000000e+00 -4.5453857e-07 
5.5268783e-02 0.0000000e+00 -8.0302124e-07 
8.6092852e-02 0.0000000e+00 -1.1515040e-06 
1.1717317e-01 0.0000000e+00 -1.4999866e-06 
1.4138086e-01 0.0000000e+00 -1.8484693e-06 
1.5158707e-01 0.0000000e+00 -2.1969520e-06 
1.6093001e-01 0.0000000e+00 -1.8666507e-06 
1.8357512e-01 0.0000000e+00 -1.5363495e-06 
2.1393445e-01 0.0000000e+00 -1.2060482e-06 
2.4642003e-01 0.0000000e+00 -8.7574693e-07 
2.7544388e-01 0.0000000e+00 -5.4544569e-07 
0.0000000e+00 0.0000000e+00 0.0000000e+00 
3.0869203e-05 0.0000000e+00 -1.7138494e-16 
7.6755059e-05 0.0000000e+00 -3.4276988e-16 
1.5267423e-04 0.0000000e+00 -5.1415482e-16 
2.7364335e-04 0.0000000e+00 -6.8553976e-16 
4.5467907e-04 0.0000000e+00 -8.5692470e-16 
7.3305919e-04 0.0000000e+00 3.0302192e-09 
1.0759506e-03 0.0000000e+00 6.0604388e-09 
1.3932037e-03 0.0000000e+00 9.0906589e-09 
1.5946692e-03 0.0000000e+00 1.2120879e-08 
1.5901973e-03 0.0000000e+00 1.5151098e-08 
1.4287991e-03 0.0000000e+00 3.0302299e-08 
1.4802185e-03 0.0000000e+00 4.5453501e-08 
2.1354053e-03 0.0000000e+00 6.0604705e-08 
3.7853094e-03 0.0000000e+00 7.5755906e-08 
6.8208808e-03 0.0000000e+00 9.0907108e-08 
1.2020837e-02 0.0000000e+00 1.6363340e-07 
1.8789662e-02 0.0000000e+00 2.3635970e-07 
2.5456959e-02 0.0000000e+00 3.0908598e-07 
3.0352334e-02 0.0000000e+00 3.8181227e-07 
3.1805385e-02 0.0000000e+00 4.5453857e-07 
3.1184319e-02 0.0000000e+00 8.0302124e-07 
3.5723519e-02 0.0000000e+00 1.1515040e-06 
5.2551843e-02 0.0000000e+00 1.4999866e-06 
8.8798165e-02 0.0000000e+00 1.8484693e-06 
1.5159136e-01 0.0000000e+00 2.1969520e-06 
2.1557508e-01 0.0000000e+00 1.8666507e-06 
2.5436577e-01 0.0000000e+00 1.5363495e-06 
2.7355143e-01 0.0000000e+00 1.2060482e-06 
2.7871996e-01 0.0000000e+00 8.7574693e-07 
2.7545941e-01 0.0000000e+00 5.4544569e-07 
4.5444537e-04 0.0000000e+00 1.1299845e-04 
4.5450381e-04 0.0000000e+00 2.5676802e-04 
4.5456222e-04 0.0000000e+00 3.4403836e-04 
4.5462066e-04 0.0000000e+00 2.8753912e-04 
1.5912665e-03 0.0000000e+00 -1.1508801e-03 
1.5909992e-03 0.0000000e+00 -1.3772253e-03 
1.5907319e-03 0.0000000e+00 -1.0281350e-03 
1.5904646e-03 0.0000000e+00 -4.5269338e-04 
6.8163001e-03 0.0000000e+00 1.7521626e-03 
6.8174452e-03 0.0000000e+00 4.2864699e-03 
6.8185907e-03 0.0000000e+00 5.9446692e-03 
6.8197357e-03 0.0000000e+00 5.0685969e-03 
3.1824939e-02 0.0000000e+00 -2.2498069e-02 
3.1820051e-02 0.0000000e+00 -2.5805002e-02 
3.1815164e-02 0.0000000e+00 -1.7863037e-02 
3.1810272e-02 0.0000000e+00 -6.6139563e-03 
1.5158793e-01 0.0000000e+00 8.1638642e-02 
1.5158878e-01 0.0000000e+00 3.4291053e-01 
1.5158965e-01 0.0000000e+00 8.0336243e-01 
1.5159050e-01 0.0000000e+00 2.8254333e-01 
2.7544698e-01 0.0000000e+00 -3.4347240e-02 
2.7545008e-01 0.0000000e+00 -4.2007800e-02 
2.7545318e-01 0.0000000e+00 -3.2494906e-02 
2.7545631e-01 0.0000000e+00 -1.5321231e-02 
ADJOINT_ROTATION 3 86  float
0.0000000e+00 2.5574464e-04 0.0000000e+00 
0.0000000e+00 2.4323075e-04 0.0000000e+00 
0.0000000e+00 2.0568912e-04 0.0000000e+00 
0.0000000e+00 1.4311973e-04 0.0000000e+00 
0.0000000e+00 5.5522589e-05 0.0000000e+00 
0.0000000e+00 -5.7102316e-05 0.0000000e+00 
0.0000000e+00 -5.7932553e-05 0.0000000e+00 
0.0000000e+00 9.1486407e-05 0.0000000e+00 
0.0000000e+00 3.9115458e-04 0.0000000e+00 
0.0000000e+00 8.4107195e-04 0.0000000e+00 
0.0000000e+00 1.4412386e-03 0.0000000e+00 
0.0000000e+00 2.3214065e-03 0.0000000e+00 
0.0000000e+00 2.5499910e-03 0.0000000e+00 
0.0000000e+00 2.1269924e-03 0.0000000e+00 
0.0000000e+00 1.0524105e-03 0.0000000e+00 
0.0000000e+00 -6.7375466e-04 0.0000000e+00 
0.0000000e+00 -3.1695710e-04 0.0000000e+00 
0.0000000e+00 2.8238352e-03 0.0000000e+00 
0.0000000e+00 8.7486226e-03 0.0000000e+00 
0.0000000e+00 1.7457405e-02 0.0000000e+00 
0.0000000e+00 2.8950181e-02 0.0000000e+00 
0.0000000e+00 4.7199428e-02 0.0000000e+00 
0.0000000e+00 5.3567231e-02 0.0000000e+00 
0.0000000e+00 4.8053585e-02 0.0000000e+00 
0.0000000e+00 3.0658497e-02 0.0000000e+00 
0.0000000e+00 1.3819614e-03 0.0000000e+00 
0.0000000e+00 2.8208921e-02 0.0000000e+00 
0.0000000e+00 4.5722593e-02 0.0000000e+00 
0.0000000e+00 5.3922974e-02 0.0000000e+00 
0.0000000e+00 5.2810069e-02 0.0000000e+00 
0.0000000e+00 4.2383876e-02 0.0000000e+00 
0.0000000e+00 4.7277379e-05 0.0000000e+00 
0.0000000e+00 5.9791259e-05 0.0000000e+00 
0.0000000e+00 9.7332893e-05 0.0000000e+00 
0.0000000e+00 1.5990228e-04 0.0000000e+00 
0.0000000e+00 2.4749944e-04 0.0000000e+00 
0.0000000e+00 3.6012434e-04 0.0000000e+00 
0.0000000e+00 5.4276775e-04 0.0000000e+00 
0.0000000e+00 5.7516200e-04 0.0000000e+00 
0.0000000e+00 4.5730706e-04 0.0000000e+00 
0.0000000e+00 1.8920288e-04 0.0000000e+00 
0.0000000e+00 -2.2915049e-04 0.0000000e+00 
0.0000000e+00 -2.0024630e-04 0.0000000e+00 
0.0000000e+00 4.8024117e-04 0.0000000e+00 
0.0000000e+00 1.8123119e-03 0.0000000e+00 
0.0000000e+00 3.7959658e-03 0.0000000e+00 
0.0000000e+00 6.4312033e-03 0.0000000e+00 
0.0000000e+00 1.0437983e-02 0.0000000e+00 
0.0000000e+00 1.1660769e-02 0.0000000e+00 
0.0000000e+00 1.0099558e-02 0.0000000e+00 
0.0000000e+00 5.7543539e-03 0.0000000e+00 
0.0000000e+00 -1.3748455e-03 0.0000000e+00 
0.0000000e+00 1.2848693e-03 0.0000000e+00 
0.0000000e+00 1.5826030e-02 0.0000000e+00 
0.0000000e+00 4.2248633e-02 0.0000000e+00 
0.0000000e+00 8.0552682e-02 0.0000000e+00 
0.0000000e+00 1.3073818e-01 0.0000000e+00 
0.0000000e+00 8.4093146e-02 0.0000000e+00 
0.0000000e+00 4.6761397e-02 0.0000000e+00 
0.0000000e+00 1.8742939e-02 0.0000000e+00 
0.0000000e+00 3.7768757e-05 0.0000000e+00 
0.0000000e+00 -9.3541136e-03 0.0000000e+00 
0.0000000e+00 -1.1910755e-04 0.0000000e+00 
0.0000000e+00 -1.0838751e-04 0.0000000e+00 
0.0000000e+00 -2.4942179e-05 0.0000000e+00 
0.0000000e+00 1.3122843e-04 0.0000000e+00 
0.0000000e+00 5.2535359e-04 0.0000000e+00 
0.0000000e+00 -9.9627738e-05 0.0000000e+00 
0.0000000e+00 -4.3370554e-04 0.0000000e+00 
0.0000000e+00 -4.7687980e-04 0.0000000e+00 
0.0000000e+00 -2.0163674e-03 0.0000000e+00 
0.0000000e+00 -1.9771780e-03 0.0000000e+00 
0.0000000e+00 -5.5618654e-04 0.0000000e+00 
0.0000000e+00 2.2466073e-03 0.0000000e+00 
0.0000000e+00 9.6488697e-03 0.0000000e+00 
0.0000000e+00 -3.0342895e-03 0.0000000e+00 
0.0000000e+00 -9.0992944e-03 0.0000000e+00 
0.0000000e+00 -8.5461466e-03 0.0000000e+00 
0.0000000e+00 -1.4016517e-01 0.0000000e+00 
0.0000000e+00 -2.9800311e-01 0.0000000e+00 
0.0000000e+00 -4.7213188e-01 0.0000000e+00 
0.0000000e+00 3.3744857e-01 0.0000000e+00 
0.0000000e+00 1.6181817e-02 0.0000000e+00 
0.0000000e+00 -2.0930106e-03 0.0000000e+00 
0.0000000e+00 -1.2440609e-02 0.0000000e+00 
0.0000000e+00 -1.4860976e-02 0.0000000e+00 
SHAPE_SENSITIVITY 3 86  float
0.0000000e+00 0.0000000e+00 0.0000000e+00 
0.0000000e+00 0.0000000e+00 0.0000000e+00 
0.0000000e+00 0.0000000e+00 0.0000000e+00 
0.0000000e+00 0.0000000e+00 0.0000000e+00 
0.0000000e+00 0.0000000e+00 0.0000000e+00 
0.0000000e+00 0.0000000e+00 0.0000000e+00 
0.0000000e+00 0.0000000e+00 0.0000000e+00 
0.0000000e+00 0.0000000e+00 0.0000000e+00 
0.0000000e+00 0.0000000e+00 0.0000000e+00 
0.0000000e+00 0.0000000e+00 0.0000000e+00 
0.0000000e+00 0.0000000e+00 0.0000000e+00 
0.0000000e+00 0.0000000e+00 0.0000000e+00 
0.0000000e+00 0.0000000e+00 0.0000000e+00 
0.0000000e+00 0.0000000e+00 0.0000000e+00 
0.0000000e+00 0.0000000e+00 0.0000000e+00 
0.0000000e+00 0.0000000e+00 0.0000000e+00 
0.0000000e+00 0.0000000e+00 0.0000000e+00 
0.0000000e+00 0.0000000e+00 0.0000000e+00 
0.0000000e+00 0.0000000e+00 0.0000000e+00 
0.0000000e+00 0.0000000e+00 0.0000000e+00 
0.0000000e+00 0.0000000e+00 0.0000000e+00 
0.0000000e+00 0.0000000e+00 0.0000000e+00 
0.0000000e+00 0.0000000e+00 0.0000000e+00 
0.0000000e+00 0.0000000e+00 0.0000000e+00 
0.0000000e+00 0.0000000e+00 0.0000000e+00 
0.0000000e+00 0.0000000e+00 0.0000000e+00 
0.0000000e+00 0.0000000e+00 0.0000000e+00 
0.0000000e+00 0.0000000e+00 0.0000000e+00 
0.0000000e+00 0.0000000e+00 0.0000000e+00 
0.0000000e+00 0.0000000e+00 0.0000000e+00 
0.0000000e+00 0.0000000e+00 0.0000000e+00 
0.0000000e+00 0.0000000e+00 0.0000000e+00 
0.0000000e+00 0.0000000e+00 0.0000000e+00 
0.0000000e+00 0.0000000e+00 0.0000000e+00 
0.0000000e+00 0.0000000e+00 0.0000000e+00 
0.0000000e+00 0.0000000e+00 0.0000000e+00 
0.0000000e+00 0.0000000e+00 0.0000000e+00 
0.0000000e+00 0.0000000e+00 0.0000000e+00 
0.0000000e+00 0.0000000e+00 0.0000000e+00 
0.0000000e+00 0.0000000e+00 0.0000000e+00 
0.0000000e+00 0.0000000e+00 0.0000000e+00 
0.0000000e+00 0.0000000e+00 0.0000000e+00 
0.0000000e+00 0.0000000e+00 0.0000000e+00 
0.0000000e+00 0.0000000e+00 0.0000000e+00 
0.0000000e+00 0.0000000e+00 0.0000000e+00 
0.0000000e+00 0.0000000e+00 0.0000000e+00 
0.0000000e+00 0.0000000e+00 0.0000000e+00 
0.0000000e+00 0.0000000e+00 0.0000000e+00 
0.0000000e+00 0.0000000e+00 0.0000000e+00 
0.0000000e+00 0.0000000e+00 0.0000000e+00 
0.0000000e+00 0.0000000e+00 0.0000000e+00 
0.0000000e+00 0.0000000e+00 0.0000000e+00 
0.0000000e+00 0.0000000e+00 0.0000000e+00 
0.0000000e+00 0.0000000e+00 0.0000000e+00 
0.0000000e+00 0.0000000e+00 0.0000000e+00 
0.0000000e+00 0.0000000e+00 0.0000000e+00 
0.0000000e+00 0.0000000e+00 0.0000000e+00 
0.0000000e+00 0.0000000e+00 0.0000000e+00 
0.0000000e+00 0.0000000e+00 0.0000000e+00 
0.0000000e+00 0.0000000e+00 0.0000000e+00 
0.0000000e+00 0.0000000e+00 0.0000000e+00 
0.0000000e+00 0.0000000e+00 0.0000000e+00 
0.0000000e+00 0.0000000e+00 0.0000000e+00 
0.0000000e+00 0.0000000e+00 0.0000000e+00 
0.0000000e+00 0.0000000e+00 0.0000000e+00 
0.0000000e+00 0.0000000e+00 0.0000000e+00 
0.0000000e+00 0.0000000e+00 0.0000000e+00 
0.0000000e+00 0.0000000e+00 0.0000000e+00 
0.0000000e+00 0.0000000e+00 0.0000000e+00 
0.0000000e+00 0.0000000e+00 0.0000000e+00 
0.0000000e+00 0.0000000e+00 0.0000000e+00 
0.0000000e+00 0.0000000e+00 0.0000000e+00 
0.0000000e+00 0.0000000e+00 0.0000000e+00 
0.0000000e+00 0.0000000e+00 0.0000000e+00 
0.0000000e+00 0.0000000e+00 0.0000000e+00 
0.0000000e+00 0.0000000e+00 0.0000000e+00 
0.0000000e+00 0.0000000e+00 0.0000000e+00 
0.0000000e+00 0.0000000e+00 0.0000000e+00 
0.0000000e+00 0.0000000e+00 0.0000000e+00 
0.0000000e+00 0.0000000e+00 0.0000000e+00 
0.0000000e+00 0.0000000e+00 0.0000000e+00 
0.0000000e+00 0.0000000e+00 0.0000000e+00 
0.0000000e+00 0.0000000e+00 0.0000000e+00 
0.0000000e+00 0.0000000e+00 0.0000000e+00 
0.0000000e+00 0.0000000e+00 0.0000000e+00 
0.0000000e+00 0.0000000e+00 0.0000000e+00 
CELL_DATA 90
FIELD FieldData 1
I22_SENSITIVITY 1 90  float
5.5663567e+01
3.8964505e+02
1.0576085e+03
2.0595532e+03
3.3954797e+03
-2.3038115e+01
-4.8044281e+02
-1.5134642e+03
-3.1221028e+03
-5.3063623e+03
1.4601771e+04
2.1644517e+03
9.8677759e+02
1.1068745e+04
3.2410361e+04
2.1026272e+03
1.3256452e+04
2.4305806e+03
-3.0374900e+04
-8.5160266e+04
1.7744716e+05
3.9063219e+04
-4.4288267e+03
4.6971125e+04
1.9326214e+05
1.9872052e+05
2.3586490e+04
-3.6893074e+04
1.7282863e+04
1.8611372e+05
-6.4502579e+01
-4.5151797e+02
-1.2255490e+03
-2.3865952e+03
-3.9346567e+03
7.0138647e+02
5.8514496e+01
3.1175461e+02
1.4611099e+03
3.5065806e+03
1.4325259e+00
3.2217886e+03
-1.2011488e+03
-1.3267391e+04
-3.2976906e+04
1.4494206e+04
2.1374739e+03
1.7700356e+03
1.3391964e+04
3.7003129e+04
2.7608256e+04
7.8963328e+04
-3.8721555e+04
-3.2544584e+05
-7.8121138e+05
-5.5045619e+05
-2.3847672e+05
-2.7741490e+04
8.1749234e+04
8.9995430e+04
1.8167612e+03
-9.7262001e+01
-1.8242400e+02
1.9569967e+03
7.4618618e+03
2.1319281e+04
5.7380044e+03
-6.3038007e+02
-2.5928128e+02
5.1218066e+03
3.2435188e+04
1.2530353e+03
5.7325938e+03
2.9360402e+04
7.2114523e+04
3.7164597e+05
1.3882128e+05
-8.7740947e+03
7.5148184e+03
1.2989787e+05
2.2638512e+06
1.9107636e+06
1.0522705e+06
-9.9635256e+05
-4.6803360e+06
3.8252231e+05
9.8690016e+04
-3.4917121e+04
-2.6413035e+04
6.8040211e+04
