# vtk DataFile Version 4.0
vtk output
ASCII
DATASET UNSTRUCTURED_GRID
POINTS 30 float
0.0000000e+00 0.0000000e+00 0.0000000e+00 
0.0000000e+00 0.0000000e+00 8.0000001e-01 
0.0000000e+00 0.0000000e+00 1.6000000e+00 
0.0000000e+00 0.0000000e+00 2.4000001e+00 
0.0000000e+00 0.0000000e+00 3.2000000e+00 
0.0000000e+00 0.0000000e+00 4.0000000e+00 
0.0000000e+00 0.0000000e+00 4.8000002e+00 
0.0000000e+00 0.0000000e+00 5.5999999e+00 
0.0000000e+00 0.0000000e+00 6.4000001e+00 
0.0000000e+00 0.0000000e+00 7.1999998e+00 
0.0000000e+00 0.0000000e+00 8.0000000e+00 
1.0000000e+01 0.0000000e+00 0.0000000e+00 
1.0000000e+01 0.0000000e+00 8.0000001e-01 
1.0000000e+01 0.0000000e+00 1.6000000e+00 
1.0000000e+01 0.0000000e+00 2.4000001e+00 
1.0000000e+01 0.0000000e+00 3.2000000e+00 
1.0000000e+01 0.0000000e+00 4.0000000e+00 
1.0000000e+01 0.0000000e+00 4.8000002e+00 
1.0000000e+01 0.0000000e+00 5.5999999e+00 
1.0000000e+01 0.0000000e+00 6.4000001e+00 
1.0000000e+01 0.0000000e+00 7.1999998e+00 
1.0000000e+01 0.0000000e+00 8.0000000e+00 
2.0000000e+00 0.0000000e+00 4.0000000e+00 
4.0000000e+00 0.0000000e+00 4.0000000e+00 
6.0000000e+00 0.0000000e+00 4.0000000e+00 
8.0000000e+00 0.0000000e+00 4.0000000e+00 
2.0000000e+00 0.0000000e+00 8.0000000e+00 
4.0000000e+00 0.0000000e+00 8.0000000e+00 
6.0000000e+00 0.0000000e+00 8.0000000e+00 
8.0000000e+00 0.0000000e+00 8.0000000e+00 

CELLS 30 90
2 0 1
2 1 2
2 2 3
2 3 4
2 4 5
2 5 6
2 6 7
2 7 8
2 8 9
2 9 10
2 11 12
2 12 13
2 13 14
2 14 15
2 15 16
2 16 17
2 17 18
2 18 19
2 19 20
2 20 21
2 5 22
2 22 23
2 23 24
2 24 25
2 25 16
2 10 26
2 26 27
2 27 28
2 28 29
2 29 21

CELL_TYPES 30
3
3
3
3
3
3
3
3
3
3
3
3
3
3
3
3
3
3
3
3
3
3
3
3
3
3
3
3
3
3
POINT_DATA 30
FIELD FieldData 7
DISPLACEMENT 3 30  float
0.0000000e+00 0.0000000e+00 0.0000000e+00 
1.4733166e-03 0.0000000e+00 -7.9338434e-07 
2.9850758e-03 0.0000000e+00 -1.5867687e-06 
4.5526023e-03 0.0000000e+00 -3.2312373e-06 
6.0977866e-03 0.0000000e+00 -4.7021740e-06 
7.4792742e-03 0.0000000e+00 -6.9404341e-06 
8.7173805e-03 0.0000000e+00 -8.1370799e-06 
9.8750405e-03 0.0000000e+00 -7.2172875e-06 
1.0877492e-02 0.0000000e+00 -5.8268620e-06 
1.1667720e-02 0.0000000e+00 -4.4364369e-06 
1.2192898e-02 0.0000000e+00 -3.0460117e-06 
0.0000000e+00 0.0000000e+00 0.0000000e+00 
1.9884792e-03 0.0000000e+00 -1.5358675e-05 
3.8781017e-03 0.0000000e+00 -2.7751974e-05 
5.4843975e-03 0.0000000e+00 -3.7235361e-05 
6.6969236e-03 0.0000000e+00 -4.4217144e-05 
7.4619045e-03 0.0000000e+00 -4.8118683e-05 
8.0969911e-03 0.0000000e+00 -4.6268753e-05 
8.9805210e-03 0.0000000e+00 -4.2842828e-05 
1.0025968e-02 0.0000000e+00 -3.9416904e-05 
1.1125312e-02 0.0000000e+00 -3.5990975e-05 
1.2170535e-02 0.0000000e+00 -3.2565051e-05 
7.4762860e-03 0.0000000e+00 -2.3391801e-03 
7.4788970e-03 0.0000000e+00 -3.4119207e-03 
7.4721593e-03 0.0000000e+00 -2.6597916e-03 
7.4706753e-03 0.0000000e+00 -6.6535128e-04 
1.2195993e-02 0.0000000e+00 -1.0179680e-04 
1.2190212e-02 0.0000000e+00 8.4027369e-04 
1.2184432e-02 0.0000000e+00 1.8015231e-03 
1.2178652e-02 0.0000000e+00 1.7413710e-03 
ROTATION 3 30  float
0.0000000e+00 1.8336369e-03 0.0000000e+00 
0.0000000e+00 1.8576635e-03 0.0000000e+00 
0.0000000e+00 1.9297432e-03 0.0000000e+00 
0.0000000e+00 1.9706842e-03 0.0000000e+00 
0.0000000e+00 1.8601865e-03 0.0000000e+00 
0.0000000e+00 1.5635908e-03 0.0000000e+00 
0.0000000e+00 1.5142089e-03 0.0000000e+00 
0.0000000e+00 1.3636955e-03 0.0000000e+00 
0.0000000e+00 1.1314298e-03 0.0000000e+00 
0.0000000e+00 8.3313370e-04 0.0000000e+00 
0.0000000e+00 4.6880700e-04 0.0000000e+00 
0.0000000e+00 2.5005911e-03 0.0000000e+00 
0.0000000e+00 2.4556143e-03 0.0000000e+00 
0.0000000e+00 2.2198330e-03 0.0000000e+00 
0.0000000e+00 1.7747477e-03 0.0000000e+00 
0.0000000e+00 1.2517583e-03 0.0000000e+00 
0.0000000e+00 6.3387095e-04 0.0000000e+00 
0.0000000e+00 9.5820701e-04 0.0000000e+00 
0.0000000e+00 1.2281141e-03 0.0000000e+00 
0.0000000e+00 1.3629979e-03 0.0000000e+00 
0.0000000e+00 1.3628583e-03 0.0000000e+00 
0.0000000e+00 1.2276954e-03 0.0000000e+00 
0.0000000e+00 8.5796876e-04 0.0000000e+00 
0.0000000e+00 1.1200473e-04 0.0000000e+00 
0.0000000e+00 -8.2507037e-04 0.0000000e+00 
0.0000000e+00 -9.3157752e-04 0.0000000e+00 
0.0000000e+00 -2.9281038e-04 0.0000000e+00 
0.0000000e+00 -5.6254503e-04 0.0000000e+00 
0.0000000e+00 -3.1198940e-04 0.0000000e+00 
0.0000000e+00 4.5885658e-04 0.0000000e+00 
REACTION 3 30  float
2.3651160e+03 -0.0000000e+00 2.0826340e+03 
-0.0000000e+00 -0.0000000e+00 -0.0000000e+00 
5.8571459e-10 -0.0000000e+00 -0.0000000e+00 
7.4578566e-11 -0.0000000e+00 9.0949470e-13 
-5.2750693e-11 -0.0000000e+00 1.8189894e-12 
-1.8117134e-09 -0.0000000e+00 -7.8216544e-11 
-1.2751116e-09 -0.0000000e+00 -2.7284841e-10 
-1.7826096e-10 -0.0000000e+00 8.5492502e-11 
6.7229848e-09 -0.0000000e+00 -5.4569682e-12 
-9.0221874e-10 -0.0000000e+00 7.2759576e-12 
-1.3387762e-09 -0.0000000e+00 -1.8189894e-12 
-4.4274092e+03 -0.0000000e+00 4.0316520e+04 
1.0131771e-09 -0.0000000e+00 3.6379788e-12 
7.6306605e-10 -0.0000000e+00 4.7293724e-11 
-6.5483619e-10 -0.0000000e+00 2.9103830e-11 
-2.9094736e-09 -0.0000000e+00 3.8198777e-11 
1.4551915e-10 -0.0000000e+00 -1.1514203e-09 
-5.7752914e-10 -0.0000000e+00 1.8189894e-11 
1.9208528e-09 -0.0000000e+00 1.4551915e-11 
-1.1059456e-09 -0.0000000e+00 -1.4842954e-09 
-8.7311491e-10 -0.0000000e+00 -0.0000000e+00 
2.9758667e-09 -0.0000000e+00 6.4210326e-10 
1.9372237e-10 -0.0000000e+00 5.6115823e-10 
-2.0918378e-09 -0.0000000e+00 1.7280399e-11 
1.4642865e-10 -0.0000000e+00 5.9117156e-10 
2.3574103e-09 -0.0000000e+00 7.4578566e-11 
-1.2187229e-09 -0.0000000e+00 1.8189894e-12 
1.8626451e-09 -0.0000000e+00 -1.4551915e-11 
-1.8626451e-09 -0.0000000e+00 -2.7648639e-10 
-1.2314558e-09 -0.0000000e+00 -0.0000000e+00 
REACTION_MOMENT 3 30  float
-0.0000000e+00 5.8207661e-11 -0.0000000e+00 
-0.0000000e+00 2.6193447e-10 -0.0000000e+00 
-0.0000000e+00 -2.3283064e-10 -0.0000000e+00 
-0.0000000e+00 -2.0372681e-10 -0.0000000e+00 
-0.0000000e+00 2.0518200e-09 -0.0000000e+00 
-0.0000000e+00 1.0040822e-09 -0.0000000e+00 
-0.0000000e+00 -1.8626451e-09 -0.0000000e+00 
-0.0000000e+00 -1.7462298e-10 -0.0000000e+00 
-0.0000000e+00 -1.0040822e-09 -0.0000000e+00 
-0.0000000e+00 1.2878445e-09 -0.0000000e+00 
-0.0000000e+00 4.7293724e-11 -0.0000000e+00 
-0.0000000e+00 -5.8207661e-11 -0.0000000e+00 
-0.0000000e+00 5.8207661e-11 -0.0000000e+00 
-0.0000000e+00 1.1641532e-10 -0.0000000e+00 
-0.0000000e+00 2.0372681e-10 -0.0000000e+00 
-0.0000000e+00 3.7107384e-10 -0.0000000e+00 
-0.0000000e+00 5.8935257e-10 -0.0000000e+00 
-0.0000000e+00 7.2759576e-11 -0.0000000e+00 
-0.0000000e+00 1.0913936e-09 -0.0000000e+00 
-0.0000000e+00 3.2014214e-10 -0.0000000e+00 
-0.0000000e+00 1.1641532e-10 -0.0000000e+00 
-0.0000000e+00 -5.8207661e-11 -0.0000000e+00 
-0.0000000e+00 -1.8189894e-10 -0.0000000e+00 
-0.0000000e+00 -7.6397555e-11 -0.0000000e+00 
-0.0000000e+00 -1.2005330e-10 -0.0000000e+00 
-0.0000000e+00 2.5465852e-11 -0.0000000e+00 
-0.0000000e+00 -0.0000000e+00 -0.0000000e+00 
-0.0000000e+00 -1.4551915e-11 -0.0000000e+00 
-0.0000000e+00 1.0913936e-11 -0.0000000e+00 
-0.0000000e+00 -1.4551915e-11 -0.0000000e+00 
VOLUME_ACCELERATION 3 30  float
0.0000000e+00 0.0000000e+00 0.0000000e+00 
0.0000000e+00 0.0000000e+00 0.0000000e+00 
0.0000000e+00 0.0000000e+00 0.0000000e+00 
0.0000000e+00 0.0000000e+00 0.0000000e+00 
0.0000000e+00 0.0000000e+00 0.0000000e+00 
0.0000000e+00 0.0000000e+00 0.0000000e+00 
0.0000000e+00 0.0000000e+00 0.0000000e+00 
0.0000000e+00 0.0000000e+00 0.0000000e+00 
0.0000000e+00 0.0000000e+00 0.0000000e+00 
0.0000000e+00 0.0000000e+00 0.0000000e+00 
0.0000000e+00 0.0000000e+00 0.0000000e+00 
0.0000000e+00 0.0000000e+00 0.0000000e+00 
0.0000000e+00 0.0000000e+00 0.0000000e+00 
0.0000000e+00 0.0000000e+00 0.0000000e+00 
0.0000000e+00 0.0000000e+00 0.0000000e+00 
0.0000000e+00 0.0000000e+00 0.0000000e+00 
0.0000000e+00 0.0000000e+00 0.0000000e+00 
0.0000000e+00 0.0000000e+00 0.0000000e+00 
0.0000000e+00 0.0000000e+00 0.0000000e+00 
0.0000000e+00 0.0000000e+00 0.0000000e+00 
0.0000000e+00 0.0000000e+00 0.0000000e+00 
0.0000000e+00 0.0000000e+00 0.0000000e+00 
0.0000000e+00 0.0000000e+00 0.0000000e+00 
0.0000000e+00 0.0000000e+00 0.0000000e+00 
0.0000000e+00 0.0000000e+00 0.0000000e+00 
0.0000000e+00 0.0000000e+00 0.0000000e+00 
0.0000000e+00 0.0000000e+00 0.0000000e+00 
0.0000000e+00 0.0000000e+00 0.0000000e+00 
0.0000000e+00 0.0000000e+00 0.0000000e+00 
0.0000000e+00 0.0000000e+00 0.0000000e+00 
POINT_LOAD 3 30  float
0.0000000e+00 0.0000000e+00 0.0000000e+00 
0.0000000e+00 0.0000000e+00 0.0000000e+00 
-7.7954487e+03 0.0000000e+00 2.2340959e+03 
-4.0465894e+03 0.0000000e+00 -4.5552060e+02 
6.3483356e+02 0.0000000e+00 2.0142228e+03 
6.8224097e+03 0.0000000e+00 -6.9546001e+03 
3.6004669e+02 0.0000000e+00 -5.5556509e+03 
1.5476005e+03 0.0000000e+00 -1.2354111e+03 
0.0000000e+00 0.0000000e+00 0.0000000e+00 
0.0000000e+00 0.0000000e+00 0.0000000e+00 
0.0000000e+00 0.0000000e+00 0.0000000e+00 
0.0000000e+00 0.0000000e+00 0.0000000e+00 
-9.9274951e+03 0.0000000e+00 -7.7841128e+03 
8.1064551e+03 0.0000000e+00 -7.6385156e+03 
4.8282007e+03 0.0000000e+00 -6.5667100e+03 
-6.5010112e+03 0.0000000e+00 -8.0856470e+03 
0.0000000e+00 0.0000000e+00 0.0000000e+00 
-7.9335146e+03 0.0000000e+00 -4.1369849e+03 
0.0000000e+00 0.0000000e+00 0.0000000e+00 
0.0000000e+00 0.0000000e+00 0.0000000e+00 
0.0000000e+00 0.0000000e+00 0.0000000e+00 
-1.8768058e+03 0.0000000e+00 4.8641548e+03 
-5.8797100e+03 0.0000000e+00 9.0761123e+03 
9.8164746e+03 0.0000000e+00 -6.7014980e+03 
-5.5162656e+03 0.0000000e+00 -9.3899473e+03 
7.6506855e+03 0.0000000e+00 -3.8619075e+03 
9.3195215e+03 0.0000000e+00 -4.4741989e+02 
0.0000000e+00 0.0000000e+00 0.0000000e+00 
0.0000000e+00 0.0000000e+00 0.0000000e+00 
2.4529067e+03 0.0000000e+00 8.2261846e+03 
POINT_MOMENT 3 30  float
0.0000000e+00 0.0000000e+00 0.0000000e+00 
0.0000000e+00 0.0000000e+00 0.0000000e+00 
0.0000000e+00 0.0000000e+00 0.0000000e+00 
0.0000000e+00 0.0000000e+00 0.0000000e+00 
0.0000000e+00 0.0000000e+00 0.0000000e+00 
0.0000000e+00 0.0000000e+00 0.0000000e+00 
0.0000000e+00 0.0000000e+00 0.0000000e+00 
0.0000000e+00 0.0000000e+00 0.0000000e+00 
0.0000000e+00 0.0000000e+00 0.0000000e+00 
0.0000000e+00 0.0000000e+00 0.0000000e+00 
0.0000000e+00 0.0000000e+00 0.0000000e+00 
0.0000000e+00 0.0000000e+00 0.0000000e+00 
0.0000000e+00 0.0000000e+00 0.0000000e+00 
0.0000000e+00 0.0000000e+00 0.0000000e+00 
0.0000000e+00 0.0000000e+00 0.0000000e+00 
0.0000000e+00 0.0000000e+00 0.0000000e+00 
0.0000000e+00 0.0000000e+00 0.0000000e+00 
0.0000000e+00 0.0000000e+00 0.0000000e+00 
0.0000000e+00 0.0000000e+00 0.0000000e+00 
0.0000000e+00 0.0000000e+00 0.0000000e+00 
0.0000000e+00 0.0000000e+00 0.0000000e+00 
0.0000000e+00 0.0000000e+00 0.0000000e+00 
0.0000000e+00 0.0000000e+00 0.0000000e+00 
0.0000000e+00 0.0000000e+00 0.0000000e+00 
0.0000000e+00 0.0000000e+00 0.0000000e+00 
0.0000000e+00 0.0000000e+00 0.0000000e+00 
0.0000000e+00 0.0000000e+00 0.0000000e+00 
0.0000000e+00 0.0000000e+00 0.0000000e+00 
0.0000000e+00 0.0000000e+00 0.0000000e+00 
0.0000000e+00 0.0000000e+00 0.0000000e+00 
CELL_DATA 30
FIELD FieldData 9
YOUNG_MODULUS 1 30  float
2.1000000e+11
2.1000000e+11
2.1000000e+11
2.1000000e+11
2.1000000e+11
2.1000000e+11
2.1000000e+11
2.1000000e+11
2.1000000e+11
2.1000000e+11
2.1000000e+11
2.1000000e+11
2.1000000e+11
2.1000000e+11
2.1000000e+11
2.1000000e+11
2.1000000e+11
2.1000000e+11
2.1000000e+11
2.1000000e+11
2.1000000e+11
2.1000000e+11
2.1000000e+11
2.1000000e+11
2.1000000e+11
2.1000000e+11
2.1000000e+11
2.1000000e+11
2.1000000e+11
2.1000000e+11
DENSITY 1 30  float
7.8500000e+03
7.8500000e+03
7.8500000e+03
7.8500000e+03
7.8500000e+03
7.8500000e+03
7.8500000e+03
7.8500000e+03
7.8500000e+03
7.8500000e+03
7.8500000e+03
7.8500000e+03
7.8500000e+03
7.8500000e+03
7.8500000e+03
7.8500000e+03
7.8500000e+03
7.8500000e+03
7.8500000e+03
7.8500000e+03
7.8500000e+03
7.8500000e+03
7.8500000e+03
7.8500000e+03
7.8500000e+03
7.8500000e+03
7.8500000e+03
7.8500000e+03
7.8500000e+03
7.8500000e+03
CROSS_AREA 1 30  float
9.9999998e-03
9.9999998e-03
9.9999998e-03
9.9999998e-03
9.9999998e-03
9.9999998e-03
9.9999998e-03
9.9999998e-03
9.9999998e-03
9.9999998e-03
9.9999998e-03
9.9999998e-03
9.9999998e-03
9.9999998e-03
9.9999998e-03
9.9999998e-03
9.9999998e-03
9.9999998e-03
9.9999998e-03
9.9999998e-03
9.9999998e-03
9.9999998e-03
9.9999998e-03
9.9999998e-03
9.9999998e-03
9.9999998e-03
9.9999998e-03
9.9999998e-03
9.9999998e-03
9.9999998e-03
I22 1 30  float
1.5000001e-04
1.5000001e-04
1.5000001e-04
1.5000001e-04
1.5000001e-04
1.5000001e-04
1.5000001e-04
1.5000001e-04
1.5000001e-04
1.5000001e-04
1.5000001e-04
1.5000001e-04
1.5000001e-04
1.5000001e-04
1.5000001e-04
1.5000001e-04
1.5000001e-04
1.5000001e-04
1.5000001e-04
1.5000001e-04
1.5000001e-04
1.5000001e-04
1.5000001e-04
1.5000001e-04
1.5000001e-04
1.5000001e-04
1.5000001e-04
1.5000001e-04
1.5000001e-04
1.5000001e-04
I33 1 30  float
1.5000001e-04
1.5000001e-04
1.5000001e-04
1.5000001e-04
1.5000001e-04
1.5000001e-04
1.5000001e-04
1.5000001e-04
1.5000001e-04
1.5000001e-04
1.5000001e-04
1.5000001e-04
1.5000001e-04
1.5000001e-04
1.5000001e-04
1.5000001e-04
1.5000001e-04
1.5000001e-04
1.5000001e-04
1.5000001e-04
1.5000001e-04
1.5000001e-04
1.5000001e-04
1.5000001e-04
1.5000001e-04
1.5000001e-04
1.5000001e-04
1.5000001e-04
1.5000001e-04
1.5000001e-04
TORSIONAL_INERTIA 1 30  float
3.0000001e-04
3.0000001e-04
3.0000001e-04
3.0000001e-04
3.0000001e-04
3.0000001e-04
3.0000001e-04
3.0000001e-04
3.0000001e-04
3.0000001e-04
3.0000001e-04
3.0000001e-04
3.0000001e-04
3.0000001e-04
3.0000001e-04
3.0000001e-04
3.0000001e-04
3.0000001e-04
3.0000001e-04
3.0000001e-04
3.0000001e-04
3.0000001e-04
3.0000001e-04
3.0000001e-04
3.0000001e-04
3.0000001e-04
3.0000001e-04
3.0000001e-04
3.0000001e-04
3.0000001e-04
POISSON_RATIO 1 30  float
3.0000001e-01
3.0000001e-01
3.0000001e-01
3.0000001e-01
3.0000001e-01
3.0000001e-01
3.0000001e-01
3.0000001e-01
3.0000001e-01
3.0000001e-01
3.0000001e-01
3.0000001e-01
3.0000001e-01
3.0000001e-01
3.0000001e-01
3.0000001e-01
3.0000001e-01
3.0000001e-01
3.0000001e-01
3.0000001e-01
3.0000001e-01
3.0000001e-01
3.0000001e-01
3.0000001e-01
3.0000001e-01
3.0000001e-01
3.0000001e-01
3.0000001e-01
3.0000001e-01
3.0000001e-01
MOMENT 3 30  float
0.0000000e+00 9.4604645e+02 0.0000000e+00 
0.0000000e+00 2.8381394e+03 0.0000000e+00 
0.0000000e+00 1.6120526e+03 0.0000000e+00 
0.0000000e+00 -4.3508496e+03 0.0000000e+00 
0.0000000e+00 -1.1678454e+04 0.0000000e+00 
0.0000000e+00 -1.9444137e+03 0.0000000e+00 
0.0000000e+00 -5.9264653e+03 0.0000000e+00 
0.0000000e+00 -9.1454580e+03 0.0000000e+00 
0.0000000e+00 -1.1745411e+04 0.0000000e+00 
0.0000000e+00 -1.4345363e+04 0.0000000e+00 
0.0000000e+00 -1.7709637e+03 0.0000000e+00 
0.0000000e+00 -9.2838896e+03 0.0000000e+00 
0.0000000e+00 -1.7525230e+04 0.0000000e+00 
0.0000000e+00 -2.0592709e+04 0.0000000e+00 
0.0000000e+00 -2.4329312e+04 0.0000000e+00 
0.0000000e+00 1.2770733e+04 0.0000000e+00 
0.0000000e+00 1.0627594e+04 0.0000000e+00 
0.0000000e+00 5.3110488e+03 0.0000000e+00 
0.0000000e+00 -5.4960232e+00 0.0000000e+00 
0.0000000e+00 -5.3220410e+03 0.0000000e+00 
0.0000000e+00 -1.1113548e+04 0.0000000e+00 
0.0000000e+00 -1.1748934e+04 0.0000000e+00 
0.0000000e+00 -1.4758933e+04 0.0000000e+00 
0.0000000e+00 -1.6774873e+03 0.0000000e+00 
0.0000000e+00 2.4655812e+04 0.0000000e+00 
0.0000000e+00 -1.1995474e+04 0.0000000e+00 
0.0000000e+00 -4.2483213e+03 0.0000000e+00 
0.0000000e+00 3.9462515e+03 0.0000000e+00 
0.0000000e+00 1.2140824e+04 0.0000000e+00 
0.0000000e+00 1.2109212e+04 0.0000000e+00 
FORCE 3 30  float
-2.0826340e+03 0.0000000e+00 2.3651160e+03 
-2.0826340e+03 0.0000000e+00 2.3651160e+03 
-4.3167300e+03 0.0000000e+00 -5.4303330e+03 
-3.8612095e+03 0.0000000e+00 -9.4769219e+03 
-5.8754321e+03 0.0000000e+00 -8.8420889e+03 
-3.1411953e+03 0.0000000e+00 -5.1575879e+03 
2.4144553e+03 0.0000000e+00 -4.7975415e+03 
3.6498665e+03 0.0000000e+00 -3.2499409e+03 
3.6498665e+03 0.0000000e+00 -3.2499409e+03 
3.6498665e+03 0.0000000e+00 -3.2499409e+03 
-4.0316520e+04 0.0000000e+00 -4.4274092e+03 
-3.2532408e+04 0.0000000e+00 -1.4354904e+04 
-2.4893893e+04 0.0000000e+00 -6.2484492e+03 
-1.8327184e+04 0.0000000e+00 -1.4202485e+03 
-1.0241536e+04 0.0000000e+00 -7.9212598e+03 
4.8560679e+03 0.0000000e+00 1.2878335e+03 
8.9930527e+03 0.0000000e+00 -6.6456812e+03 
8.9930527e+03 0.0000000e+00 -6.6456812e+03 
8.9930527e+03 0.0000000e+00 -6.6456812e+03 
8.9930527e+03 0.0000000e+00 -6.6456812e+03 
-3.1379092e+03 0.0000000e+00 4.2203633e+03 
2.7418010e+03 0.0000000e+00 -4.8557490e+03 
-7.0746733e+03 0.0000000e+00 1.8457491e+03 
-1.5584078e+03 0.0000000e+00 1.1235696e+04 
-9.2090928e+03 0.0000000e+00 1.5097604e+04 
3.2499409e+03 0.0000000e+00 3.6498665e+03 
-6.0695801e+03 0.0000000e+00 4.0972861e+03 
-6.0695801e+03 0.0000000e+00 4.0972861e+03 
-6.0695801e+03 0.0000000e+00 4.0972861e+03 
-8.5224873e+03 0.0000000e+00 -4.1288984e+03 
