# vtk DataFile Version 4.0
vtk output
ASCII
DATASET UNSTRUCTURED_GRID
POINTS 30 float
0.0000000e+00 0.0000000e+00 0.0000000e+00 
0.0000000e+00 0.0000000e+00 8.0000001e-01 
0.0000000e+00 0.0000000e+00 1.6000000e+00 
0.0000000e+00 0.0000000e+00 2.4000001e+00 
0.0000000e+00 0.0000000e+00 3.2000000e+00 
0.0000000e+00 0.0000000e+00 4.0000000e+00 
0.0000000e+00 0.0000000e+00 4.8000002e+00 
0.0000000e+00 0.0000000e+00 5.5999999e+00 
0.0000000e+00 0.0000000e+00 6.4000001e+00 
0.0000000e+00 0.0000000e+00 7.1999998e+00 
0.0000000e+00 0.0000000e+00 8.0000000e+00 
1.0000000e+01 0.0000000e+00 0.0000000e+00 
1.0000000e+01 0.0000000e+00 8.0000001e-01 
1.0000000e+01 0.0000000e+00 1.6000000e+00 
1.0000000e+01 0.0000000e+00 2.4000001e+00 
1.0000000e+01 0.0000000e+00 3.2000000e+00 
1.0000000e+01 0.0000000e+00 4.0000000e+00 
1.0000000e+01 0.0000000e+00 4.8000002e+00 
1.0000000e+01 0.0000000e+00 5.5999999e+00 
1.0000000e+01 0.0000000e+00 6.4000001e+00 
1.0000000e+01 0.0000000e+00 7.1999998e+00 
1.0000000e+01 0.0000000e+00 8.0000000e+00 
2.0000000e+00 0.0000000e+00 4.0000000e+00 
4.0000000e+00 0.0000000e+00 4.0000000e+00 
6.0000000e+00 0.0000000e+00 4.0000000e+00 
8.0000000e+00 0.0000000e+00 4.0000000e+00 
2.0000000e+00 0.0000000e+00 8.0000000e+00 
4.0000000e+00 0.0000000e+00 8.0000000e+00 
6.0000000e+00 0.0000000e+00 8.0000000e+00 
8.0000000e+00 0.0000000e+00 8.0000000e+00 

CELLS 30 90
2 0 1
2 1 2
2 2 3
2 3 4
2 4 5
2 5 6
2 6 7
2 7 8
2 8 9
2 9 10
2 11 12
2 12 13
2 13 14
2 14 15
2 15 16
2 16 17
2 17 18
2 18 19
2 19 20
2 20 21
2 5 22
2 22 23
2 23 24
2 24 25
2 25 16
2 10 26
2 26 27
2 27 28
2 28 29
2 29 21

CELL_TYPES 30
3
3
3
3
3
3
3
3
3
3
3
3
3
3
3
3
3
3
3
3
3
3
3
3
3
3
3
3
3
3
POINT_DATA 30
FIELD FieldData 3
ADJOINT_DISPLACEMENT 3 30  float
0.0000000e+00 0.0000000e+00 0.0000000e+00 
-1.6334029e-01 0.0000000e+00 -7.6561210e-17 
-3.3220717e-01 0.0000000e+00 -1.5312242e-16 
-5.1212722e-01 0.0000000e+00 -2.2968362e-16 
-7.0862705e-01 0.0000000e+00 -3.0624484e-16 
-9.2723316e-01 0.0000000e+00 -3.8280606e-16 
-1.1322145e+00 0.0000000e+00 -9.8149700e-05 
-1.2884258e+00 0.0000000e+00 -1.9629940e-04 
-1.4022728e+00 0.0000000e+00 -2.9444910e-04 
-1.4801612e+00 0.0000000e+00 -3.9259880e-04 
-1.5284966e+00 0.0000000e+00 -4.9074850e-04 
0.0000000e+00 0.0000000e+00 0.0000000e+00 
-2.0760450e-01 0.0000000e+00 1.1096043e-16 
-4.0968239e-01 0.0000000e+00 2.2233540e-16 
-6.0070711e-01 0.0000000e+00 3.3723714e-16 
-7.7515209e-01 0.0000000e+00 4.4785316e-16 
-9.2749071e-01 0.0000000e+00 5.5840996e-16 
-1.0672809e+00 0.0000000e+00 9.8149700e-05 
-1.2034947e+00 0.0000000e+00 1.9629940e-04 
-1.3297261e+00 0.0000000e+00 2.9444910e-04 
-1.4395698e+00 0.0000000e+00 3.9259880e-04 
-1.5266199e+00 0.0000000e+00 4.9074850e-04 
-9.2728472e-01 0.0000000e+00 8.2662517e-01 
-9.2733622e-01 0.0000000e+00 1.0537087e-01 
-9.2738771e-01 0.0000000e+00 -2.2919600e-01 
-9.2743921e-01 0.0000000e+00 -2.4250858e-01 
-1.5281212e+00 0.0000000e+00 2.7314613e-02 
-1.5277460e+00 0.0000000e+00 -2.4117690e-02 
-1.5273706e+00 0.0000000e+00 -8.9354523e-02 
-1.5269953e+00 0.0000000e+00 -1.0296275e-01 
ADJOINT_ROTATION 3 30  float
0.0000000e+00 -2.0302399e-01 0.0000000e+00 
0.0000000e+00 -2.0647810e-01 0.0000000e+00 
0.0000000e+00 -2.1684046e-01 0.0000000e+00 
0.0000000e+00 -2.3411104e-01 0.0000000e+00 
0.0000000e+00 -2.5828987e-01 0.0000000e+00 
0.0000000e+00 -2.8937691e-01 0.0000000e+00 
0.0000000e+00 -2.2441089e-01 0.0000000e+00 
0.0000000e+00 -1.6745196e-01 0.0000000e+00 
0.0000000e+00 -1.1850010e-01 0.0000000e+00 
0.0000000e+00 -7.7555314e-02 0.0000000e+00 
0.0000000e+00 -4.4617616e-02 0.0000000e+00 
0.0000000e+00 -2.6065698e-01 0.0000000e+00 
0.0000000e+00 -2.5720286e-01 0.0000000e+00 
0.0000000e+00 -2.4684052e-01 0.0000000e+00 
0.0000000e+00 -2.2956994e-01 0.0000000e+00 
0.0000000e+00 -2.0539111e-01 0.0000000e+00 
0.0000000e+00 -1.7430405e-01 0.0000000e+00 
0.0000000e+00 -1.7383695e-01 0.0000000e+00 
0.0000000e+00 -1.6536276e-01 0.0000000e+00 
0.0000000e+00 -1.4888149e-01 0.0000000e+00 
0.0000000e+00 -1.2439314e-01 0.0000000e+00 
0.0000000e+00 -9.1897704e-02 0.0000000e+00 
0.0000000e+00 -5.3179550e-01 0.0000000e+00 
0.0000000e+00 2.5850254e-01 0.0000000e+00 
0.0000000e+00 8.1517100e-02 0.0000000e+00 
0.0000000e+00 -6.2751763e-02 0.0000000e+00 
0.0000000e+00 1.1359496e-02 0.0000000e+00 
0.0000000e+00 3.4620043e-02 0.0000000e+00 
0.0000000e+00 2.5164027e-02 0.0000000e+00 
0.0000000e+00 -1.7008556e-02 0.0000000e+00 
SHAPE_SENSITIVITY 3 30  float
0.0000000e+00 0.0000000e+00 0.0000000e+00 
0.0000000e+00 0.0000000e+00 0.0000000e+00 
0.0000000e+00 0.0000000e+00 0.0000000e+00 
0.0000000e+00 0.0000000e+00 0.0000000e+00 
0.0000000e+00 0.0000000e+00 0.0000000e+00 
0.0000000e+00 0.0000000e+00 0.0000000e+00 
0.0000000e+00 0.0000000e+00 0.0000000e+00 
0.0000000e+00 0.0000000e+00 0.0000000e+00 
0.0000000e+00 0.0000000e+00 0.0000000e+00 
0.0000000e+00 0.0000000e+00 0.0000000e+00 
0.0000000e+00 0.0000000e+00 0.0000000e+00 
0.0000000e+00 0.0000000e+00 0.0000000e+00 
0.0000000e+00 0.0000000e+00 0.0000000e+00 
0.0000000e+00 0.0000000e+00 0.0000000e+00 
0.0000000e+00 0.0000000e+00 0.0000000e+00 
0.0000000e+00 0.0000000e+00 0.0000000e+00 
0.0000000e+00 0.0000000e+00 0.0000000e+00 
0.0000000e+00 0.0000000e+00 0.0000000e+00 
0.0000000e+00 0.0000000e+00 0.0000000e+00 
0.0000000e+00 0.0000000e+00 0.0000000e+00 
0.0000000e+00 0.0000000e+00 0.0000000e+00 
0.0000000e+00 0.0000000e+00 0.0000000e+00 
0.0000000e+00 0.0000000e+00 0.0000000e+00 
0.0000000e+00 0.0000000e+00 0.0000000e+00 
0.0000000e+00 0.0000000e+00 0.0000000e+00 
0.0000000e+00 0.0000000e+00 0.0000000e+00 
0.0000000e+00 0.0000000e+00 0.0000000e+00 
0.0000000e+00 0.0000000e+00 0.0000000e+00 
0.0000000e+00 0.0000000e+00 0.0000000e+00 
0.0000000e+00 0.0000000e+00 0.0000000e+00 
CELL_DATA 30
FIELD FieldData 1
I22_SENSITIVITY 1 30  float
9.5864523e+04
6.7105219e+05
1.5281312e+06
2.8623915e+06
5.1758250e+06
5.6335831e+05
-3.7043109e+05
-1.9102525e+06
-2.2317202e+06
-1.0456672e+06
-3.4464617e+04
-3.4309838e+05
-1.2458100e+06
-2.9149908e+06
-5.3404965e+06
-2.0600268e+04
-1.7608969e+05
-1.3995445e+06
-3.1513115e+06
-5.2019875e+06
4.0595900e+07
1.9765274e+07
9.2701388e+05
-1.0678677e+07
-2.1205146e+07
-1.9647445e+06
-2.0927101e+06
7.1776725e+05
-1.0642825e+06
-1.0378212e+07
