# vtk DataFile Version 4.0
vtk output
ASCII
DATASET UNSTRUCTURED_GRID
POINTS 212 float
0.0000000e+00 0.0000000e+00 0.0000000e+00 
0.0000000e+00 0.0000000e+00 2.5000000e-01 
0.0000000e+00 0.0000000e+00 5.0000000e-01 
0.0000000e+00 0.0000000e+00 7.5000000e-01 
0.0000000e+00 0.0000000e+00 1.0000000e+00 
0.0000000e+00 0.0000000e+00 1.2500000e+00 
0.0000000e+00 0.0000000e+00 1.5000000e+00 
0.0000000e+00 0.0000000e+00 1.7500000e+00 
0.0000000e+00 0.0000000e+00 2.0000000e+00 
0.0000000e+00 0.0000000e+00 2.2500000e+00 
0.0000000e+00 0.0000000e+00 2.5000000e+00 
0.0000000e+00 0.0000000e+00 2.7500000e+00 
0.0000000e+00 0.0000000e+00 3.0000000e+00 
0.0000000e+00 0.0000000e+00 3.2500000e+00 
0.0000000e+00 0.0000000e+00 3.5000000e+00 
0.0000000e+00 0.0000000e+00 3.7500000e+00 
0.0000000e+00 0.0000000e+00 4.0000000e+00 
0.0000000e+00 0.0000000e+00 4.2500000e+00 
0.0000000e+00 0.0000000e+00 4.5000000e+00 
0.0000000e+00 0.0000000e+00 4.7500000e+00 
0.0000000e+00 0.0000000e+00 5.0000000e+00 
0.0000000e+00 0.0000000e+00 5.2500000e+00 
0.0000000e+00 0.0000000e+00 5.5000000e+00 
0.0000000e+00 0.0000000e+00 5.7500000e+00 
0.0000000e+00 0.0000000e+00 6.0000000e+00 
0.0000000e+00 0.0000000e+00 6.2500000e+00 
0.0000000e+00 0.0000000e+00 6.5000000e+00 
0.0000000e+00 0.0000000e+00 6.7500000e+00 
0.0000000e+00 0.0000000e+00 7.0000000e+00 
0.0000000e+00 0.0000000e+00 7.2500000e+00 
0.0000000e+00 0.0000000e+00 7.5000000e+00 
0.0000000e+00 0.0000000e+00 7.7500000e+00 
0.0000000e+00 0.0000000e+00 8.0000000e+00 
0.0000000e+00 0.0000000e+00 8.2500000e+00 
0.0000000e+00 0.0000000e+00 8.5000000e+00 
0.0000000e+00 0.0000000e+00 8.7500000e+00 
0.0000000e+00 0.0000000e+00 9.0000000e+00 
0.0000000e+00 0.0000000e+00 9.2500000e+00 
0.0000000e+00 0.0000000e+00 9.5000000e+00 
0.0000000e+00 0.0000000e+00 9.7500000e+00 
0.0000000e+00 0.0000000e+00 1.0000000e+01 
0.0000000e+00 0.0000000e+00 1.0250000e+01 
0.0000000e+00 0.0000000e+00 1.0500000e+01 
0.0000000e+00 0.0000000e+00 1.0750000e+01 
0.0000000e+00 0.0000000e+00 1.1000000e+01 
0.0000000e+00 0.0000000e+00 1.1250000e+01 
0.0000000e+00 0.0000000e+00 1.1500000e+01 
0.0000000e+00 0.0000000e+00 1.1750000e+01 
0.0000000e+00 0.0000000e+00 1.2000000e+01 
0.0000000e+00 0.0000000e+00 1.2250000e+01 
0.0000000e+00 0.0000000e+00 1.2500000e+01 
0.0000000e+00 0.0000000e+00 1.2750000e+01 
0.0000000e+00 0.0000000e+00 1.3000000e+01 
0.0000000e+00 0.0000000e+00 1.3250000e+01 
0.0000000e+00 0.0000000e+00 1.3500000e+01 
0.0000000e+00 0.0000000e+00 1.3750000e+01 
0.0000000e+00 0.0000000e+00 1.4000000e+01 
0.0000000e+00 0.0000000e+00 1.4250000e+01 
0.0000000e+00 0.0000000e+00 1.4500000e+01 
0.0000000e+00 0.0000000e+00 1.4750000e+01 
0.0000000e+00 0.0000000e+00 1.5000000e+01 
0.0000000e+00 0.0000000e+00 1.5250000e+01 
0.0000000e+00 0.0000000e+00 1.5500000e+01 
0.0000000e+00 0.0000000e+00 1.5750000e+01 
0.0000000e+00 0.0000000e+00 1.6000000e+01 
0.0000000e+00 0.0000000e+00 1.6250000e+01 
0.0000000e+00 0.0000000e+00 1.6500000e+01 
0.0000000e+00 0.0000000e+00 1.6750000e+01 
0.0000000e+00 0.0000000e+00 1.7000000e+01 
0.0000000e+00 0.0000000e+00 1.7250000e+01 
0.0000000e+00 0.0000000e+00 1.7500000e+01 
0.0000000e+00 0.0000000e+00 1.7750000e+01 
0.0000000e+00 0.0000000e+00 1.8000000e+01 
5.0000000e-01 0.0000000e+00 3.0000000e+00 
5.0000000e-01 0.0000000e+00 6.0000000e+00 
5.0000000e-01 0.0000000e+00 9.0000000e+00 
5.0000000e-01 0.0000000e+00 1.2000000e+01 
5.0000000e-01 0.0000000e+00 1.5000000e+01 
5.0000000e-01 0.0000000e+00 1.8000000e+01 
1.0000000e+00 0.0000000e+00 3.0000000e+00 
1.0000000e+00 0.0000000e+00 6.0000000e+00 
1.0000000e+00 0.0000000e+00 9.0000000e+00 
1.0000000e+00 0.0000000e+00 1.2000000e+01 
1.0000000e+00 0.0000000e+00 1.5000000e+01 
1.0000000e+00 0.0000000e+00 1.8000000e+01 
1.5000000e+00 0.0000000e+00 3.0000000e+00 
1.5000000e+00 0.0000000e+00 6.0000000e+00 
1.5000000e+00 0.0000000e+00 9.0000000e+00 
1.5000000e+00 0.0000000e+00 1.2000000e+01 
1.5000000e+00 0.0000000e+00 1.5000000e+01 
1.5000000e+00 0.0000000e+00 1.8000000e+01 
2.0000000e+00 0.0000000e+00 3.0000000e+00 
2.0000000e+00 0.0000000e+00 6.0000000e+00 
2.0000000e+00 0.0000000e+00 9.0000000e+00 
2.0000000e+00 0.0000000e+00 1.2000000e+01 
2.0000000e+00 0.0000000e+00 1.5000000e+01 
2.0000000e+00 0.0000000e+00 1.8000000e+01 
2.5000000e+00 0.0000000e+00 3.0000000e+00 
2.5000000e+00 0.0000000e+00 6.0000000e+00 
2.5000000e+00 0.0000000e+00 9.0000000e+00 
2.5000000e+00 0.0000000e+00 1.2000000e+01 
2.5000000e+00 0.0000000e+00 1.5000000e+01 
2.5000000e+00 0.0000000e+00 1.8000000e+01 
3.0000000e+00 0.0000000e+00 3.0000000e+00 
3.0000000e+00 0.0000000e+00 6.0000000e+00 
3.0000000e+00 0.0000000e+00 9.0000000e+00 
3.0000000e+00 0.0000000e+00 1.2000000e+01 
3.0000000e+00 0.0000000e+00 1.5000000e+01 
3.0000000e+00 0.0000000e+00 1.8000000e+01 
3.5000000e+00 0.0000000e+00 3.0000000e+00 
3.5000000e+00 0.0000000e+00 6.0000000e+00 
3.5000000e+00 0.0000000e+00 9.0000000e+00 
3.5000000e+00 0.0000000e+00 1.2000000e+01 
3.5000000e+00 0.0000000e+00 1.5000000e+01 
3.5000000e+00 0.0000000e+00 1.8000000e+01 
4.0000000e+00 0.0000000e+00 3.0000000e+00 
4.0000000e+00 0.0000000e+00 6.0000000e+00 
4.0000000e+00 0.0000000e+00 9.0000000e+00 
4.0000000e+00 0.0000000e+00 1.2000000e+01 
4.0000000e+00 0.0000000e+00 1.5000000e+01 
4.0000000e+00 0.0000000e+00 1.8000000e+01 
4.5000000e+00 0.0000000e+00 3.0000000e+00 
4.5000000e+00 0.0000000e+00 6.0000000e+00 
4.5000000e+00 0.0000000e+00 9.0000000e+00 
4.5000000e+00 0.0000000e+00 1.2000000e+01 
4.5000000e+00 0.0000000e+00 1.5000000e+01 
4.5000000e+00 0.0000000e+00 1.8000000e+01 
5.0000000e+00 0.0000000e+00 3.0000000e+00 
5.0000000e+00 0.0000000e+00 6.0000000e+00 
5.0000000e+00 0.0000000e+00 9.0000000e+00 
5.0000000e+00 0.0000000e+00 1.2000000e+01 
5.0000000e+00 0.0000000e+00 1.5000000e+01 
5.0000000e+00 0.0000000e+00 1.8000000e+01 
5.5000000e+00 0.0000000e+00 3.0000000e+00 
5.5000000e+00 0.0000000e+00 6.0000000e+00 
5.5000000e+00 0.0000000e+00 9.0000000e+00 
5.5000000e+00 0.0000000e+00 1.2000000e+01 
5.5000000e+00 0.0000000e+00 1.5000000e+01 
5.5000000e+00 0.0000000e+00 1.8000000e+01 
6.0000000e+00 0.0000000e+00 0.0000000e+00 
6.0000000e+00 0.0000000e+00 2.5000000e-01 
6.0000000e+00 0.0000000e+00 5.0000000e-01 
6.0000000e+00 0.0000000e+00 7.5000000e-01 
6.0000000e+00 0.0000000e+00 1.0000000e+00 
6.0000000e+00 0.0000000e+00 1.2500000e+00 
6.0000000e+00 0.0000000e+00 1.5000000e+00 
6.0000000e+00 0.0000000e+00 1.7500000e+00 
6.0000000e+00 0.0000000e+00 2.0000000e+00 
6.0000000e+00 0.0000000e+00 2.2500000e+00 
6.0000000e+00 0.0000000e+00 2.5000000e+00 
6.0000000e+00 0.0000000e+00 2.7500000e+00 
6.0000000e+00 0.0000000e+00 3.0000000e+00 
6.0000000e+00 0.0000000e+00 3.2500000e+00 
6.0000000e+00 0.0000000e+00 3.5000000e+00 
6.0000000e+00 0.0000000e+00 3.7500000e+00 
6.0000000e+00 0.0000000e+00 4.0000000e+00 
6.0000000e+00 0.0000000e+00 4.2500000e+00 
6.0000000e+00 0.0000000e+00 4.5000000e+00 
6.0000000e+00 0.0000000e+00 4.7500000e+00 
6.0000000e+00 0.0000000e+00 5.0000000e+00 
6.0000000e+00 0.0000000e+00 5.2500000e+00 
6.0000000e+00 0.0000000e+00 5.5000000e+00 
6.0000000e+00 0.0000000e+00 5.7500000e+00 
6.0000000e+00 0.0000000e+00 6.0000000e+00 
6.0000000e+00 0.0000000e+00 6.2500000e+00 
6.0000000e+00 0.0000000e+00 6.5000000e+00 
6.0000000e+00 0.0000000e+00 6.7500000e+00 
6.0000000e+00 0.0000000e+00 7.0000000e+00 
6.0000000e+00 0.0000000e+00 7.2500000e+00 
6.0000000e+00 0.0000000e+00 7.5000000e+00 
6.0000000e+00 0.0000000e+00 7.7500000e+00 
6.0000000e+00 0.0000000e+00 8.0000000e+00 
6.0000000e+00 0.0000000e+00 8.2500000e+00 
6.0000000e+00 0.0000000e+00 8.5000000e+00 
6.0000000e+00 0.0000000e+00 8.7500000e+00 
6.0000000e+00 0.0000000e+00 9.0000000e+00 
6.0000000e+00 0.0000000e+00 9.2500000e+00 
6.0000000e+00 0.0000000e+00 9.5000000e+00 
6.0000000e+00 0.0000000e+00 9.7500000e+00 
6.0000000e+00 0.0000000e+00 1.0000000e+01 
6.0000000e+00 0.0000000e+00 1.0250000e+01 
6.0000000e+00 0.0000000e+00 1.0500000e+01 
6.0000000e+00 0.0000000e+00 1.0750000e+01 
6.0000000e+00 0.0000000e+00 1.1000000e+01 
6.0000000e+00 0.0000000e+00 1.1250000e+01 
6.0000000e+00 0.0000000e+00 1.1500000e+01 
6.0000000e+00 0.0000000e+00 1.1750000e+01 
6.0000000e+00 0.0000000e+00 1.2000000e+01 
6.0000000e+00 0.0000000e+00 1.2250000e+01 
6.0000000e+00 0.0000000e+00 1.2500000e+01 
6.0000000e+00 0.0000000e+00 1.2750000e+01 
6.0000000e+00 0.0000000e+00 1.3000000e+01 
6.0000000e+00 0.0000000e+00 1.3250000e+01 
6.0000000e+00 0.0000000e+00 1.3500000e+01 
6.0000000e+00 0.0000000e+00 1.3750000e+01 
6.0000000e+00 0.0000000e+00 1.4000000e+01 
6.0000000e+00 0.0000000e+00 1.4250000e+01 
6.0000000e+00 0.0000000e+00 1.4500000e+01 
6.0000000e+00 0.0000000e+00 1.4750000e+01 
6.0000000e+00 0.0000000e+00 1.5000000e+01 
6.0000000e+00 0.0000000e+00 1.5250000e+01 
6.0000000e+00 0.0000000e+00 1.5500000e+01 
6.0000000e+00 0.0000000e+00 1.5750000e+01 
6.0000000e+00 0.0000000e+00 1.6000000e+01 
6.0000000e+00 0.0000000e+00 1.6250000e+01 
6.0000000e+00 0.0000000e+00 1.6500000e+01 
6.0000000e+00 0.0000000e+00 1.6750000e+01 
6.0000000e+00 0.0000000e+00 1.7000000e+01 
6.0000000e+00 0.0000000e+00 1.7250000e+01 
6.0000000e+00 0.0000000e+00 1.7500000e+01 
6.0000000e+00 0.0000000e+00 1.7750000e+01 
6.0000000e+00 0.0000000e+00 1.8000000e+01 

CELLS 216 648
2 0 1
2 1 2
2 2 3
2 3 4
2 4 5
2 5 6
2 6 7
2 7 8
2 8 9
2 9 10
2 10 11
2 11 12
2 12 13
2 13 14
2 14 15
2 15 16
2 16 17
2 17 18
2 18 19
2 19 20
2 20 21
2 21 22
2 22 23
2 23 24
2 24 25
2 25 26
2 26 27
2 27 28
2 28 29
2 29 30
2 30 31
2 31 32
2 32 33
2 33 34
2 34 35
2 35 36
2 36 37
2 37 38
2 38 39
2 39 40
2 40 41
2 41 42
2 42 43
2 43 44
2 44 45
2 45 46
2 46 47
2 47 48
2 48 49
2 49 50
2 50 51
2 51 52
2 52 53
2 53 54
2 54 55
2 55 56
2 56 57
2 57 58
2 58 59
2 59 60
2 60 61
2 61 62
2 62 63
2 63 64
2 64 65
2 65 66
2 66 67
2 67 68
2 68 69
2 69 70
2 70 71
2 71 72
2 139 140
2 140 141
2 141 142
2 142 143
2 143 144
2 144 145
2 145 146
2 146 147
2 147 148
2 148 149
2 149 150
2 150 151
2 151 152
2 152 153
2 153 154
2 154 155
2 155 156
2 156 157
2 157 158
2 158 159
2 159 160
2 160 161
2 161 162
2 162 163
2 163 164
2 164 165
2 165 166
2 166 167
2 167 168
2 168 169
2 169 170
2 170 171
2 171 172
2 172 173
2 173 174
2 174 175
2 175 176
2 176 177
2 177 178
2 178 179
2 179 180
2 180 181
2 181 182
2 182 183
2 183 184
2 184 185
2 185 186
2 186 187
2 187 188
2 188 189
2 189 190
2 190 191
2 191 192
2 192 193
2 193 194
2 194 195
2 195 196
2 196 197
2 197 198
2 198 199
2 199 200
2 200 201
2 201 202
2 202 203
2 203 204
2 204 205
2 205 206
2 206 207
2 207 208
2 208 209
2 209 210
2 210 211
2 12 73
2 73 79
2 79 85
2 85 91
2 91 97
2 97 103
2 103 109
2 109 115
2 115 121
2 121 127
2 127 133
2 133 151
2 24 74
2 74 80
2 80 86
2 86 92
2 92 98
2 98 104
2 104 110
2 110 116
2 116 122
2 122 128
2 128 134
2 134 163
2 36 75
2 75 81
2 81 87
2 87 93
2 93 99
2 99 105
2 105 111
2 111 117
2 117 123
2 123 129
2 129 135
2 135 175
2 48 76
2 76 82
2 82 88
2 88 94
2 94 100
2 100 106
2 106 112
2 112 118
2 118 124
2 124 130
2 130 136
2 136 187
2 60 77
2 77 83
2 83 89
2 89 95
2 95 101
2 101 107
2 107 113
2 113 119
2 119 125
2 125 131
2 131 137
2 137 199
2 72 78
2 78 84
2 84 90
2 90 96
2 96 102
2 102 108
2 108 114
2 114 120
2 120 126
2 126 132
2 132 138
2 138 211

CELL_TYPES 216
3
3
3
3
3
3
3
3
3
3
3
3
3
3
3
3
3
3
3
3
3
3
3
3
3
3
3
3
3
3
3
3
3
3
3
3
3
3
3
3
3
3
3
3
3
3
3
3
3
3
3
3
3
3
3
3
3
3
3
3
3
3
3
3
3
3
3
3
3
3
3
3
3
3
3
3
3
3
3
3
3
3
3
3
3
3
3
3
3
3
3
3
3
3
3
3
3
3
3
3
3
3
3
3
3
3
3
3
3
3
3
3
3
3
3
3
3
3
3
3
3
3
3
3
3
3
3
3
3
3
3
3
3
3
3
3
3
3
3
3
3
3
3
3
3
3
3
3
3
3
3
3
3
3
3
3
3
3
3
3
3
3
3
3
3
3
3
3
3
3
3
3
3
3
3
3
3
3
3
3
3
3
3
3
3
3
3
3
3
3
3
3
3
3
3
3
3
3
3
3
3
3
3
3
3
3
3
3
3
3
3
3
3
3
3
3
POINT_DATA 212
FIELD FieldData 8
DISPLACEMENT 3 212  float
0.0000000e+00 0.0000000e+00 0.0000000e+00 
-5.4237307e-06 0.0000000e+00 -3.6159965e-06 
-1.0623026e-05 0.0000000e+00 -7.2070943e-06 
-1.5373455e-05 0.0000000e+00 -1.0773294e-05 
-1.9450577e-05 0.0000000e+00 -1.4314594e-05 
-2.2629963e-05 0.0000000e+00 -1.7830997e-05 
-2.4687179e-05 0.0000000e+00 -2.1322501e-05 
-2.5397787e-05 0.0000000e+00 -2.4789106e-05 
-2.4537354e-05 0.0000000e+00 -2.8230812e-05 
-2.1881446e-05 0.0000000e+00 -3.1647622e-05 
-1.7205628e-05 0.0000000e+00 -3.5039528e-05 
-1.0285466e-05 0.0000000e+00 -3.8406539e-05 
-8.9652514e-07 0.0000000e+00 -4.1748652e-05 
7.5806051e-06 0.0000000e+00 -4.4759909e-05 
1.2101954e-05 0.0000000e+00 -4.7746264e-05 
1.3396883e-05 0.0000000e+00 -5.0707724e-05 
1.2194754e-05 0.0000000e+00 -5.3644282e-05 
9.2249275e-06 0.0000000e+00 -5.6555946e-05 
5.2167661e-06 0.0000000e+00 -5.9442707e-05 
8.9963055e-07 0.0000000e+00 -6.2304571e-05 
-2.9971175e-06 0.0000000e+00 -6.5141539e-05 
-5.7441166e-06 0.0000000e+00 -6.7953602e-05 
-6.6120056e-06 0.0000000e+00 -7.0740774e-05 
-4.8714228e-06 0.0000000e+00 -7.3503041e-05 
2.0699348e-07 0.0000000e+00 -7.6240416e-05 
5.4895095e-06 0.0000000e+00 -7.8646925e-05 
7.7646728e-06 0.0000000e+00 -8.1028542e-05 
7.6452643e-06 0.0000000e+00 -8.3385261e-05 
5.7440666e-06 0.0000000e+00 -8.5717082e-05 
2.6738608e-06 0.0000000e+00 -8.8023997e-05 
-9.5257087e-07 0.0000000e+00 -9.0306021e-05 
-4.5224465e-06 0.0000000e+00 -9.2563147e-05 
-7.4229847e-06 0.0000000e+00 -9.4795367e-05 
-9.0414042e-06 0.0000000e+00 -9.7002696e-05 
-8.7649214e-06 0.0000000e+00 -9.9185119e-05 
-5.9807562e-06 0.0000000e+00 -1.0134265e-04 
-7.6126199e-08 0.0000000e+00 -1.0347528e-04 
5.7535090e-06 0.0000000e+00 -1.0527705e-04 
8.3412733e-06 0.0000000e+00 -1.0705393e-04 
8.3428240e-06 0.0000000e+00 -1.0880591e-04 
6.4138158e-06 0.0000000e+00 -1.1053299e-04 
3.2099060e-06 0.0000000e+00 -1.1223516e-04 
-6.1324891e-07 0.0000000e+00 -1.1391244e-04 
-4.3999926e-06 0.0000000e+00 -1.1556483e-04 
-7.4946688e-06 0.0000000e+00 -1.1719231e-04 
-9.2416212e-06 0.0000000e+00 -1.1879489e-04 
-8.9851928e-06 0.0000000e+00 -1.2037258e-04 
-6.0697280e-06 0.0000000e+00 -1.2192537e-04 
1.6043016e-07 0.0000000e+00 -1.2345325e-04 
6.5486975e-06 0.0000000e+00 -1.2465029e-04 
9.8782530e-06 0.0000000e+00 -1.2582242e-04 
1.0714399e-05 0.0000000e+00 -1.2696967e-04 
9.6224348e-06 0.0000000e+00 -1.2809200e-04 
7.1676641e-06 0.0000000e+00 -1.2918943e-04 
3.9153874e-06 0.0000000e+00 -1.3026198e-04 
4.3090606e-07 0.0000000e+00 -1.3130961e-04 
-2.7204785e-06 0.0000000e+00 -1.3233237e-04 
-4.9734649e-06 0.0000000e+00 -1.3333021e-04 
-5.7627517e-06 0.0000000e+00 -1.3430315e-04 
-4.5230372e-06 0.0000000e+00 -1.3525119e-04 
-6.8902034e-07 0.0000000e+00 -1.3617435e-04 
2.4559934e-06 0.0000000e+00 -1.3676664e-04 
1.8874044e-06 0.0000000e+00 -1.3733403e-04 
-1.4414263e-06 0.0000000e+00 -1.3787653e-04 
-6.5771383e-06 0.0000000e+00 -1.3839413e-04 
-1.2566370e-05 0.0000000e+00 -1.3888681e-04 
-1.8455761e-05 0.0000000e+00 -1.3935461e-04 
-2.3291952e-05 0.0000000e+00 -1.3979751e-04 
-2.6121579e-05 0.0000000e+00 -1.4021552e-04 
-2.5991285e-05 0.0000000e+00 -1.4060862e-04 
-2.1947708e-05 0.0000000e+00 -1.4097683e-04 
-1.3037485e-05 0.0000000e+00 -1.4132012e-04 
1.6927435e-06 0.0000000e+00 -1.4163853e-04 
-7.4710431e-07 0.0000000e+00 -7.5262149e-05 
1.7249457e-07 0.0000000e+00 -1.0295648e-04 
-6.3438499e-08 0.0000000e+00 -1.3143558e-04 
1.3369181e-07 0.0000000e+00 -1.5221460e-04 
-5.7418362e-07 0.0000000e+00 -1.5982718e-04 
1.4106196e-06 0.0000000e+00 -1.8846181e-04 
-5.9768342e-07 0.0000000e+00 -1.2336031e-04 
1.3799566e-07 0.0000000e+00 -1.4549312e-04 
-5.0750799e-08 0.0000000e+00 -1.7499021e-04 
1.0695344e-07 0.0000000e+00 -1.9642463e-04 
-4.5934686e-07 0.0000000e+00 -1.9985755e-04 
1.1284956e-06 0.0000000e+00 -2.4744979e-04 
-4.4826257e-07 0.0000000e+00 -1.7363633e-04 
1.0349674e-07 0.0000000e+00 -1.9144350e-04 
-3.8063099e-08 0.0000000e+00 -2.2173238e-04 
8.0215081e-08 0.0000000e+00 -2.4367656e-04 
-3.4451017e-07 0.0000000e+00 -2.4385859e-04 
8.4637173e-07 0.0000000e+00 -3.0619567e-04 
-2.9884171e-07 0.0000000e+00 -2.1644046e-04 
6.8997828e-08 0.0000000e+00 -2.3115787e-04 
-2.5375400e-08 0.0000000e+00 -2.6201233e-04 
5.3476722e-08 0.0000000e+00 -2.8432062e-04 
-2.2967343e-07 0.0000000e+00 -2.8218061e-04 
5.6424778e-07 0.0000000e+00 -3.5504968e-04 
-1.4942086e-07 0.0000000e+00 -2.4488001e-04 
3.4498914e-08 0.0000000e+00 -2.5774358e-04 
-1.2687700e-08 0.0000000e+00 -2.8893736e-04 
2.6738361e-08 0.0000000e+00 -3.1146410e-04 
-1.1483672e-07 0.0000000e+00 -3.0793087e-04 
2.8212389e-07 0.0000000e+00 -3.8711916e-04 
4.9073744e-17 0.0000000e+00 -2.5481934e-04 
8.3508449e-17 0.0000000e+00 -2.6706498e-04 
1.0945240e-16 0.0000000e+00 -2.9837189e-04 
1.3765802e-16 0.0000000e+00 -3.2097145e-04 
1.6575637e-16 0.0000000e+00 -3.1697380e-04 
1.8629093e-16 0.0000000e+00 -3.9826852e-04 
1.4942086e-07 0.0000000e+00 -2.4488001e-04 
-3.4498910e-08 0.0000000e+00 -2.5774358e-04 
1.2687700e-08 0.0000000e+00 -2.8893736e-04 
-2.6738361e-08 0.0000000e+00 -3.1146410e-04 
1.1483672e-07 0.0000000e+00 -3.0793087e-04 
-2.8212389e-07 0.0000000e+00 -3.8711916e-04 
2.9884171e-07 0.0000000e+00 -2.1644046e-04 
-6.8997821e-08 0.0000000e+00 -2.3115787e-04 
2.5375400e-08 0.0000000e+00 -2.6201233e-04 
-5.3476722e-08 0.0000000e+00 -2.8432062e-04 
2.2967343e-07 0.0000000e+00 -2.8218061e-04 
-5.6424778e-07 0.0000000e+00 -3.5504968e-04 
4.4826257e-07 0.0000000e+00 -1.7363633e-04 
-1.0349674e-07 0.0000000e+00 -1.9144350e-04 
3.8063099e-08 0.0000000e+00 -2.2173238e-04 
-8.0215081e-08 0.0000000e+00 -2.4367656e-04 
3.4451017e-07 0.0000000e+00 -2.4385859e-04 
-8.4637173e-07 0.0000000e+00 -3.0619567e-04 
5.9768342e-07 0.0000000e+00 -1.2336031e-04 
-1.3799566e-07 0.0000000e+00 -1.4549312e-04 
5.0750799e-08 0.0000000e+00 -1.7499021e-04 
-1.0695344e-07 0.0000000e+00 -1.9642463e-04 
4.5934686e-07 0.0000000e+00 -1.9985755e-04 
-1.1284956e-06 0.0000000e+00 -2.4744979e-04 
7.4710431e-07 0.0000000e+00 -7.5262149e-05 
-1.7249457e-07 0.0000000e+00 -1.0295648e-04 
6.3438499e-08 0.0000000e+00 -1.3143558e-04 
-1.3369180e-07 0.0000000e+00 -1.5221460e-04 
5.7418362e-07 0.0000000e+00 -1.5982718e-04 
-1.4106196e-06 0.0000000e+00 -1.8846181e-04 
0.0000000e+00 0.0000000e+00 0.0000000e+00 
5.4237307e-06 0.0000000e+00 -3.6159965e-06 
1.0623026e-05 0.0000000e+00 -7.2070943e-06 
1.5373455e-05 0.0000000e+00 -1.0773294e-05 
1.9450577e-05 0.0000000e+00 -1.4314594e-05 
2.2629963e-05 0.0000000e+00 -1.7830997e-05 
2.4687179e-05 0.0000000e+00 -2.1322501e-05 
2.5397787e-05 0.0000000e+00 -2.4789106e-05 
2.4537354e-05 0.0000000e+00 -2.8230812e-05 
2.1881446e-05 0.0000000e+00 -3.1647622e-05 
1.7205628e-05 0.0000000e+00 -3.5039528e-05 
1.0285466e-05 0.0000000e+00 -3.8406539e-05 
8.9652514e-07 0.0000000e+00 -4.1748652e-05 
-7.5806051e-06 0.0000000e+00 -4.4759909e-05 
-1.2101954e-05 0.0000000e+00 -4.7746264e-05 
-1.3396883e-05 0.0000000e+00 -5.0707724e-05 
-1.2194754e-05 0.0000000e+00 -5.3644282e-05 
-9.2249275e-06 0.0000000e+00 -5.6555946e-05 
-5.2167661e-06 0.0000000e+00 -5.9442707e-05 
-8.9963055e-07 0.0000000e+00 -6.2304571e-05 
2.9971175e-06 0.0000000e+00 -6.5141539e-05 
5.7441166e-06 0.0000000e+00 -6.7953602e-05 
6.6120056e-06 0.0000000e+00 -7.0740774e-05 
4.8714228e-06 0.0000000e+00 -7.3503041e-05 
-2.0699348e-07 0.0000000e+00 -7.6240416e-05 
-5.4895095e-06 0.0000000e+00 -7.8646925e-05 
-7.7646728e-06 0.0000000e+00 -8.1028542e-05 
-7.6452643e-06 0.0000000e+00 -8.3385261e-05 
-5.7440666e-06 0.0000000e+00 -8.5717082e-05 
-2.6738608e-06 0.0000000e+00 -8.8023997e-05 
9.5257087e-07 0.0000000e+00 -9.0306021e-05 
4.5224465e-06 0.0000000e+00 -9.2563147e-05 
7.4229847e-06 0.0000000e+00 -9.4795367e-05 
9.0414042e-06 0.0000000e+00 -9.7002696e-05 
8.7649214e-06 0.0000000e+00 -9.9185119e-05 
5.9807562e-06 0.0000000e+00 -1.0134265e-04 
7.6126199e-08 0.0000000e+00 -1.0347528e-04 
-5.7535090e-06 0.0000000e+00 -1.0527705e-04 
-8.3412733e-06 0.0000000e+00 -1.0705393e-04 
-8.3428240e-06 0.0000000e+00 -1.0880591e-04 
-6.4138158e-06 0.0000000e+00 -1.1053299e-04 
-3.2099060e-06 0.0000000e+00 -1.1223516e-04 
6.1324891e-07 0.0000000e+00 -1.1391244e-04 
4.3999926e-06 0.0000000e+00 -1.1556483e-04 
7.4946688e-06 0.0000000e+00 -1.1719231e-04 
9.2416212e-06 0.0000000e+00 -1.1879489e-04 
8.9851928e-06 0.0000000e+00 -1.2037258e-04 
6.0697280e-06 0.0000000e+00 -1.2192537e-04 
-1.6043016e-07 0.0000000e+00 -1.2345325e-04 
-6.5486975e-06 0.0000000e+00 -1.2465029e-04 
-9.8782530e-06 0.0000000e+00 -1.2582242e-04 
-1.0714399e-05 0.0000000e+00 -1.2696967e-04 
-9.6224348e-06 0.0000000e+00 -1.2809200e-04 
-7.1676641e-06 0.0000000e+00 -1.2918943e-04 
-3.9153874e-06 0.0000000e+00 -1.3026198e-04 
-4.3090606e-07 0.0000000e+00 -1.3130961e-04 
2.7204785e-06 0.0000000e+00 -1.3233237e-04 
4.9734649e-06 0.0000000e+00 -1.3333021e-04 
5.7627517e-06 0.0000000e+00 -1.3430315e-04 
4.5230372e-06 0.0000000e+00 -1.3525119e-04 
6.8902034e-07 0.0000000e+00 -1.3617435e-04 
-2.4559934e-06 0.0000000e+00 -1.3676664e-04 
-1.8874044e-06 0.0000000e+00 -1.3733403e-04 
1.4414263e-06 0.0000000e+00 -1.3787653e-04 
6.5771383e-06 0.0000000e+00 -1.3839413e-04 
1.2566370e-05 0.0000000e+00 -1.3888681e-04 
1.8455761e-05 0.0000000e+00 -1.3935461e-04 
2.3291952e-05 0.0000000e+00 -1.3979751e-04 
2.6121579e-05 0.0000000e+00 -1.4021552e-04 
2.5991285e-05 0.0000000e+00 -1.4060862e-04 
2.1947708e-05 0.0000000e+00 -1.4097683e-04 
1.3037485e-05 0.0000000e+00 -1.4132012e-04 
-1.6927435e-06 0.0000000e+00 -1.4163853e-04 
ROTATION 3 212  float
0.0000000e+00 -2.1844546e-05 0.0000000e+00 
0.0000000e+00 -2.1395676e-05 0.0000000e+00 
0.0000000e+00 -2.0049070e-05 0.0000000e+00 
0.0000000e+00 -1.7804725e-05 0.0000000e+00 
0.0000000e+00 -1.4662643e-05 0.0000000e+00 
0.0000000e+00 -1.0622824e-05 0.0000000e+00 
0.0000000e+00 -5.6852678e-06 0.0000000e+00 
0.0000000e+00 1.5002709e-07 0.0000000e+00 
0.0000000e+00 6.8830595e-06 0.0000000e+00 
0.0000000e+00 1.4513829e-05 0.0000000e+00 
0.0000000e+00 2.3042337e-05 0.0000000e+00 
0.0000000e+00 3.2468583e-05 0.0000000e+00 
0.0000000e+00 4.2792566e-05 0.0000000e+00 
0.0000000e+00 2.5510717e-05 0.0000000e+00 
0.0000000e+00 1.1146315e-05 0.0000000e+00 
0.0000000e+00 -3.0064118e-07 0.0000000e+00 
0.0000000e+00 -8.8301513e-06 0.0000000e+00 
0.0000000e+00 -1.4442217e-05 0.0000000e+00 
0.0000000e+00 -1.7136836e-05 0.0000000e+00 
0.0000000e+00 -1.6914008e-05 0.0000000e+00 
0.0000000e+00 -1.3773735e-05 0.0000000e+00 
0.0000000e+00 -7.7160166e-06 0.0000000e+00 
0.0000000e+00 1.2591472e-06 0.0000000e+00 
0.0000000e+00 1.3151757e-05 0.0000000e+00 
0.0000000e+00 2.7961813e-05 0.0000000e+00 
0.0000000e+00 1.4706837e-05 0.0000000e+00 
0.0000000e+00 3.9029883e-06 0.0000000e+00 
0.0000000e+00 -4.4497338e-06 0.0000000e+00 
0.0000000e+00 -1.0351328e-05 0.0000000e+00 
0.0000000e+00 -1.3801796e-05 0.0000000e+00 
0.0000000e+00 -1.4801136e-05 0.0000000e+00 
0.0000000e+00 -1.3349350e-05 0.0000000e+00 
0.0000000e+00 -9.4464349e-06 0.0000000e+00 
0.0000000e+00 -3.0923943e-06 0.0000000e+00 
0.0000000e+00 5.7127741e-06 0.0000000e+00 
0.0000000e+00 1.6969068e-05 0.0000000e+00 
0.0000000e+00 3.0676492e-05 0.0000000e+00 
0.0000000e+00 1.6397695e-05 0.0000000e+00 
0.0000000e+00 4.7415247e-06 0.0000000e+00 
0.0000000e+00 -4.2920201e-06 0.0000000e+00 
0.0000000e+00 -1.0702940e-05 0.0000000e+00 
0.0000000e+00 -1.4491234e-05 0.0000000e+00 
0.0000000e+00 -1.5656902e-05 0.0000000e+00 
0.0000000e+00 -1.4199944e-05 0.0000000e+00 
0.0000000e+00 -1.0120361e-05 0.0000000e+00 
0.0000000e+00 -3.4181523e-06 0.0000000e+00 
0.0000000e+00 5.9066820e-06 0.0000000e+00 
0.0000000e+00 1.7854141e-05 0.0000000e+00 
0.0000000e+00 3.2424228e-05 0.0000000e+00 
0.0000000e+00 1.9058778e-05 0.0000000e+00 
0.0000000e+00 7.9545343e-06 0.0000000e+00 
0.0000000e+00 -8.8850362e-07 0.0000000e+00 
0.0000000e+00 -7.4703362e-06 0.0000000e+00 
0.0000000e+00 -1.1790963e-05 0.0000000e+00 
0.0000000e+00 -1.3850384e-05 0.0000000e+00 
0.0000000e+00 -1.3648600e-05 0.0000000e+00 
0.0000000e+00 -1.1185610e-05 0.0000000e+00 
0.0000000e+00 -6.4614137e-06 0.0000000e+00 
0.0000000e+00 5.2398775e-07 0.0000000e+00 
0.0000000e+00 9.7705952e-06 0.0000000e+00 
0.0000000e+00 2.1278407e-05 0.0000000e+00 
0.0000000e+00 4.5172756e-06 0.0000000e+00 
0.0000000e+00 -8.4304129e-06 0.0000000e+00 
0.0000000e+00 -1.7564658e-05 0.0000000e+00 
0.0000000e+00 -2.2885461e-05 0.0000000e+00 
0.0000000e+00 -2.4392821e-05 0.0000000e+00 
0.0000000e+00 -2.2086737e-05 0.0000000e+00 
0.0000000e+00 -1.5967211e-05 0.0000000e+00 
0.0000000e+00 -6.0342409e-06 0.0000000e+00 
0.0000000e+00 7.7121722e-06 0.0000000e+00 
0.0000000e+00 2.5272027e-05 0.0000000e+00 
0.0000000e+00 4.6645328e-05 0.0000000e+00 
0.0000000e+00 7.1832066e-05 0.0000000e+00 
0.0000000e+00 8.6206783e-05 0.0000000e+00 
0.0000000e+00 7.3847819e-05 0.0000000e+00 
0.0000000e+00 7.6110053e-05 0.0000000e+00 
0.0000000e+00 7.7566503e-05 0.0000000e+00 
0.0000000e+00 6.8278314e-05 0.0000000e+00 
0.0000000e+00 1.1040637e-04 0.0000000e+00 
0.0000000e+00 1.0205028e-04 0.0000000e+00 
0.0000000e+00 9.2163114e-05 0.0000000e+00 
0.0000000e+00 9.3972900e-05 0.0000000e+00 
0.0000000e+00 9.5138057e-05 0.0000000e+00 
0.0000000e+00 8.7707507e-05 0.0000000e+00 
0.0000000e+00 1.2140995e-04 0.0000000e+00 
0.0000000e+00 9.5837211e-05 0.0000000e+00 
0.0000000e+00 8.8421839e-05 0.0000000e+00 
0.0000000e+00 8.9779176e-05 0.0000000e+00 
0.0000000e+00 9.0653040e-05 0.0000000e+00 
0.0000000e+00 8.5080130e-05 0.0000000e+00 
0.0000000e+00 1.1035697e-04 0.0000000e+00 
0.0000000e+00 7.3081712e-05 0.0000000e+00 
0.0000000e+00 6.8138128e-05 0.0000000e+00 
0.0000000e+00 6.9043024e-05 0.0000000e+00 
0.0000000e+00 6.9625603e-05 0.0000000e+00 
0.0000000e+00 6.5910324e-05 0.0000000e+00 
0.0000000e+00 8.2761544e-05 0.0000000e+00 
0.0000000e+00 3.9297927e-05 0.0000000e+00 
0.0000000e+00 3.6826135e-05 0.0000000e+00 
0.0000000e+00 3.7278583e-05 0.0000000e+00 
0.0000000e+00 3.7569873e-05 0.0000000e+00 
0.0000000e+00 3.5712234e-05 0.0000000e+00 
0.0000000e+00 4.4137847e-05 0.0000000e+00 
0.0000000e+00 -3.8449059e-18 0.0000000e+00 
0.0000000e+00 -1.9224529e-18 0.0000000e+00 
0.0000000e+00 3.1055011e-18 0.0000000e+00 
0.0000000e+00 -1.4788100e-18 0.0000000e+00 
0.0000000e+00 4.4364302e-19 0.0000000e+00 
0.0000000e+00 1.1024445e-18 0.0000000e+00 
0.0000000e+00 -3.9297927e-05 0.0000000e+00 
0.0000000e+00 -3.6826135e-05 0.0000000e+00 
0.0000000e+00 -3.7278583e-05 0.0000000e+00 
0.0000000e+00 -3.7569873e-05 0.0000000e+00 
0.0000000e+00 -3.5712234e-05 0.0000000e+00 
0.0000000e+00 -4.4137847e-05 0.0000000e+00 
0.0000000e+00 -7.3081712e-05 0.0000000e+00 
0.0000000e+00 -6.8138128e-05 0.0000000e+00 
0.0000000e+00 -6.9043024e-05 0.0000000e+00 
0.0000000e+00 -6.9625603e-05 0.0000000e+00 
0.0000000e+00 -6.5910324e-05 0.0000000e+00 
0.0000000e+00 -8.2761544e-05 0.0000000e+00 
0.0000000e+00 -9.5837211e-05 0.0000000e+00 
0.0000000e+00 -8.8421839e-05 0.0000000e+00 
0.0000000e+00 -8.9779176e-05 0.0000000e+00 
0.0000000e+00 -9.0653040e-05 0.0000000e+00 
0.0000000e+00 -8.5080130e-05 0.0000000e+00 
0.0000000e+00 -1.1035697e-04 0.0000000e+00 
0.0000000e+00 -1.0205028e-04 0.0000000e+00 
0.0000000e+00 -9.2163114e-05 0.0000000e+00 
0.0000000e+00 -9.3972900e-05 0.0000000e+00 
0.0000000e+00 -9.5138057e-05 0.0000000e+00 
0.0000000e+00 -8.7707507e-05 0.0000000e+00 
0.0000000e+00 -1.2140995e-04 0.0000000e+00 
0.0000000e+00 -8.6206783e-05 0.0000000e+00 
0.0000000e+00 -7.3847819e-05 0.0000000e+00 
0.0000000e+00 -7.6110053e-05 0.0000000e+00 
0.0000000e+00 -7.7566503e-05 0.0000000e+00 
0.0000000e+00 -6.8278314e-05 0.0000000e+00 
0.0000000e+00 -1.1040637e-04 0.0000000e+00 
0.0000000e+00 2.1844546e-05 0.0000000e+00 
0.0000000e+00 2.1395676e-05 0.0000000e+00 
0.0000000e+00 2.0049070e-05 0.0000000e+00 
0.0000000e+00 1.7804725e-05 0.0000000e+00 
0.0000000e+00 1.4662643e-05 0.0000000e+00 
0.0000000e+00 1.0622824e-05 0.0000000e+00 
0.0000000e+00 5.6852678e-06 0.0000000e+00 
0.0000000e+00 -1.5002709e-07 0.0000000e+00 
0.0000000e+00 -6.8830595e-06 0.0000000e+00 
0.0000000e+00 -1.4513829e-05 0.0000000e+00 
0.0000000e+00 -2.3042337e-05 0.0000000e+00 
0.0000000e+00 -3.2468583e-05 0.0000000e+00 
0.0000000e+00 -4.2792566e-05 0.0000000e+00 
0.0000000e+00 -2.5510717e-05 0.0000000e+00 
0.0000000e+00 -1.1146315e-05 0.0000000e+00 
0.0000000e+00 3.0064118e-07 0.0000000e+00 
0.0000000e+00 8.8301513e-06 0.0000000e+00 
0.0000000e+00 1.4442217e-05 0.0000000e+00 
0.0000000e+00 1.7136836e-05 0.0000000e+00 
0.0000000e+00 1.6914008e-05 0.0000000e+00 
0.0000000e+00 1.3773735e-05 0.0000000e+00 
0.0000000e+00 7.7160166e-06 0.0000000e+00 
0.0000000e+00 -1.2591472e-06 0.0000000e+00 
0.0000000e+00 -1.3151757e-05 0.0000000e+00 
0.0000000e+00 -2.7961813e-05 0.0000000e+00 
0.0000000e+00 -1.4706837e-05 0.0000000e+00 
0.0000000e+00 -3.9029883e-06 0.0000000e+00 
0.0000000e+00 4.4497338e-06 0.0000000e+00 
0.0000000e+00 1.0351328e-05 0.0000000e+00 
0.0000000e+00 1.3801796e-05 0.0000000e+00 
0.0000000e+00 1.4801136e-05 0.0000000e+00 
0.0000000e+00 1.3349350e-05 0.0000000e+00 
0.0000000e+00 9.4464349e-06 0.0000000e+00 
0.0000000e+00 3.0923943e-06 0.0000000e+00 
0.0000000e+00 -5.7127741e-06 0.0000000e+00 
0.0000000e+00 -1.6969068e-05 0.0000000e+00 
0.0000000e+00 -3.0676492e-05 0.0000000e+00 
0.0000000e+00 -1.6397695e-05 0.0000000e+00 
0.0000000e+00 -4.7415247e-06 0.0000000e+00 
0.0000000e+00 4.2920201e-06 0.0000000e+00 
0.0000000e+00 1.0702940e-05 0.0000000e+00 
0.0000000e+00 1.4491234e-05 0.0000000e+00 
0.0000000e+00 1.5656902e-05 0.0000000e+00 
0.0000000e+00 1.4199944e-05 0.0000000e+00 
0.0000000e+00 1.0120361e-05 0.0000000e+00 
0.0000000e+00 3.4181523e-06 0.0000000e+00 
0.0000000e+00 -5.9066820e-06 0.0000000e+00 
0.0000000e+00 -1.7854141e-05 0.0000000e+00 
0.0000000e+00 -3.2424228e-05 0.0000000e+00 
0.0000000e+00 -1.9058778e-05 0.0000000e+00 
0.0000000e+00 -7.9545343e-06 0.0000000e+00 
0.0000000e+00 8.8850362e-07 0.0000000e+00 
0.0000000e+00 7.4703362e-06 0.0000000e+00 
0.0000000e+00 1.1790963e-05 0.0000000e+00 
0.0000000e+00 1.3850384e-05 0.0000000e+00 
0.0000000e+00 1.3648600e-05 0.0000000e+00 
0.0000000e+00 1.1185610e-05 0.0000000e+00 
0.0000000e+00 6.4614137e-06 0.0000000e+00 
0.0000000e+00 -5.2398775e-07 0.0000000e+00 
0.0000000e+00 -9.7705952e-06 0.0000000e+00 
0.0000000e+00 -2.1278407e-05 0.0000000e+00 
0.0000000e+00 -4.5172756e-06 0.0000000e+00 
0.0000000e+00 8.4304129e-06 0.0000000e+00 
0.0000000e+00 1.7564658e-05 0.0000000e+00 
0.0000000e+00 2.2885461e-05 0.0000000e+00 