# vtk DataFile Version 4.0
vtk output
ASCII
DATASET UNSTRUCTURED_GRID
POINTS 212 float
0.0000000e+00 0.0000000e+00 0.0000000e+00 
0.0000000e+00 0.0000000e+00 2.5000000e-01 
0.0000000e+00 0.0000000e+00 5.0000000e-01 
0.0000000e+00 0.0000000e+00 7.5000000e-01 
0.0000000e+00 0.0000000e+00 1.0000000e+00 
0.0000000e+00 0.0000000e+00 1.2500000e+00 
0.0000000e+00 0.0000000e+00 1.5000000e+00 
0.0000000e+00 0.0000000e+00 1.7500000e+00 
0.0000000e+00 0.0000000e+00 2.0000000e+00 
0.0000000e+00 0.0000000e+00 2.2500000e+00 
0.0000000e+00 0.0000000e+00 2.5000000e+00 
0.0000000e+00 0.0000000e+00 2.7500000e+00 
0.0000000e+00 0.0000000e+00 3.0000000e+00 
0.0000000e+00 0.0000000e+00 3.2500000e+00 
0.0000000e+00 0.0000000e+00 3.5000000e+00 
0.0000000e+00 0.0000000e+00 3.7500000e+00 
0.0000000e+00 0.0000000e+00 4.0000000e+00 
0.0000000e+00 0.0000000e+00 4.2500000e+00 
0.0000000e+00 0.0000000e+00 4.5000000e+00 
0.0000000e+00 0.0000000e+00 4.7500000e+00 
0.0000000e+00 0.0000000e+00 5.0000000e+00 
0.0000000e+00 0.0000000e+00 5.2500000e+00 
0.0000000e+00 0.0000000e+00 5.5000000e+00 
0.0000000e+00 0.0000000e+00 5.7500000e+00 
0.0000000e+00 0.0000000e+00 6.0000000e+00 
0.0000000e+00 0.0000000e+00 6.2500000e+00 
0.0000000e+00 0.0000000e+00 6.5000000e+00 
0.0000000e+00 0.0000000e+00 6.7500000e+00 
0.0000000e+00 0.0000000e+00 7.0000000e+00 
0.0000000e+00 0.0000000e+00 7.2500000e+00 
0.0000000e+00 0.0000000e+00 7.5000000e+00 
0.0000000e+00 0.0000000e+00 7.7500000e+00 
0.0000000e+00 0.0000000e+00 8.0000000e+00 
0.0000000e+00 0.0000000e+00 8.2500000e+00 
0.0000000e+00 0.0000000e+00 8.5000000e+00 
0.0000000e+00 0.0000000e+00 8.7500000e+00 
0.0000000e+00 0.0000000e+00 9.0000000e+00 
0.0000000e+00 0.0000000e+00 9.2500000e+00 
0.0000000e+00 0.0000000e+00 9.5000000e+00 
0.0000000e+00 0.0000000e+00 9.7500000e+00 
0.0000000e+00 0.0000000e+00 1.0000000e+01 
0.0000000e+00 0.0000000e+00 1.0250000e+01 
0.0000000e+00 0.0000000e+00 1.0500000e+01 
0.0000000e+00 0.0000000e+00 1.0750000e+01 
0.0000000e+00 0.0000000e+00 1.1000000e+01 
0.0000000e+00 0.0000000e+00 1.1250000e+01 
0.0000000e+00 0.0000000e+00 1.1500000e+01 
0.0000000e+00 0.0000000e+00 1.1750000e+01 
0.0000000e+00 0.0000000e+00 1.2000000e+01 
0.0000000e+00 0.0000000e+00 1.2250000e+01 
0.0000000e+00 0.0000000e+00 1.2500000e+01 
0.0000000e+00 0.0000000e+00 1.2750000e+01 
0.0000000e+00 0.0000000e+00 1.3000000e+01 
0.0000000e+00 0.0000000e+00 1.3250000e+01 
0.0000000e+00 0.0000000e+00 1.3500000e+01 
0.0000000e+00 0.0000000e+00 1.3750000e+01 
0.0000000e+00 0.0000000e+00 1.4000000e+01 
0.0000000e+00 0.0000000e+00 1.4250000e+01 
0.0000000e+00 0.0000000e+00 1.4500000e+01 
0.0000000e+00 0.0000000e+00 1.4750000e+01 
0.0000000e+00 0.0000000e+00 1.5000000e+01 
0.0000000e+00 0.0000000e+00 1.5250000e+01 
0.0000000e+00 0.0000000e+00 1.5500000e+01 
0.0000000e+00 0.0000000e+00 1.5750000e+01 
0.0000000e+00 0.0000000e+00 1.6000000e+01 
0.0000000e+00 0.0000000e+00 1.6250000e+01 
0.0000000e+00 0.0000000e+00 1.6500000e+01 
0.0000000e+00 0.0000000e+00 1.6750000e+01 
0.0000000e+00 0.0000000e+00 1.7000000e+01 
0.0000000e+00 0.0000000e+00 1.7250000e+01 
0.0000000e+00 0.0000000e+00 1.7500000e+01 
0.0000000e+00 0.0000000e+00 1.7750000e+01 
0.0000000e+00 0.0000000e+00 1.8000000e+01 
5.0000000e-01 0.0000000e+00 3.0000000e+00 
5.0000000e-01 0.0000000e+00 6.0000000e+00 
5.0000000e-01 0.0000000e+00 9.0000000e+00 
5.0000000e-01 0.0000000e+00 1.2000000e+01 
5.0000000e-01 0.0000000e+00 1.5000000e+01 
5.0000000e-01 0.0000000e+00 1.8000000e+01 
1.0000000e+00 0.0000000e+00 3.0000000e+00 
1.0000000e+00 0.0000000e+00 6.0000000e+00 
1.0000000e+00 0.0000000e+00 9.0000000e+00 
1.0000000e+00 0.0000000e+00 1.2000000e+01 
1.0000000e+00 0.0000000e+00 1.5000000e+01 
1.0000000e+00 0.0000000e+00 1.8000000e+01 
1.5000000e+00 0.0000000e+00 3.0000000e+00 
1.5000000e+00 0.0000000e+00 6.0000000e+00 
1.5000000e+00 0.0000000e+00 9.0000000e+00 
1.5000000e+00 0.0000000e+00 1.2000000e+01 
1.5000000e+00 0.0000000e+00 1.5000000e+01 
1.5000000e+00 0.0000000e+00 1.8000000e+01 
2.0000000e+00 0.0000000e+00 3.0000000e+00 
2.0000000e+00 0.0000000e+00 6.0000000e+00 
2.0000000e+00 0.0000000e+00 9.0000000e+00 
2.0000000e+00 0.0000000e+00 1.2000000e+01 
2.0000000e+00 0.0000000e+00 1.5000000e+01 
2.0000000e+00 0.0000000e+00 1.8000000e+01 
2.5000000e+00 0.0000000e+00 3.0000000e+00 
2.5000000e+00 0.0000000e+00 6.0000000e+00 
2.5000000e+00 0.0000000e+00 9.0000000e+00 
2.5000000e+00 0.0000000e+00 1.2000000e+01 
2.5000000e+00 0.0000000e+00 1.5000000e+01 
2.5000000e+00 0.0000000e+00 1.8000000e+01 
3.0000000e+00 0.0000000e+00 3.0000000e+00 
3.0000000e+00 0.0000000e+00 6.0000000e+00 
3.0000000e+00 0.0000000e+00 9.0000000e+00 
3.0000000e+00 0.0000000e+00 1.2000000e+01 
3.0000000e+00 0.0000000e+00 1.5000000e+01 
3.0000000e+00 0.0000000e+00 1.8000000e+01 
3.5000000e+00 0.0000000e+00 3.0000000e+00 
3.5000000e+00 0.0000000e+00 6.0000000e+00 
3.5000000e+00 0.0000000e+00 9.0000000e+00 
3.5000000e+00 0.0000000e+00 1.2000000e+01 
3.5000000e+00 0.0000000e+00 1.5000000e+01 
3.5000000e+00 0.0000000e+00 1.8000000e+01 
4.0000000e+00 0.0000000e+00 3.0000000e+00 
4.0000000e+00 0.0000000e+00 6.0000000e+00 
4.0000000e+00 0.0000000e+00 9.0000000e+00 
4.0000000e+00 0.0000000e+00 1.2000000e+01 
4.0000000e+00 0.0000000e+00 1.5000000e+01 
4.0000000e+00 0.0000000e+00 1.8000000e+01 
4.5000000e+00 0.0000000e+00 3.0000000e+00 
4.5000000e+00 0.0000000e+00 6.0000000e+00 
4.5000000e+00 0.0000000e+00 9.0000000e+00 
4.5000000e+00 0.0000000e+00 1.2000000e+01 
4.5000000e+00 0.0000000e+00 1.5000000e+01 
4.5000000e+00 0.0000000e+00 1.8000000e+01 
5.0000000e+00 0.0000000e+00 3.0000000e+00 
5.0000000e+00 0.0000000e+00 6.0000000e+00 
5.0000000e+00 0.0000000e+00 9.0000000e+00 
5.0000000e+00 0.0000000e+00 1.2000000e+01 
5.0000000e+00 0.0000000e+00 1.5000000e+01 
5.0000000e+00 0.0000000e+00 1.8000000e+01 
5.5000000e+00 0.0000000e+00 3.0000000e+00 
5.5000000e+00 0.0000000e+00 6.0000000e+00 
5.5000000e+00 0.0000000e+00 9.0000000e+00 
5.5000000e+00 0.0000000e+00 1.2000000e+01 
5.5000000e+00 0.0000000e+00 1.5000000e+01 
5.5000000e+00 0.0000000e+00 1.8000000e+01 
6.0000000e+00 0.0000000e+00 0.0000000e+00 
6.0000000e+00 0.0000000e+00 2.5000000e-01 
6.0000000e+00 0.0000000e+00 5.0000000e-01 
6.0000000e+00 0.0000000e+00 7.5000000e-01 
6.0000000e+00 0.0000000e+00 1.0000000e+00 
6.0000000e+00 0.0000000e+00 1.2500000e+00 
6.0000000e+00 0.0000000e+00 1.5000000e+00 
6.0000000e+00 0.0000000e+00 1.7500000e+00 
6.0000000e+00 0.0000000e+00 2.0000000e+00 
6.0000000e+00 0.0000000e+00 2.2500000e+00 
6.0000000e+00 0.0000000e+00 2.5000000e+00 
6.0000000e+00 0.0000000e+00 2.7500000e+00 
6.0000000e+00 0.0000000e+00 3.0000000e+00 
6.0000000e+00 0.0000000e+00 3.2500000e+00 
6.0000000e+00 0.0000000e+00 3.5000000e+00 
6.0000000e+00 0.0000000e+00 3.7500000e+00 
6.0000000e+00 0.0000000e+00 4.0000000e+00 
6.0000000e+00 0.0000000e+00 4.2500000e+00 
6.0000000e+00 0.0000000e+00 4.5000000e+00 
6.0000000e+00 0.0000000e+00 4.7500000e+00 
6.0000000e+00 0.0000000e+00 5.0000000e+00 
6.0000000e+00 0.0000000e+00 5.2500000e+00 
6.0000000e+00 0.0000000e+00 5.5000000e+00 
6.0000000e+00 0.0000000e+00 5.7500000e+00 
6.0000000e+00 0.0000000e+00 6.0000000e+00 
6.0000000e+00 0.0000000e+00 6.2500000e+00 
6.0000000e+00 0.0000000e+00 6.5000000e+00 
6.0000000e+00 0.0000000e+00 6.7500000e+00 
6.0000000e+00 0.0000000e+00 7.0000000e+00 
6.0000000e+00 0.0000000e+00 7.2500000e+00 
6.0000000e+00 0.0000000e+00 7.5000000e+00 
6.0000000e+00 0.0000000e+00 7.7500000e+00 
6.0000000e+00 0.0000000e+00 8.0000000e+00 
6.0000000e+00 0.0000000e+00 8.2500000e+00 
6.0000000e+00 0.0000000e+00 8.5000000e+00 
6.0000000e+00 0.0000000e+00 8.7500000e+00 
6.0000000e+00 0.0000000e+00 9.0000000e+00 
6.0000000e+00 0.0000000e+00 9.2500000e+00 
6.0000000e+00 0.0000000e+00 9.5000000e+00 
6.0000000e+00 0.0000000e+00 9.7500000e+00 
6.0000000e+00 0.0000000e+00 1.0000000e+01 
6.0000000e+00 0.0000000e+00 1.0250000e+01 
6.0000000e+00 0.0000000e+00 1.0500000e+01 
6.0000000e+00 0.0000000e+00 1.0750000e+01 
6.0000000e+00 0.0000000e+00 1.1000000e+01 
6.0000000e+00 0.0000000e+00 1.1250000e+01 
6.0000000e+00 0.0000000e+00 1.1500000e+01 
6.0000000e+00 0.0000000e+00 1.1750000e+01 
6.0000000e+00 0.0000000e+00 1.2000000e+01 
6.0000000e+00 0.0000000e+00 1.2250000e+01 
6.0000000e+00 0.0000000e+00 1.2500000e+01 
6.0000000e+00 0.0000000e+00 1.2750000e+01 
6.0000000e+00 0.0000000e+00 1.3000000e+01 
6.0000000e+00 0.0000000e+00 1.3250000e+01 
6.0000000e+00 0.0000000e+00 1.3500000e+01 
6.0000000e+00 0.0000000e+00 1.3750000e+01 
6.0000000e+00 0.0000000e+00 1.4000000e+01 
6.0000000e+00 0.0000000e+00 1.4250000e+01 
6.0000000e+00 0.0000000e+00 1.4500000e+01 
6.0000000e+00 0.0000000e+00 1.4750000e+01 
6.0000000e+00 0.0000000e+00 1.5000000e+01 
6.0000000e+00 0.0000000e+00 1.5250000e+01 
6.0000000e+00 0.0000000e+00 1.5500000e+01 
6.0000000e+00 0.0000000e+00 1.5750000e+01 
6.0000000e+00 0.0000000e+00 1.6000000e+01 
6.0000000e+00 0.0000000e+00 1.6250000e+01 
6.0000000e+00 0.0000000e+00 1.6500000e+01 
6.0000000e+00 0.0000000e+00 1.6750000e+01 
6.0000000e+00 0.0000000e+00 1.7000000e+01 
6.0000000e+00 0.0000000e+00 1.7250000e+01 
6.0000000e+00 0.0000000e+00 1.7500000e+01 
6.0000000e+00 0.0000000e+00 1.7750000e+01 
6.0000000e+00 0.0000000e+00 1.8000000e+01 

CELLS 216 648
2 0 1
2 1 2
2 2 3
2 3 4
2 4 5
2 5 6
2 6 7
2 7 8
2 8 9
2 9 10
2 10 11
2 11 12
2 12 13
2 13 14
2 14 15
2 15 16
2 16 17
2 17 18
2 18 19
2 19 20
2 20 21
2 21 22
2 22 23
2 23 24
2 24 25
2 25 26
2 26 27
2 27 28
2 28 29
2 29 30
2 30 31
2 31 32
2 32 33
2 33 34
2 34 35
2 35 36
2 36 37
2 37 38
2 38 39
2 39 40
2 40 41
2 41 42
2 42 43
2 43 44
2 44 45
2 45 46
2 46 47
2 47 48
2 48 49
2 49 50
2 50 51
2 51 52
2 52 53
2 53 54
2 54 55
2 55 56
2 56 57
2 57 58
2 58 59
2 59 60
2 60 61
2 61 62
2 62 63
2 63 64
2 64 65
2 65 66
2 66 67
2 67 68
2 68 69
2 69 70
2 70 71
2 71 72
2 139 140
2 140 141
2 141 142
2 142 143
2 143 144
2 144 145
2 145 146
2 146 147
2 147 148
2 148 149
2 149 150
2 150 151
2 151 152
2 152 153
2 153 154
2 154 155
2 155 156
2 156 157
2 157 158
2 158 159
2 159 160
2 160 161
2 161 162
2 162 163
2 163 164
2 164 165
2 165 166
2 166 167
2 167 168
2 168 169
2 169 170
2 170 171
2 171 172
2 172 173
2 173 174
2 174 175
2 175 176
2 176 177
2 177 178
2 178 179
2 179 180
2 180 181
2 181 182
2 182 183
2 183 184
2 184 185
2 185 186
2 186 187
2 187 188
2 188 189
2 189 190
2 190 191
2 191 192
2 192 193
2 193 194
2 194 195
2 195 196
2 196 197
2 197 198
2 198 199
2 199 200
2 200 201
2 201 202
2 202 203
2 203 204
2 204 205
2 205 206
2 206 207
2 207 208
2 208 209
2 209 210
2 210 211
2 12 73
2 73 79
2 79 85
2 85 91
2 91 97
2 97 103
2 103 109
2 109 115
2 115 121
2 121 127
2 127 133
2 133 151
2 24 74
2 74 80
2 80 86
2 86 92
2 92 98
2 98 104
2 104 110
2 110 116
2 116 122
2 122 128
2 128 134
2 134 163
2 36 75
2 75 81
2 81 87
2 87 93
2 93 99
2 99 105
2 105 111
2 111 117
2 117 123
2 123 129
2 129 135
2 135 175
2 48 76
2 76 82
2 82 88
2 88 94
2 94 100
2 100 106
2 106 112
2 112 118
2 118 124
2 124 130
2 130 136
2 136 187
2 60 77
2 77 83
2 83 89
2 89 95
2 95 101
2 101 107
2 107 113
2 113 119
2 119 125
2 125 131
2 131 137
2 137 199
2 72 78
2 78 84
2 84 90
2 90 96
2 96 102
2 102 108
2 108 114
2 114 120
2 120 126
2 126 132
2 132 138
2 138 211

CELL_TYPES 216
3
3
3
3
3
3
3
3
3
3
3
3
3
3
3
3
3
3
3
3
3
3
3
3
3
3
3
3
3
3
3
3
3
3
3
3
3
3
3
3
3
3
3
3
3
3
3
3
3
3
3
3
3
3
3
3
3
3
3
3
3
3
3
3
3
3
3
3
3
3
3
3
3
3
3
3
3
3
3
3
3
3
3
3
3
3
3
3
3
3
3
3
3
3
3
3
3
3
3
3
3
3
3
3
3
3
3
3
3
3
3
3
3
3
3
3
3
3
3
3
3
3
3
3
3
3
3
3
3
3
3
3
3
3
3
3
3
3
3
3
3
3
3
3
3
3
3
3
3
3
3
3
3
3
3
3
3
3
3
3
3
3
3
3
3
3
3
3
3
3
3
3
3
3
3
3
3
3
3
3
3
3
3
3
3
3
3
3
3
3
3
3
3
3
3
3
3
3
3
3
3
3
3
3
3
3
3
3
3
3
3
3
3
3
3
3
POINT_DATA 212
FIELD FieldData 8
DISPLACEMENT 3 212  float
0.0000000e+00 0.0000000e+00 0.0000000e+00 
-3.2150417e-04 0.0000000e+00 -2.5805548e-05 
-6.2954111e-04 0.0000000e+00 -5.1432242e-05 
-9.1064372e-04 0.0000000e+00 -7.6880089e-05 
-1.1513447e-03 0.0000000e+00 -1.0214908e-04 
-1.3381771e-03 0.0000000e+00 -1.2723921e-04 
-1.4576735e-03 0.0000000e+00 -1.5215050e-04 
-1.4963667e-03 0.0000000e+00 -1.7688294e-04 
-1.4407897e-03 0.0000000e+00 -2.0143652e-04 
-1.2774752e-03 0.0000000e+00 -2.2581125e-04 
-9.9295599e-04 0.0000000e+00 -2.5000711e-04 
-5.7376502e-04 0.0000000e+00 -2.7402415e-04 
-6.4349351e-06 0.0000000e+00 -2.9786231e-04 
5.0428545e-04 0.0000000e+00 -3.1935205e-04 
7.7426917e-04 0.0000000e+00 -3.4066290e-04 
8.4791612e-04 0.0000000e+00 -3.6179493e-04 
7.6962612e-04 0.0000000e+00 -3.8274808e-04 
5.8379909e-04 0.0000000e+00 -4.0352240e-04 
3.3483480e-04 0.0000000e+00 -4.2411784e-04 
6.7133144e-05 0.0000000e+00 -4.4453447e-04 
-1.7490600e-04 0.0000000e+00 -4.6477219e-04 
-3.4688279e-04 0.0000000e+00 -4.8483111e-04 
-4.0439740e-04 0.0000000e+00 -5.0471118e-04 
-3.0304995e-04 0.0000000e+00 -5.2441237e-04 
1.5594337e-06 0.0000000e+00 -5.4393470e-04 
3.1984117e-04 0.0000000e+00 -5.6110858e-04 
4.5720828e-04 0.0000000e+00 -5.7810365e-04 
4.5056440e-04 0.0000000e+00 -5.9491978e-04 
3.3681325e-04 0.0000000e+00 -6.1155716e-04 
1.5285847e-04 0.0000000e+00 -6.2801561e-04 
-6.4396256e-05 0.0000000e+00 -6.4429524e-04 
-2.7804726e-04 0.0000000e+00 -6.6039601e-04 
-4.5119086e-04 0.0000000e+00 -6.7631796e-04 
-5.4692343e-04 0.0000000e+00 -6.9206103e-04 
-5.2834122e-04 0.0000000e+00 -7.0762524e-04 
-3.5854059e-04 0.0000000e+00 -7.2301063e-04 
-6.1789848e-07 0.0000000e+00 -7.3821715e-04 
3.5188743e-04 0.0000000e+00 -7.5107516e-04 
5.0741603e-04 0.0000000e+00 -7.6375436e-04 
5.0584186e-04 0.0000000e+00 -7.7625475e-04 
3.8703883e-04 0.0000000e+00 -7.8857626e-04 
1.9088079e-04 0.0000000e+00 -8.0071890e-04 
-4.2758322e-05 0.0000000e+00 -8.1268267e-04 
-2.7400459e-04 0.0000000e+00 -8.2446763e-04 
-4.6298414e-04 0.0000000e+00 -8.3607377e-04 
-5.6982308e-04 0.0000000e+00 -8.4750098e-04 
-5.5464741e-04 0.0000000e+00 -8.5874938e-04 
-3.7758335e-04 0.0000000e+00 -8.6981890e-04 
1.2430711e-06 0.0000000e+00 -8.8070962e-04 
3.9096808e-04 0.0000000e+00 -8.8925182e-04 
5.9674430e-04 0.0000000e+00 -8.9761522e-04 
6.5247016e-04 0.0000000e+00 -9.0579974e-04 
5.9204421e-04 0.0000000e+00 -9.1380539e-04 
4.4936489e-04 0.0000000e+00 -9.2163222e-04 
2.5833063e-04 0.0000000e+00 -9.2928018e-04 
5.2839958e-05 0.0000000e+00 -9.3674933e-04 
-1.3320868e-04 0.0000000e+00 -9.4403961e-04 
-2.6591678e-04 0.0000000e+00 -9.5115101e-04 
-3.1138590e-04 0.0000000e+00 -9.5808355e-04 
-2.3571757e-04 0.0000000e+00 -9.6483727e-04 
-5.0132840e-06 0.0000000e+00 -9.7141211e-04 
1.8167190e-04 0.0000000e+00 -9.7563851e-04 
1.4134882e-04 0.0000000e+00 -9.7968604e-04 
-6.7985238e-05 0.0000000e+00 -9.8355475e-04 
-3.8833302e-04 0.0000000e+00 -9.8724465e-04 
-7.6169719e-04 0.0000000e+00 -9.9075562e-04 
-1.1300805e-03 0.0000000e+00 -9.9408778e-04 
-1.4354857e-03 0.0000000e+00 -9.9724100e-04 
-1.6199155e-03 0.0000000e+00 -1.0002155e-03 
-1.6253726e-03 0.0000000e+00 -1.0030111e-03 
-1.3938596e-03 0.0000000e+00 -1.0056278e-03 
-8.6737954e-04 0.0000000e+00 -1.0080657e-03 
1.2065196e-05 0.0000000e+00 -1.0103247e-03 
-5.3624458e-06 0.0000000e+00 -2.3232847e-03 
1.2995281e-06 0.0000000e+00 -2.1571352e-03 
-5.1491543e-07 0.0000000e+00 -2.4306995e-03 
1.0358925e-06 0.0000000e+00 -2.6258342e-03 
-4.1777366e-06 0.0000000e+00 -2.3984951e-03 
1.0054330e-05 0.0000000e+00 -3.8229269e-03 
-4.2899565e-06 0.0000000e+00 -5.2319593e-03 
1.0396225e-06 0.0000000e+00 -4.7285371e-03 
-4.1193232e-07 0.0000000e+00 -5.0669680e-03 
8.2871406e-07 0.0000000e+00 -5.3051738e-03 
-3.3421891e-06 0.0000000e+00 -4.8176190e-03 
8.0434638e-06 0.0000000e+00 -7.3756571e-03 
-3.2174676e-06 0.0000000e+00 -8.2729794e-03 
7.7971686e-07 0.0000000e+00 -7.5072339e-03 
-3.0894924e-07 0.0000000e+00 -7.8961169e-03 
6.2153555e-07 0.0000000e+00 -8.1678228e-03 
-2.5066420e-06 0.0000000e+00 -7.4778777e-03 
6.0325979e-06 0.0000000e+00 -1.0917610e-02 
-2.1449782e-06 0.0000000e+00 -1.0862307e-02 
5.1981124e-07 0.0000000e+00 -9.9091874e-03 
-2.0596616e-07 0.0000000e+00 -1.0334108e-02 
4.1435703e-07 0.0000000e+00 -1.0629741e-02 
-1.6710945e-06 0.0000000e+00 -9.7952327e-03 
4.0217319e-06 0.0000000e+00 -1.3864746e-02 
-1.0724891e-06 0.0000000e+00 -1.2582771e-02 
2.5990562e-07 0.0000000e+00 -1.1517228e-02 
-1.0298308e-07 0.0000000e+00 -1.1963771e-02 
2.0717852e-07 0.0000000e+00 -1.2273761e-02 
-8.3554727e-07 0.0000000e+00 -1.1352514e-02 
2.0108660e-06 0.0000000e+00 -1.5799897e-02 
-2.0958708e-15 0.0000000e+00 -1.3184071e-02 
-1.9566501e-15 0.0000000e+00 -1.2081052e-02 
-1.1396938e-15 0.0000000e+00 -1.2534803e-02 
-3.6212593e-16 0.0000000e+00 -1.2849580e-02 
6.3890419e-16 0.0000000e+00 -1.1899419e-02 
7.8864961e-16 0.0000000e+00 -1.6472757e-02 
1.0724891e-06 0.0000000e+00 -1.2582771e-02 
-2.5990562e-07 0.0000000e+00 -1.1517228e-02 
1.0298308e-07 0.0000000e+00 -1.1963771e-02 
-2.0717852e-07 0.0000000e+00 -1.2273761e-02 
8.3554727e-07 0.0000000e+00 -1.1352514e-02 
-2.0108660e-06 0.0000000e+00 -1.5799897e-02 
2.1449782e-06 0.0000000e+00 -1.0862307e-02 
-5.1981124e-07 0.0000000e+00 -9.9091874e-03 
2.0596616e-07 0.0000000e+00 -1.0334108e-02 
-4.1435703e-07 0.0000000e+00 -1.0629741e-02 
1.6710945e-06 0.0000000e+00 -9.7952327e-03 
-4.0217319e-06 0.0000000e+00 -1.3864746e-02 
3.2174676e-06 0.0000000e+00 -8.2729794e-03 
-7.7971686e-07 0.0000000e+00 -7.5072339e-03 
3.0894924e-07 0.0000000e+00 -7.8961169e-03 
-6.2153555e-07 0.0000000e+00 -8.1678228e-03 
2.5066420e-06 0.0000000e+00 -7.4778777e-03 
-6.0325979e-06 0.0000000e+00 -1.0917610e-02 
4.2899565e-06 0.0000000e+00 -5.2319593e-03 
-1.0396225e-06 0.0000000e+00 -4.7285371e-03 
4.1193232e-07 0.0000000e+00 -5.0669680e-03 
-8.2871406e-07 0.0000000e+00 -5.3051738e-03 
3.3421891e-06 0.0000000e+00 -4.8176190e-03 
-8.0434638e-06 0.0000000e+00 -7.3756571e-03 
5.3624458e-06 0.0000000e+00 -2.3232847e-03 
-1.2995281e-06 0.0000000e+00 -2.1571352e-03 
5.1491543e-07 0.0000000e+00 -2.4306995e-03 
-1.0358925e-06 0.0000000e+00 -2.6258342e-03 
4.1777366e-06 0.0000000e+00 -2.3984951e-03 
-1.0054330e-05 0.0000000e+00 -3.8229269e-03 
0.0000000e+00 0.0000000e+00 0.0000000e+00 
3.2150417e-04 0.0000000e+00 -2.5805548e-05 
6.2954111e-04 0.0000000e+00 -5.1432242e-05 
9.1064372e-04 0.0000000e+00 -7.6880089e-05 
1.1513447e-03 0.0000000e+00 -1.0214908e-04 
1.3381771e-03 0.0000000e+00 -1.2723921e-04 
1.4576735e-03 0.0000000e+00 -1.5215050e-04 
1.4963667e-03 0.0000000e+00 -1.7688294e-04 
1.4407897e-03 0.0000000e+00 -2.0143652e-04 
1.2774752e-03 0.0000000e+00 -2.2581125e-04 
9.9295599e-04 0.0000000e+00 -2.5000711e-04 
5.7376502e-04 0.0000000e+00 -2.7402415e-04 
6.4349351e-06 0.0000000e+00 -2.9786231e-04 
-5.0428545e-04 0.0000000e+00 -3.1935205e-04 
-7.7426917e-04 0.0000000e+00 -3.4066290e-04 
-8.4791612e-04 0.0000000e+00 -3.6179493e-04 
-7.6962612e-04 0.0000000e+00 -3.8274808e-04 
-5.8379909e-04 0.0000000e+00 -4.0352240e-04 
-3.3483480e-04 0.0000000e+00 -4.2411784e-04 
-6.7133144e-05 0.0000000e+00 -4.4453447e-04 
1.7490600e-04 0.0000000e+00 -4.6477219e-04 
3.4688279e-04 0.0000000e+00 -4.8483111e-04 
4.0439740e-04 0.0000000e+00 -5.0471118e-04 
3.0304995e-04 0.0000000e+00 -5.2441237e-04 
-1.5594337e-06 0.0000000e+00 -5.4393470e-04 
-3.1984117e-04 0.0000000e+00 -5.6110858e-04 
-4.5720828e-04 0.0000000e+00 -5.7810365e-04 
-4.5056440e-04 0.0000000e+00 -5.9491978e-04 
-3.3681325e-04 0.0000000e+00 -6.1155716e-04 
-1.5285847e-04 0.0000000e+00 -6.2801561e-04 
6.4396256e-05 0.0000000e+00 -6.4429524e-04 
2.7804726e-04 0.0000000e+00 -6.6039601e-04 
4.5119086e-04 0.0000000e+00 -6.7631796e-04 
5.4692343e-04 0.0000000e+00 -6.9206103e-04 
5.2834122e-04 0.0000000e+00 -7.0762524e-04 
3.5854059e-04 0.0000000e+00 -7.2301063e-04 
6.1789848e-07 0.0000000e+00 -7.3821715e-04 
-3.5188743e-04 0.0000000e+00 -7.5107516e-04 
-5.0741603e-04 0.0000000e+00 -7.6375436e-04 
-5.0584186e-04 0.0000000e+00 -7.7625475e-04 
-3.8703883e-04 0.0000000e+00 -7.8857626e-04 
-1.9088079e-04 0.0000000e+00 -8.0071890e-04 
4.2758322e-05 0.0000000e+00 -8.1268267e-04 
2.7400459e-04 0.0000000e+00 -8.2446763e-04 
4.6298414e-04 0.0000000e+00 -8.3607377e-04 
5.6982308e-04 0.0000000e+00 -8.4750098e-04 
5.5464741e-04 0.0000000e+00 -8.5874938e-04 
3.7758335e-04 0.0000000e+00 -8.6981890e-04 
-1.2430711e-06 0.0000000e+00 -8.8070962e-04 
-3.9096808e-04 0.0000000e+00 -8.8925182e-04 
-5.9674430e-04 0.0000000e+00 -8.9761522e-04 
-6.5247016e-04 0.0000000e+00 -9.0579974e-04 
-5.9204421e-04 0.0000000e+00 -9.1380539e-04 
-4.4936489e-04 0.0000000e+00 -9.2163222e-04 
-2.5833063e-04 0.0000000e+00 -9.2928018e-04 
-5.2839958e-05 0.0000000e+00 -9.3674933e-04 
1.3320868e-04 0.0000000e+00 -9.4403961e-04 
2.6591678e-04 0.0000000e+00 -9.5115101e-04 
3.1138590e-04 0.0000000e+00 -9.5808355e-04 
2.3571757e-04 0.0000000e+00 -9.6483727e-04 
5.0132840e-06 0.0000000e+00 -9.7141211e-04 
-1.8167190e-04 0.0000000e+00 -9.7563851e-04 
-1.4134882e-04 0.0000000e+00 -9.7968604e-04 
6.7985238e-05 0.0000000e+00 -9.8355475e-04 
3.8833302e-04 0.0000000e+00 -9.8724465e-04 
7.6169719e-04 0.0000000e+00 -9.9075562e-04 
1.1300805e-03 0.0000000e+00 -9.9408778e-04 
1.4354857e-03 0.0000000e+00 -9.9724100e-04 
1.6199155e-03 0.0000000e+00 -1.0002155e-03 
1.6253726e-03 0.0000000e+00 -1.0030111e-03 
1.3938596e-03 0.0000000e+00 -1.0056278e-03 
8.6737954e-04 0.0000000e+00 -1.0080657e-03 
-1.2065196e-05 0.0000000e+00 -1.0103247e-03 
ROTATION 3 212  float
0.0000000e+00 -1.2949947e-03 0.0000000e+00 
0.0000000e+00 -1.2680604e-03 0.0000000e+00 
0.0000000e+00 -1.1872572e-03 0.0000000e+00 
0.0000000e+00 -1.0525854e-03 0.0000000e+00 
0.0000000e+00 -8.6404482e-04 0.0000000e+00 
0.0000000e+00 -6.2163553e-04 0.0000000e+00 
0.0000000e+00 -3.2535743e-04 0.0000000e+00 
0.0000000e+00 2.4789391e-05 0.0000000e+00 
0.0000000e+00 4.2880495e-04 0.0000000e+00 
0.0000000e+00 8.8668923e-04 0.0000000e+00 
0.0000000e+00 1.3984423e-03 0.0000000e+00 
0.0000000e+00 1.9640641e-03 0.0000000e+00 
0.0000000e+00 2.5835545e-03 0.0000000e+00 
0.0000000e+00 1.5318083e-03 0.0000000e+00 
0.0000000e+00 6.5766147e-04 0.0000000e+00 
0.0000000e+00 -3.8885984e-05 0.0000000e+00 
0.0000000e+00 -5.5783399e-04 0.0000000e+00 
0.0000000e+00 -8.9918257e-04 0.0000000e+00 
0.0000000e+00 -1.0629317e-03 0.0000000e+00 
0.0000000e+00 -1.0490814e-03 0.0000000e+00 
0.0000000e+00 -8.5763179e-04 0.0000000e+00 
0.0000000e+00 -4.8858271e-04 0.0000000e+00 
0.0000000e+00 5.8065823e-05 0.0000000e+00 
0.0000000e+00 7.8231376e-04 0.0000000e+00 
0.0000000e+00 1.6841611e-03 0.0000000e+00 
0.0000000e+00 8.8669523e-04 0.0000000e+00 
0.0000000e+00 2.3684403e-04 0.0000000e+00 
0.0000000e+00 -2.6539250e-04 0.0000000e+00 
0.0000000e+00 -6.2001433e-04 0.0000000e+00 
0.0000000e+00 -8.2702149e-04 0.0000000e+00 
0.0000000e+00 -8.8641391e-04 0.0000000e+00 
0.0000000e+00 -7.9819170e-04 0.0000000e+00 
0.0000000e+00 -5.6235475e-04 0.0000000e+00 
0.0000000e+00 -1.7890312e-04 0.0000000e+00 
0.0000000e+00 3.5216319e-04 0.0000000e+00 
0.0000000e+00 1.0308442e-03 0.0000000e+00 
0.0000000e+00 1.8571399e-03 0.0000000e+00 
0.0000000e+00 9.8948530e-04 0.0000000e+00 
0.0000000e+00 2.8132630e-04 0.0000000e+00 
0.0000000e+00 -2.6733705e-04 0.0000000e+00 
0.0000000e+00 -6.5650477e-04 0.0000000e+00 
0.0000000e+00 -8.8617689e-04 0.0000000e+00 
0.0000000e+00 -9.5635338e-04 0.0000000e+00 
0.0000000e+00 -8.6703425e-04 0.0000000e+00 
0.0000000e+00 -6.1821955e-04 0.0000000e+00 
0.0000000e+00 -2.0990917e-04 0.0000000e+00 
0.0000000e+00 3.5789682e-04 0.0000000e+00 
0.0000000e+00 1.0851984e-03 0.0000000e+00 
0.0000000e+00 1.9719957e-03 0.0000000e+00 
0.0000000e+00 1.1684034e-03 0.0000000e+00 
0.0000000e+00 5.0040521e-04 0.0000000e+00 
0.0000000e+00 -3.1999138e-05 0.0000000e+00 
0.0000000e+00 -4.2880961e-04 0.0000000e+00 
0.0000000e+00 -6.9002615e-04 0.0000000e+00 
0.0000000e+00 -8.1564882e-04 0.0000000e+00 
0.0000000e+00 -8.0567761e-04 0.0000000e+00 
0.0000000e+00 -6.6011248e-04 0.0000000e+00 
0.0000000e+00 -3.7895347e-04 0.0000000e+00 
0.0000000e+00 3.7799462e-05 0.0000000e+00 
0.0000000e+00 5.9014629e-04 0.0000000e+00 
0.0000000e+00 1.2780870e-03 0.0000000e+00 
0.0000000e+00 2.5405936e-04 0.0000000e+00 
0.0000000e+00 -5.3797913e-04 0.0000000e+00 
0.0000000e+00 -1.0980285e-03 0.0000000e+00 
0.0000000e+00 -1.4260887e-03 0.0000000e+00 
0.0000000e+00 -1.5221599e-03 0.0000000e+00 
0.0000000e+00 -1.3862419e-03 0.0000000e+00 
0.0000000e+00 -1.0183348e-03 0.0000000e+00 
0.0000000e+00 -4.1843855e-04 0.0000000e+00 
0.0000000e+00 4.1344680e-04 0.0000000e+00 
0.0000000e+00 1.4773213e-03 0.0000000e+00 
0.0000000e+00 2.7731848e-03 0.0000000e+00 
0.0000000e+00 4.3010376e-03 0.0000000e+00 
0.0000000e+00 5.2122101e-03 0.0000000e+00 
0.0000000e+00 4.4627157e-03 0.0000000e+00 
0.0000000e+00 4.6068644e-03 0.0000000e+00 
0.0000000e+00 4.7025778e-03 0.0000000e+00 
0.0000000e+00 4.1243206e-03 0.0000000e+00 
0.0000000e+00 6.6434462e-03 0.0000000e+00 
0.0000000e+00 6.1721848e-03 0.0000000e+00 
0.0000000e+00 5.5725896e-03 0.0000000e+00 
0.0000000e+00 5.6879087e-03 0.0000000e+00 
0.0000000e+00 5.7644793e-03 0.0000000e+00 
0.0000000e+00 5.3018732e-03 0.0000000e+00 
0.0000000e+00 7.3171738e-03 0.0000000e+00 
0.0000000e+00 5.7972153e-03 0.0000000e+00 
0.0000000e+00 5.3475187e-03 0.0000000e+00 
0.0000000e+00 5.4340078e-03 0.0000000e+00 
0.0000000e+00 5.4914360e-03 0.0000000e+00 
0.0000000e+00 5.1444815e-03 0.0000000e+00 
0.0000000e+00 6.6559566e-03 0.0000000e+00 
0.0000000e+00 4.4210372e-03 0.0000000e+00 
0.0000000e+00 4.1212393e-03 0.0000000e+00 
0.0000000e+00 4.1788989e-03 0.0000000e+00 
0.0000000e+00 4.2171841e-03 0.0000000e+00 
0.0000000e+00 3.9858813e-03 0.0000000e+00 
0.0000000e+00 4.9935314e-03 0.0000000e+00 
0.0000000e+00 2.3773867e-03 0.0000000e+00 
0.0000000e+00 2.2274877e-03 0.0000000e+00 
0.0000000e+00 2.2563175e-03 0.0000000e+00 
0.0000000e+00 2.2754602e-03 0.0000000e+00 
0.0000000e+00 2.1598088e-03 0.0000000e+00 
0.0000000e+00 2.6636338e-03 0.0000000e+00 
0.0000000e+00 1.3339974e-16 0.0000000e+00 
0.0000000e+00 -9.7826475e-17 0.0000000e+00 
0.0000000e+00 -5.3359896e-17 0.0000000e+00 
0.0000000e+00 -8.0039842e-17 0.0000000e+00 
0.0000000e+00 -7.1146526e-17 0.0000000e+00 
0.0000000e+00 1.2378013e-16 0.0000000e+00 
0.0000000e+00 -2.3773867e-03 0.0000000e+00 
0.0000000e+00 -2.2274877e-03 0.0000000e+00 
0.0000000e+00 -2.2563175e-03 0.0000000e+00 
0.0000000e+00 -2.2754602e-03 0.0000000e+00 
0.0000000e+00 -2.1598088e-03 0.0000000e+00 
0.0000000e+00 -2.6636338e-03 0.0000000e+00 
0.0000000e+00 -4.4210372e-03 0.0000000e+00 
0.0000000e+00 -4.1212393e-03 0.0000000e+00 
0.0000000e+00 -4.1788989e-03 0.0000000e+00 
0.0000000e+00 -4.2171841e-03 0.0000000e+00 
0.0000000e+00 -3.9858813e-03 0.0000000e+00 
0.0000000e+00 -4.9935314e-03 0.0000000e+00 
0.0000000e+00 -5.7972153e-03 0.0000000e+00 
0.0000000e+00 -5.3475187e-03 0.0000000e+00 
0.0000000e+00 -5.4340078e-03 0.0000000e+00 
0.0000000e+00 -5.4914360e-03 0.0000000e+00 
0.0000000e+00 -5.1444815e-03 0.0000000e+00 
0.0000000e+00 -6.6559566e-03 0.0000000e+00 
0.0000000e+00 -6.1721848e-03 0.0000000e+00 
0.0000000e+00 -5.5725896e-03 0.0000000e+00 
0.0000000e+00 -5.6879087e-03 0.0000000e+00 
0.0000000e+00 -5.7644793e-03 0.0000000e+00 
0.0000000e+00 -5.3018732e-03 0.0000000e+00 
0.0000000e+00 -7.3171738e-03 0.0000000e+00 
0.0000000e+00 -5.2122101e-03 0.0000000e+00 
0.0000000e+00 -4.4627157e-03 0.0000000e+00 
0.0000000e+00 -4.6068644e-03 0.0000000e+00 
0.0000000e+00 -4.7025778e-03 0.0000000e+00 
0.0000000e+00 -4.1243206e-03 0.0000000e+00 
0.0000000e+00 -6.6434462e-03 0.0000000e+00 
0.0000000e+00 1.2949947e-03 0.0000000e+00 
0.0000000e+00 1.2680604e-03 0.0000000e+00 
0.0000000e+00 1.1872572e-03 0.0000000e+00 
0.0000000e+00 1.0525854e-03 0.0000000e+00 
0.0000000e+00 8.6404482e-04 0.0000000e+00 
0.0000000e+00 6.2163553e-04 0.0000000e+00 
0.0000000e+00 3.2535743e-04 0.0000000e+00 
0.0000000e+00 -2.4789391e-05 0.0000000e+00 
0.0000000e+00 -4.2880495e-04 0.0000000e+00 
0.0000000e+00 -8.8668923e-04 0.0000000e+00 
0.0000000e+00 -1.3984423e-03 0.0000000e+00 
0.0000000e+00 -1.9640641e-03 0.0000000e+00 
0.0000000e+00 -2.5835545e-03 0.0000000e+00 
0.0000000e+00 -1.5318083e-03 0.0000000e+00 
0.0000000e+00 -6.5766147e-04 0.0000000e+00 
0.0000000e+00 3.8885984e-05 0.0000000e+00 
0.0000000e+00 5.5783399e-04 0.0000000e+00 
0.0000000e+00 8.9918257e-04 0.0000000e+00 
0.0000000e+00 1.0629317e-03 0.0000000e+00 
0.0000000e+00 1.0490814e-03 0.0000000e+00 
0.0000000e+00 8.5763179e-04 0.0000000e+00 
0.0000000e+00 4.8858271e-04 0.0000000e+00 
0.0000000e+00 -5.8065823e-05 0.0000000e+00 
0.0000000e+00 -7.8231376e-04 0.0000000e+00 
0.0000000e+00 -1.6841611e-03 0.0000000e+00 
0.0000000e+00 -8.8669523e-04 0.0000000e+00 
0.0000000e+00 -2.3684403e-04 0.0000000e+00 
0.0000000e+00 2.6539250e-04 0.0000000e+00 
0.0000000e+00 6.2001433e-04 0.0000000e+00 
0.0000000e+00 8.2702149e-04 0.0000000e+00 
0.0000000e+00 8.8641391e-04 0.0000000e+00 
0.0000000e+00 7.9819170e-04 0.0000000e+00 
0.0000000e+00 5.6235475e-04 0.0000000e+00 
0.0000000e+00 1.7890312e-04 0.0000000e+00 
0.0000000e+00 -3.5216319e-04 0.0000000e+00 
0.0000000e+00 -1.0308442e-03 0.0000000e+00 
0.0000000e+00 -1.8571399e-03 0.0000000e+00 
0.0000000e+00 -9.8948530e-04 0.0000000e+00 
0.0000000e+00 -2.8132630e-04 0.0000000e+00 
0.0000000e+00 2.6733705e-04 0.0000000e+00 
0.0000000e+00 6.5650477e-04 0.0000000e+00 
0.0000000e+00 8.8617689e-04 0.0000000e+00 
0.0000000e+00 9.5635338e-04 0.0000000e+00 
0.0000000e+00 8.6703425e-04 0.0000000e+00 
0.0000000e+00 6.1821955e-04 0.0000000e+00 
0.0000000e+00 2.0990917e-04 0.0000000e+00 
0.0000000e+00 -3.5789682e-04 0.0000000e+00 
0.0000000e+00 -1.0851984e-03 0.0000000e+00 
0.0000000e+00 -1.9719957e-03 0.0000000e+00 
0.0000000e+00 -1.1684034e-03 0.0000000e+00 
0.0000000e+00 -5.0040521e-04 0.0000000e+00 
0.0000000e+00 3.1999138e-05 0.0000000e+00 
0.0000000e+00 4.2880961e-04 0.0000000e+00 
0.0000000e+00 6.9002615e-04 0.0000000e+00 
0.0000000e+00 8.1564882e-04 0.0000000e+00 
0.0000000e+00 8.0567761e-04 0.0000000e+00 
0.0000000e+00 6.6011248e-04 0.0000000e+00 
0.0000000e+00 3.7895347e-04 0.0000000e+00 
0.0000000e+00 -3.7799462e-05 0.0000000e+00 
0.0000000e+00 -5.9014629e-04 0.0000000e+00 
0.0000000e+00 -1.2780870e-03 0.0000000e+00 
0.0000000e+00 -2.5405936e-04 0.0000000e+00 
0.0000000e+00 5.3797913e-04 0.0000000e+00 
0.0000000e+00 1.0980285e-03 0.0000000e+00 
0.0000000e+00 1.4260887e-03 0.0000000e+00 