# vtk DataFile Version 4.0
vtk output
ASCII
DATASET UNSTRUCTURED_GRID
POINTS 32 float
0.0000000e+00 0.0000000e+00 0.0000000e+00 
0.0000000e+00 2.0000000e-01 0.0000000e+00 
0.0000000e+00 4.0000001e-01 0.0000000e+00 
0.0000000e+00 6.0000002e-01 0.0000000e+00 
0.0000000e+00 8.0000001e-01 0.0000000e+00 
0.0000000e+00 1.0000000e+00 0.0000000e+00 
0.0000000e+00 1.2000000e+00 0.0000000e+00 
0.0000000e+00 1.4000000e+00 0.0000000e+00 
0.0000000e+00 1.6000000e+00 0.0000000e+00 
0.0000000e+00 1.8000000e+00 0.0000000e+00 
0.0000000e+00 2.0000000e+00 0.0000000e+00 
2.0000000e-01 2.0000000e+00 0.0000000e+00 
4.0000001e-01 2.0000000e+00 0.0000000e+00 
6.0000002e-01 2.0000000e+00 0.0000000e+00 
8.0000001e-01 2.0000000e+00 0.0000000e+00 
1.0000000e+00 2.0000000e+00 0.0000000e+00 
1.0000000e+00 2.0000000e+00 0.0000000e+00 
1.2000000e+00 2.0000000e+00 0.0000000e+00 
1.4000000e+00 2.0000000e+00 0.0000000e+00 
1.6000000e+00 2.0000000e+00 0.0000000e+00 
1.8000000e+00 2.0000000e+00 0.0000000e+00 
2.0000000e+00 2.0000000e+00 0.0000000e+00 
2.0000000e+00 1.8000000e+00 0.0000000e+00 
2.0000000e+00 1.6000000e+00 0.0000000e+00 
2.0000000e+00 1.4000000e+00 0.0000000e+00 
2.0000000e+00 1.2000000e+00 0.0000000e+00 
2.0000000e+00 1.0000000e+00 0.0000000e+00 
2.0000000e+00 8.0000001e-01 0.0000000e+00 
2.0000000e+00 6.0000002e-01 0.0000000e+00 
2.0000000e+00 4.0000001e-01 0.0000000e+00 
2.0000000e+00 2.0000000e-01 0.0000000e+00 
2.0000000e+00 0.0000000e+00 0.0000000e+00 

CELLS 30 90
2 0 1
2 1 2
2 2 3
2 3 4
2 4 5
2 5 6
2 6 7
2 7 8
2 8 9
2 9 10
2 10 11
2 11 12
2 12 13
2 13 14
2 14 15
2 16 17
2 17 18
2 18 19
2 19 20
2 20 21
2 21 22
2 22 23
2 23 24
2 24 25
2 25 26
2 26 27
2 27 28
2 28 29
2 29 30
2 30 31

CELL_TYPES 30
3
3
3
3
3
3
3
3
3
3
3
3
3
3
3
3
3
3
3
3
3
3
3
3
3
3
3
3
3
3
POINT_DATA 32
FIELD FieldData 4
DISPLACEMENT 3 32  float
0.0000000e+00 0.0000000e+00 0.0000000e+00 
-2.9679993e-03 4.5589815e-18 0.0000000e+00 
-1.0540056e-02 9.3999713e-18 0.0000000e+00 
-2.0718260e-02 1.4391821e-17 0.0000000e+00 
-3.1504698e-02 1.9419043e-17 0.0000000e+00 
-4.0901456e-02 2.4349520e-17 0.0000000e+00 
-4.6910629e-02 2.9076636e-17 0.0000000e+00 
-4.7534298e-02 3.3199757e-17 0.0000000e+00 
-4.0774558e-02 3.6936708e-17 0.0000000e+00 
-2.4633493e-02 3.8955505e-17 0.0000000e+00 
2.8868059e-03 4.1004441e-17 0.0000000e+00 
2.7997887e-03 -4.0564463e-02 0.0000000e+00 
2.7127718e-03 -9.4506070e-02 0.0000000e+00 
2.6257548e-03 -1.6182482e-01 0.0000000e+00 
2.5387376e-03 -2.4252072e-01 0.0000000e+00 
9.9334891e-15 -3.3633989e-01 0.0000000e+00 
9.9334891e-15 -3.3633989e-01 0.0000000e+00 
-2.5387376e-03 -2.4252072e-01 0.0000000e+00 
-2.6257548e-03 -1.6182482e-01 0.0000000e+00 
-2.7127718e-03 -9.4506070e-02 0.0000000e+00 
-2.7997887e-03 -4.0564463e-02 0.0000000e+00 
-2.8868059e-03 -1.8326701e-16 0.0000000e+00 
2.4633493e-02 -1.7283313e-16 0.0000000e+00 
4.0774558e-02 -1.6051674e-16 0.0000000e+00 
4.7534298e-02 -1.4324610e-16 0.0000000e+00 
4.6910629e-02 -1.2426946e-16 0.0000000e+00 
4.0901456e-02 -1.0389860e-16 0.0000000e+00 
3.1504698e-02 -8.2894211e-17 0.0000000e+00 
2.0718260e-02 -6.1611099e-17 0.0000000e+00 
1.0540056e-02 -4.0474371e-17 0.0000000e+00 
2.9679993e-03 -1.9816385e-17 0.0000000e+00 
0.0000000e+00 0.0000000e+00 0.0000000e+00 
ROTATION 3 32  float
0.0000000e+00 0.0000000e+00 0.0000000e+00 
0.0000000e+00 0.0000000e+00 2.8015068e-02 
0.0000000e+00 0.0000000e+00 4.6040576e-02 
0.0000000e+00 0.0000000e+00 5.4076526e-02 
0.0000000e+00 0.0000000e+00 5.2122921e-02 
0.0000000e+00 0.0000000e+00 4.0179756e-02 
0.0000000e+00 0.0000000e+00 1.8247033e-02 
0.0000000e+00 0.0000000e+00 -1.3675248e-02 
0.0000000e+00 0.0000000e+00 -5.5587087e-02 
0.0000000e+00 0.0000000e+00 -1.0748848e-01 
0.0000000e+00 0.0000000e+00 -1.6937944e-01 
0.0000000e+00 0.0000000e+00 -2.3626517e-01 
0.0000000e+00 0.0000000e+00 -3.0315089e-01 
0.0000000e+00 0.0000000e+00 -3.7003663e-01 
0.0000000e+00 0.0000000e+00 -4.3692237e-01 
0.0000000e+00 0.0000000e+00 -5.0000000e-01 
0.0000000e+00 0.0000000e+00 5.0000000e-01 
0.0000000e+00 0.0000000e+00 4.3692237e-01 
0.0000000e+00 0.0000000e+00 3.7003663e-01 
0.0000000e+00 0.0000000e+00 3.0315089e-01 
0.0000000e+00 0.0000000e+00 2.3626517e-01 
0.0000000e+00 0.0000000e+00 1.6937944e-01 
0.0000000e+00 0.0000000e+00 1.0748848e-01 
0.0000000e+00 0.0000000e+00 5.5587087e-02 
0.0000000e+00 0.0000000e+00 1.3675248e-02 
0.0000000e+00 0.0000000e+00 -1.8247033e-02 
0.0000000e+00 0.0000000e+00 -4.0179756e-02 
0.0000000e+00 0.0000000e+00 -5.2122921e-02 
0.0000000e+00 0.0000000e+00 -5.4076526e-02 
0.0000000e+00 0.0000000e+00 -4.6040576e-02 
0.0000000e+00 0.0000000e+00 -2.8015068e-02 
0.0000000e+00 0.0000000e+00 0.0000000e+00 
REACTION 3 32  float
2.6279191e+05 -6.2461469e+04 0.0000000e+00 
9.5849785e+03 -3.5902703e+05 0.0000000e+00 
1.4782436e+04 -3.4385797e+05 0.0000000e+00 
4.7934624e+03 -9.4802367e+04 0.0000000e+00 
-1.0158069e+04 2.0853197e+05 0.0000000e+00 
-1.4556788e+04 3.8766284e+05 0.0000000e+00 
-5.0094219e+03 2.6184138e+05 0.0000000e+00 
-7.9673857e+03 -3.5063072e+05 0.0000000e+00 
-9.6865070e+04 -1.6195714e+06 0.0000000e+00 
-4.0449278e+05 -3.6727412e+06 0.0000000e+00 
-1.1457068e+07 7.2011220e+06 0.0000000e+00 
-8.6211960e+06 2.0273040e+06 0.0000000e+00 
-1.0394202e+07 3.1636540e+06 0.0000000e+00 
-1.1760535e+07 4.4177055e+06 0.0000000e+00 
-6.8039700e+06 4.6978400e+06 0.0000000e+00 
4.9284068e+07 -1.5862570e+07 0.0000000e+00 
-4.9284068e+07 -1.5862570e+07 0.0000000e+00 
6.8039700e+06 4.6978400e+06 0.0000000e+00 
1.1760535e+07 4.4177055e+06 0.0000000e+00 
1.0394202e+07 3.1636540e+06 0.0000000e+00 
8.6211960e+06 2.0273040e+06 0.0000000e+00 
1.1457068e+07 7.2011220e+06 0.0000000e+00 
4.0449278e+05 -3.6727412e+06 0.0000000e+00 
9.6865070e+04 -1.6195714e+06 0.0000000e+00 
7.9673857e+03 -3.5063072e+05 0.0000000e+00 
5.0094219e+03 2.6184138e+05 0.0000000e+00 
1.4556788e+04 3.8766284e+05 0.0000000e+00 
1.0158069e+04 2.0853197e+05 0.0000000e+00 
-4.7934624e+03 -9.4802367e+04 0.0000000e+00 
-1.4782436e+04 -3.4385797e+05 0.0000000e+00 
-9.5849785e+03 -3.5902703e+05 0.0000000e+00 
-2.6279191e+05 -6.2461469e+04 0.0000000e+00 
REACTION_MOMENT 3 32  float
0.0000000e+00 0.0000000e+00 -1.7328039e+05 
0.0000000e+00 0.0000000e+00 5.6957855e+02 
0.0000000e+00 0.0000000e+00 1.9942866e+03 
0.0000000e+00 0.0000000e+00 3.1314346e+03 
0.0000000e+00 0.0000000e+00 2.8205564e+03 
0.0000000e+00 0.0000000e+00 1.3807627e+03 
0.0000000e+00 0.0000000e+00 2.4552704e+02 
0.0000000e+00 0.0000000e+00 -2.8127042e+02 
0.0000000e+00 0.0000000e+00 -5.1331865e+03 
0.0000000e+00 0.0000000e+00 -3.0166309e+04 
0.0000000e+00 0.0000000e+00 -1.0488690e+05 
0.0000000e+00 0.0000000e+00 -2.6663975e+05 
0.0000000e+00 0.0000000e+00 -5.4280600e+05 
0.0000000e+00 0.0000000e+00 -9.4916456e+05 
0.0000000e+00 0.0000000e+00 -1.3599570e+06 
-0.0000000e+00 -0.0000000e+00 -1.1077089e+06 
0.0000000e+00 0.0000000e+00 1.1077089e+06 
0.0000000e+00 0.0000000e+00 1.3599570e+06 
0.0000000e+00 0.0000000e+00 9.4916456e+05 
0.0000000e+00 0.0000000e+00 5.4280600e+05 
0.0000000e+00 0.0000000e+00 2.6663975e+05 
0.0000000e+00 0.0000000e+00 1.0488690e+05 
0.0000000e+00 0.0000000e+00 3.0166309e+04 
0.0000000e+00 0.0000000e+00 5.1331865e+03 
0.0000000e+00 0.0000000e+00 2.8127042e+02 
0.0000000e+00 0.0000000e+00 -2.4552704e+02 
0.0000000e+00 0.0000000e+00 -1.3807627e+03 
0.0000000e+00 0.0000000e+00 -2.8205564e+03 
0.0000000e+00 0.0000000e+00 -3.1314346e+03 
0.0000000e+00 0.0000000e+00 -1.9942866e+03 
0.0000000e+00 0.0000000e+00 -5.6957855e+02 
0.0000000e+00 0.0000000e+00 1.7328039e+05 
CELL_DATA 30
FIELD FieldData 2
MOMENT 3 30  float
0.0000000e+00 0.0000000e+00 -1.4709389e+05 
0.0000000e+00 0.0000000e+00 -9.4695898e+04 
0.0000000e+00 0.0000000e+00 -4.2238680e+04 
0.0000000e+00 0.0000000e+00 1.0270071e+04 
0.0000000e+00 0.0000000e+00 6.2764867e+04 
0.0000000e+00 0.0000000e+00 1.1519428e+05 
0.0000000e+00 0.0000000e+00 1.6759272e+05 
0.0000000e+00 0.0000000e+00 2.2015198e+05 
0.0000000e+00 0.0000000e+00 2.7329438e+05 
0.0000000e+00 0.0000000e+00 3.2775244e+05 
0.0000000e+00 0.0000000e+00 3.5768034e+05 
0.0000000e+00 0.0000000e+00 3.6289844e+05 
0.0000000e+00 0.0000000e+00 3.6969512e+05 
0.0000000e+00 0.0000000e+00 3.7812072e+05 
0.0000000e+00 0.0000000e+00 3.6193519e+05 
0.0000000e+00 0.0000000e+00 3.6193519e+05 
0.0000000e+00 0.0000000e+00 3.7812072e+05 
0.0000000e+00 0.0000000e+00 3.6969512e+05 
0.0000000e+00 0.0000000e+00 3.6289844e+05 
0.0000000e+00 0.0000000e+00 3.5768034e+05 
0.0000000e+00 0.0000000e+00 3.2775244e+05 
0.0000000e+00 0.0000000e+00 2.7329438e+05 
0.0000000e+00 0.0000000e+00 2.2015198e+05 
0.0000000e+00 0.0000000e+00 1.6759272e+05 
0.0000000e+00 0.0000000e+00 1.1519428e+05 
0.0000000e+00 0.0000000e+00 6.2764867e+04 
0.0000000e+00 0.0000000e+00 1.0270071e+04 
0.0000000e+00 0.0000000e+00 -4.2238680e+04 
0.0000000e+00 0.0000000e+00 -9.4695898e+04 
0.0000000e+00 0.0000000e+00 -1.4709389e+05 
FORCE 3 30  float
6.6353992e+04 2.6183616e+05 0.0000000e+00 
4.3149162e+05 2.5623564e+05 0.0000000e+00 
7.7895225e+05 2.4788928e+05 0.0000000e+00 
8.7462344e+05 2.4520673e+05 0.0000000e+00 
6.6412400e+05 2.5090252e+05 0.0000000e+00 
2.7186072e+05 2.5919025e+05 0.0000000e+00 
2.9303479e+03 2.6222066e+05 0.0000000e+00 
3.4395325e+05 2.6603150e+05 0.0000000e+00 
1.9532612e+06 3.1554638e+05 0.0000000e+00 
5.6260445e+06 5.2472706e+05 0.0000000e+00 
1.1779849e+07 8.0247931e+05 0.0000000e+00 
2.0557056e+07 1.8352929e+06 0.0000000e+00 
3.1266436e+07 3.4093780e+06 0.0000000e+00 
4.3571016e+07 5.5476660e+06 0.0000000e+00 
5.1322428e+07 6.8226800e+06 0.0000000e+00 
5.1322428e+07 -6.8226800e+06 0.0000000e+00 
4.3571016e+07 -5.5476660e+06 0.0000000e+00 
3.1266436e+07 -3.4093780e+06 0.0000000e+00 
2.0557056e+07 -1.8352929e+06 0.0000000e+00 
1.1779849e+07 -8.0247931e+05 0.0000000e+00 
5.6260445e+06 -5.2472706e+05 0.0000000e+00 
1.9532612e+06 -3.1554638e+05 0.0000000e+00 
3.4395325e+05 -2.6603150e+05 0.0000000e+00 
2.9303479e+03 -2.6222066e+05 0.0000000e+00 
2.7186072e+05 -2.5919025e+05 0.0000000e+00 
6.6412400e+05 -2.5090252e+05 0.0000000e+00 
8.7462344e+05 -2.4520673e+05 0.0000000e+00 
7.7895225e+05 -2.4788928e+05 0.0000000e+00 
4.3149162e+05 -2.5623564e+05 0.0000000e+00 
6.6353992e+04 -2.6183616e+05 0.0000000e+00 
