# vtk DataFile Version 4.0
vtk output
ASCII
DATASET UNSTRUCTURED_GRID
POINTS 61 float
0.0000000e+00 0.0000000e+00 0.0000000e+00 
0.0000000e+00 2.0000000e-01 0.0000000e+00 
0.0000000e+00 4.0000001e-01 0.0000000e+00 
0.0000000e+00 6.0000002e-01 0.0000000e+00 
0.0000000e+00 8.0000001e-01 0.0000000e+00 
0.0000000e+00 1.0000000e+00 0.0000000e+00 
0.0000000e+00 1.2000000e+00 0.0000000e+00 
0.0000000e+00 1.4000000e+00 0.0000000e+00 
0.0000000e+00 1.6000000e+00 0.0000000e+00 
0.0000000e+00 1.8000000e+00 0.0000000e+00 
0.0000000e+00 2.0000000e+00 0.0000000e+00 
0.0000000e+00 2.2000000e+00 0.0000000e+00 
0.0000000e+00 2.4000001e+00 0.0000000e+00 
0.0000000e+00 2.5999999e+00 0.0000000e+00 
0.0000000e+00 2.8000000e+00 0.0000000e+00 
0.0000000e+00 3.0000000e+00 0.0000000e+00 
0.0000000e+00 3.2000000e+00 0.0000000e+00 
0.0000000e+00 3.4000001e+00 0.0000000e+00 
0.0000000e+00 3.5999999e+00 0.0000000e+00 
0.0000000e+00 3.8000000e+00 0.0000000e+00 
0.0000000e+00 4.0000000e+00 0.0000000e+00 
2.0000000e-01 4.0000000e+00 0.0000000e+00 
4.0000001e-01 4.0000000e+00 0.0000000e+00 
6.0000002e-01 4.0000000e+00 0.0000000e+00 
8.0000001e-01 4.0000000e+00 0.0000000e+00 
1.0000000e+00 4.0000000e+00 0.0000000e+00 
1.0000000e+00 4.0000000e+00 0.0000000e+00 
1.2000000e+00 4.0000000e+00 0.0000000e+00 
1.4000000e+00 4.0000000e+00 0.0000000e+00 
1.6000000e+00 4.0000000e+00 0.0000000e+00 
1.8000000e+00 4.0000000e+00 0.0000000e+00 
2.0000000e+00 4.0000000e+00 0.0000000e+00 
2.0000000e+00 3.8000000e+00 0.0000000e+00 
2.0000000e+00 3.5999999e+00 0.0000000e+00 
2.0000000e+00 3.4000001e+00 0.0000000e+00 
2.0000000e+00 3.2000000e+00 0.0000000e+00 
2.0000000e+00 3.0000000e+00 0.0000000e+00 
2.0000000e+00 2.8000000e+00 0.0000000e+00 
2.0000000e+00 2.5999999e+00 0.0000000e+00 
2.0000000e+00 2.4000001e+00 0.0000000e+00 
2.0000000e+00 2.2000000e+00 0.0000000e+00 
2.0000000e+00 2.0000000e+00 0.0000000e+00 
2.0000000e+00 1.8000000e+00 0.0000000e+00 
2.0000000e+00 1.6000000e+00 0.0000000e+00 
2.0000000e+00 1.4000000e+00 0.0000000e+00 
2.0000000e+00 1.2000000e+00 0.0000000e+00 
2.0000000e+00 1.0000000e+00 0.0000000e+00 
2.0000000e+00 8.0000001e-01 0.0000000e+00 
2.0000000e+00 6.0000002e-01 0.0000000e+00 
2.0000000e+00 4.0000001e-01 0.0000000e+00 
2.0000000e+00 2.0000000e-01 0.0000000e+00 
2.0000000e+00 0.0000000e+00 0.0000000e+00 
2.0000000e-01 2.0000000e+00 0.0000000e+00 
4.0000001e-01 2.0000000e+00 0.0000000e+00 
6.0000002e-01 2.0000000e+00 0.0000000e+00 
8.0000001e-01 2.0000000e+00 0.0000000e+00 
1.0000000e+00 2.0000000e+00 0.0000000e+00 
1.2000000e+00 2.0000000e+00 0.0000000e+00 
1.4000000e+00 2.0000000e+00 0.0000000e+00 
1.6000000e+00 2.0000000e+00 0.0000000e+00 
1.8000000e+00 2.0000000e+00 0.0000000e+00 

CELLS 60 180
2 0 1
2 1 2
2 2 3
2 3 4
2 4 5
2 5 6
2 6 7
2 7 8
2 8 9
2 9 10
2 10 11
2 11 12
2 12 13
2 13 14
2 14 15
2 15 16
2 16 17
2 17 18
2 18 19
2 19 20
2 20 21
2 21 22
2 22 23
2 23 24
2 24 25
2 26 27
2 27 28
2 28 29
2 29 30
2 30 31
2 31 32
2 32 33
2 33 34
2 34 35
2 35 36
2 36 37
2 37 38
2 38 39
2 39 40
2 40 41
2 41 42
2 42 43
2 43 44
2 44 45
2 45 46
2 46 47
2 47 48
2 48 49
2 49 50
2 50 51
2 10 52
2 52 53
2 53 54
2 54 55
2 55 56
2 56 57
2 57 58
2 58 59
2 59 60
2 60 41

CELL_TYPES 60
3
3
3
3
3
3
3
3
3
3
3
3
3
3
3
3
3
3
3
3
3
3
3
3
3
3
3
3
3
3
3
3
3
3
3
3
3
3
3
3
3
3
3
3
3
3
3
3
3
3
3
3
3
3
3
3
3
3
3
3
POINT_DATA 61
FIELD FieldData 4
DISPLACEMENT 3 61  float
0.0000000e+00 0.0000000e+00 0.0000000e+00 
6.2472041e-04 1.8811616e-17 0.0000000e+00 
2.2191650e-03 3.7552107e-17 0.0000000e+00 
4.3637590e-03 5.6238614e-17 0.0000000e+00 
6.6389274e-03 7.4932419e-17 0.0000000e+00 
8.6250957e-03 9.3428019e-17 0.0000000e+00 
9.9026877e-03 1.1196700e-16 0.0000000e+00 
1.0052131e-02 1.3088818e-16 0.0000000e+00 
8.6538475e-03 1.5291077e-16 0.0000000e+00 
5.2882652e-03 1.7616103e-16 0.0000000e+00 
-4.6419210e-04 2.0285416e-16 0.0000000e+00 
-9.3764132e-03 2.2625740e-16 0.0000000e+00 
-2.0800238e-02 2.4982665e-16 0.0000000e+00 
-3.3023674e-02 2.7341789e-16 0.0000000e+00 
-4.4334725e-02 2.9689264e-16 0.0000000e+00 
-5.3021394e-02 3.2027703e-16 0.0000000e+00 
-5.7371691e-02 3.4327815e-16 0.0000000e+00 
-5.5673614e-02 3.6504476e-16 0.0000000e+00 
-4.6215173e-02 3.7885290e-16 0.0000000e+00 
-2.7284369e-02 3.9173527e-16 0.0000000e+00 
2.8307915e-03 4.0479850e-16 0.0000000e+00 
2.7562273e-03 -4.2726178e-02 0.0000000e+00 
2.6816630e-03 -9.8348707e-02 0.0000000e+00 
2.6070988e-03 -1.6686758e-01 0.0000000e+00 
2.5325345e-03 -2.4828282e-01 0.0000000e+00 
-2.4883126e-15 -3.4234115e-01 0.0000000e+00 
-2.4883126e-15 -3.4234115e-01 0.0000000e+00 
-2.5325345e-03 -2.4828282e-01 0.0000000e+00 
-2.6070988e-03 -1.6686758e-01 0.0000000e+00 
-2.6816630e-03 -9.8348707e-02 0.0000000e+00 
-2.7562273e-03 -4.2726178e-02 0.0000000e+00 
-2.8307915e-03 2.1107828e-16 0.0000000e+00 
2.7284369e-02 1.8381259e-16 0.0000000e+00 
4.6215173e-02 1.5687045e-16 0.0000000e+00 
5.5673614e-02 1.3482099e-16 0.0000000e+00 
5.7371691e-02 1.1757692e-16 0.0000000e+00 
5.3021394e-02 1.1125837e-16 0.0000000e+00 
4.4334725e-02 1.0584641e-16 0.0000000e+00 
3.3023674e-02 1.0095088e-16 0.0000000e+00 
2.0800238e-02 9.6228826e-17 0.0000000e+00 
9.3764132e-03 9.1395477e-17 0.0000000e+00 
4.6419210e-04 8.6100939e-17 0.0000000e+00 
-5.2882652e-03 7.8446183e-17 0.0000000e+00 
-8.6538475e-03 7.0457028e-17 0.0000000e+00 
-1.0052131e-02 6.2104886e-17 0.0000000e+00 
-9.9026877e-03 5.3458486e-17 0.0000000e+00 
-8.6250957e-03 4.4601314e-17 0.0000000e+00 
-6.6389274e-03 3.5634471e-17 0.0000000e+00 
-4.3637590e-03 2.6613214e-17 0.0000000e+00 
-2.2191650e-03 1.7615943e-17 0.0000000e+00 
-6.2472041e-04 8.7189039e-18 0.0000000e+00 
0.0000000e+00 0.0000000e+00 0.0000000e+00 
-3.7135367e-04 6.3771778e-03 0.0000000e+00 
-2.7851525e-04 1.1337205e-02 0.0000000e+00 
-1.8567684e-04 1.4880082e-02 0.0000000e+00 
-9.2838418e-05 1.7005807e-02 0.0000000e+00 
-2.4980929e-15 1.7714383e-02 0.0000000e+00 
9.2838418e-05 1.7005807e-02 0.0000000e+00 
1.8567684e-04 1.4880082e-02 0.0000000e+00 
2.7851525e-04 1.1337205e-02 0.0000000e+00 
3.7135367e-04 6.3771778e-03 0.0000000e+00 
ROTATION 3 61  float
0.0000000e+00 0.0000000e+00 0.0000000e+00 
0.0000000e+00 0.0000000e+00 -5.8975583e-03 
0.0000000e+00 0.0000000e+00 -9.6972417e-03 
0.0000000e+00 0.0000000e+00 -1.1399051e-02 
0.0000000e+00 0.0000000e+00 -1.1002987e-02 
0.0000000e+00 0.0000000e+00 -8.5090473e-03 
0.0000000e+00 0.0000000e+00 -3.9172336e-03 
0.0000000e+00 0.0000000e+00 2.7724546e-03 
0.0000000e+00 0.0000000e+00 1.1560017e-02 
0.0000000e+00 0.0000000e+00 2.2445453e-02 
0.0000000e+00 0.0000000e+00 3.5428766e-02 
0.0000000e+00 0.0000000e+00 5.2266780e-02 
0.0000000e+00 0.0000000e+00 6.0544815e-02 
0.0000000e+00 0.0000000e+00 6.0262877e-02 
0.0000000e+00 0.0000000e+00 5.1420964e-02 
0.0000000e+00 0.0000000e+00 3.4019075e-02 
0.0000000e+00 0.0000000e+00 8.0572087e-03 
0.0000000e+00 0.0000000e+00 -2.6464634e-02 
0.0000000e+00 0.0000000e+00 -6.9546454e-02 
0.0000000e+00 0.0000000e+00 -1.2118825e-01 
0.0000000e+00 0.0000000e+00 -1.8139002e-01 
0.0000000e+00 0.0000000e+00 -2.4587177e-01 
0.0000000e+00 0.0000000e+00 -3.1035352e-01 
0.0000000e+00 0.0000000e+00 -3.7483528e-01 
0.0000000e+00 0.0000000e+00 -4.3931705e-01 
0.0000000e+00 0.0000000e+00 -5.0000000e-01 
0.0000000e+00 0.0000000e+00 5.0000000e-01 
0.0000000e+00 0.0000000e+00 4.3931705e-01 
0.0000000e+00 0.0000000e+00 3.7483528e-01 
0.0000000e+00 0.0000000e+00 3.1035352e-01 
0.0000000e+00 0.0000000e+00 2.4587177e-01 
0.0000000e+00 0.0000000e+00 1.8139002e-01 
0.0000000e+00 0.0000000e+00 1.2118825e-01 
0.0000000e+00 0.0000000e+00 6.9546454e-02 
0.0000000e+00 0.0000000e+00 2.6464634e-02 
0.0000000e+00 0.0000000e+00 -8.0572087e-03 
0.0000000e+00 0.0000000e+00 -3.4019075e-02 
0.0000000e+00 0.0000000e+00 -5.1420964e-02 
0.0000000e+00 0.0000000e+00 -6.0262877e-02 
0.0000000e+00 0.0000000e+00 -6.0544815e-02 
0.0000000e+00 0.0000000e+00 -5.2266780e-02 
0.0000000e+00 0.0000000e+00 -3.5428766e-02 
0.0000000e+00 0.0000000e+00 -2.2445453e-02 
0.0000000e+00 0.0000000e+00 -1.1560017e-02 
0.0000000e+00 0.0000000e+00 -2.7724546e-03 
0.0000000e+00 0.0000000e+00 3.9172336e-03 
0.0000000e+00 0.0000000e+00 8.5090473e-03 
0.0000000e+00 0.0000000e+00 1.1002987e-02 
0.0000000e+00 0.0000000e+00 1.1399051e-02 
0.0000000e+00 0.0000000e+00 9.6972417e-03 
0.0000000e+00 0.0000000e+00 5.8975583e-03 
0.0000000e+00 0.0000000e+00 0.0000000e+00 
0.0000000e+00 0.0000000e+00 2.8343013e-02 
0.0000000e+00 0.0000000e+00 2.1257259e-02 
0.0000000e+00 0.0000000e+00 1.4171506e-02 
0.0000000e+00 0.0000000e+00 7.0857531e-03 
0.0000000e+00 0.0000000e+00 2.3418453e-17 
0.0000000e+00 0.0000000e+00 -7.0857531e-03 
0.0000000e+00 0.0000000e+00 -1.4171506e-02 
0.0000000e+00 0.0000000e+00 -2.1257259e-02 
0.0000000e+00 0.0000000e+00 -2.8343013e-02 
REACTION 3 61  float
-5.5625230e+04 -2.7958826e+03 0.0000000e+00 
-9.0517342e+01 -1.6103861e+04 0.0000000e+00 
-1.4026611e+02 -1.5496655e+04 0.0000000e+00 
-4.6377251e+01 -4.3540029e+03 0.0000000e+00 
9.5461906e+01 9.2885430e+03 0.0000000e+00 
1.3831050e+02 1.7397715e+04 0.0000000e+00 
4.8679901e+01 1.1935770e+04 0.0000000e+00 
7.1368271e+01 -1.5137051e+04 0.0000000e+00 
8.9406274e+02 -7.1837438e+04 0.0000000e+00 
3.8099631e+03 -1.6609802e+05 0.0000000e+00 
-2.9645850e+05 -3.5071641e+05 0.0000000e+00 
1.8955793e+04 -3.8398844e+05 0.0000000e+00 
8.1336699e+03 -1.4207812e+05 0.0000000e+00 
-9.1933047e+03 1.6134773e+05 0.0000000e+00 
-1.9161928e+04 3.9456344e+05 0.0000000e+00 
-1.3762815e+04 4.2435281e+05 0.0000000e+00 
-2.0423590e+03 1.1514192e+05 0.0000000e+00 
-2.1453490e+04 -6.6619062e+05 0.0000000e+00 
-1.4786841e+05 -2.0362129e+06 0.0000000e+00 
-5.0054978e+05 -4.0691920e+06 0.0000000e+00 
-1.2683371e+07 8.6310530e+06 0.0000000e+00 
-8.6651550e+06 2.1231072e+06 0.0000000e+00 
-1.0282924e+07 3.2080705e+06 0.0000000e+00 
-1.1530330e+07 4.3916985e+06 0.0000000e+00 
-6.4295905e+06 4.5792095e+06 0.0000000e+00 
5.0034440e+07 -1.6137677e+07 0.0000000e+00 
-5.0034440e+07 -1.6137677e+07 0.0000000e+00 
6.4295905e+06 4.5792095e+06 0.0000000e+00 
1.1530330e+07 4.3916985e+06 0.0000000e+00 
1.0282924e+07 3.2080705e+06 0.0000000e+00 
8.6651550e+06 2.1231072e+06 0.0000000e+00 
1.2683371e+07 8.6310530e+06 0.0000000e+00 
5.0054978e+05 -4.0691920e+06 0.0000000e+00 
1.4786841e+05 -2.0362129e+06 0.0000000e+00 
2.1453490e+04 -6.6619062e+05 0.0000000e+00 
2.0423590e+03 1.1514192e+05 0.0000000e+00 
1.3762815e+04 4.2435281e+05 0.0000000e+00 
1.9161928e+04 3.9456344e+05 0.0000000e+00 
9.1933047e+03 1.6134773e+05 0.0000000e+00 
-8.1336699e+03 -1.4207812e+05 0.0000000e+00 
-1.8955793e+04 -3.8398844e+05 0.0000000e+00 
2.9645850e+05 -3.5071641e+05 0.0000000e+00 
-3.8099631e+03 -1.6609802e+05 0.0000000e+00 
-8.9406274e+02 -7.1837438e+04 0.0000000e+00 
-7.1368271e+01 -1.5137051e+04 0.0000000e+00 
-4.8679901e+01 1.1935770e+04 0.0000000e+00 
-1.3831050e+02 1.7397715e+04 0.0000000e+00 
-9.5461906e+01 9.2885430e+03 0.0000000e+00 
4.6377251e+01 -4.3540029e+03 0.0000000e+00 
1.4026611e+02 -1.5496655e+04 0.0000000e+00 
9.0517342e+01 -1.6103861e+04 0.0000000e+00 
5.5625230e+04 -2.7958826e+03 0.0000000e+00 
1.2190474e+05 4.3502139e+03 0.0000000e+00 
9.1486461e+04 2.8735840e+03 0.0000000e+00 
6.1018566e+04 1.8178972e+03 0.0000000e+00 
3.0517566e+04 1.1841044e+03 0.0000000e+00 
8.8301022e-08 9.7277661e+02 0.0000000e+00 
-3.0517566e+04 1.1841044e+03 0.0000000e+00 
-6.1018566e+04 1.8178972e+03 0.0000000e+00 
-9.1486461e+04 2.8735840e+03 0.0000000e+00 
-1.2190474e+05 4.3502139e+03 0.0000000e+00 
REACTION_MOMENT 3 61  float
0.0000000e+00 0.0000000e+00 3.6833590e+04 
0.0000000e+00 0.0000000e+00 -5.3766999e+00 
0.0000000e+00 0.0000000e+00 -1.8864571e+01 
0.0000000e+00 0.0000000e+00 -2.9701805e+01 
0.0000000e+00 0.0000000e+00 -2.6858732e+01 
0.0000000e+00 0.0000000e+00 -1.3247314e+01 
0.0000000e+00 0.0000000e+00 -2.3950317e+00 
0.0000000e+00 0.0000000e+00 2.5036099e+00 
0.0000000e+00 0.0000000e+00 4.7152363e+01 
0.0000000e+00 0.0000000e+00 2.8221567e+02 
0.0000000e+00 0.0000000e+00 1.9930067e+03 
0.0000000e+00 0.0000000e+00 2.9593665e+03 
0.0000000e+00 0.0000000e+00 4.5001729e+03 
0.0000000e+00 0.0000000e+00 4.4400332e+03 
0.0000000e+00 0.0000000e+00 2.8267441e+03 
0.0000000e+00 0.0000000e+00 9.4323883e+02 
0.0000000e+00 0.0000000e+00 8.2696907e+01 
0.0000000e+00 0.0000000e+00 -8.8233881e+02 
0.0000000e+00 0.0000000e+00 -9.0727324e+03 
0.0000000e+00 0.0000000e+00 -4.1977031e+04 
0.0000000e+00 0.0000000e+00 -1.2848167e+05 
0.0000000e+00 0.0000000e+00 -3.0215197e+05 
0.0000000e+00 0.0000000e+00 -5.8623212e+05 
0.0000000e+00 0.0000000e+00 -9.9405831e+05 
0.0000000e+00 0.0000000e+00 -1.3961975e+06 
-0.0000000e+00 -0.0000000e+00 -1.1116091e+06 
0.0000000e+00 0.0000000e+00 1.1116091e+06 
0.0000000e+00 0.0000000e+00 1.3961975e+06 
0.0000000e+00 0.0000000e+00 9.9405831e+05 
0.0000000e+00 0.0000000e+00 5.8623212e+05 
0.0000000e+00 0.0000000e+00 3.0215197e+05 
0.0000000e+00 0.0000000e+00 1.2848167e+05 
0.0000000e+00 0.0000000e+00 4.1977031e+04 
0.0000000e+00 0.0000000e+00 9.0727324e+03 
0.0000000e+00 0.0000000e+00 8.8233881e+02 
0.0000000e+00 0.0000000e+00 -8.2696907e+01 
0.0000000e+00 0.0000000e+00 -9.4323883e+02 
0.0000000e+00 0.0000000e+00 -2.8267441e+03 
0.0000000e+00 0.0000000e+00 -4.4400332e+03 
0.0000000e+00 0.0000000e+00 -4.5001729e+03 
0.0000000e+00 0.0000000e+00 -2.9593665e+03 
0.0000000e+00 0.0000000e+00 -1.9930067e+03 
0.0000000e+00 0.0000000e+00 -2.8221567e+02 
0.0000000e+00 0.0000000e+00 -4.7152363e+01 
0.0000000e+00 0.0000000e+00 -2.5036099e+00 
0.0000000e+00 0.0000000e+00 2.3950317e+00 
0.0000000e+00 0.0000000e+00 1.3247314e+01 
0.0000000e+00 0.0000000e+00 2.6858732e+01 
0.0000000e+00 0.0000000e+00 2.9701805e+01 
0.0000000e+00 0.0000000e+00 1.8864571e+01 
0.0000000e+00 0.0000000e+00 5.3766999e+00 
0.0000000e+00 0.0000000e+00 -3.6833590e+04 
0.0000000e+00 0.0000000e+00 1.3337177e+03 
0.0000000e+00 0.0000000e+00 8.4236157e+02 
0.0000000e+00 0.0000000e+00 4.8633008e+02 
0.0000000e+00 0.0000000e+00 2.2058353e+02 
0.0000000e+00 0.0000000e+00 2.4935071e-06 
0.0000000e+00 0.0000000e+00 -2.2058353e+02 
0.0000000e+00 0.0000000e+00 -4.8633008e+02 
0.0000000e+00 0.0000000e+00 -8.4236157e+02 
0.0000000e+00 0.0000000e+00 -1.3337177e+03 
CELL_DATA 60
FIELD FieldData 2
FORCE 3 60  float
2.9696194e+03 -5.5616223e+04 0.0000000e+00 
1.9343309e+04 -5.5563309e+04 0.0000000e+00 
3.4993332e+04 -5.5483992e+04 0.0000000e+00 
3.9383793e+04 -5.5457984e+04 0.0000000e+00 
3.0014590e+04 -5.5511609e+04 0.0000000e+00 
1.2419500e+04 -5.5590418e+04 0.0000000e+00 
1.6993407e+02 -5.5619824e+04 0.0000000e+00 
1.4876698e+04 -5.5653934e+04 0.0000000e+00 
8.6170945e+04 -5.6112320e+04 0.0000000e+00 
2.5163442e+05 -5.8103152e+04 0.0000000e+00 
6.0347356e+05 2.1722509e+05 0.0000000e+00 
9.9059156e+05 2.0667700e+05 0.0000000e+00 
1.1337168e+06 2.0218002e+05 0.0000000e+00 
9.7117650e+05 2.0726386e+05 0.0000000e+00 
5.7335725e+05 2.1793466e+05 0.0000000e+00 
1.4395138e+05 2.2576892e+05 0.0000000e+00 
2.1939334e+04 2.2699803e+05 0.0000000e+00 
6.7958544e+05 2.3771870e+05 0.0000000e+00 
2.7087212e+06 3.1412997e+05 0.0000000e+00 
6.7856815e+06 5.7369662e+05 0.0000000e+00 
1.3220197e+07 9.4825475e+05 0.0000000e+00 
2.2055290e+07 2.0270890e+06 0.0000000e+00 
3.2665556e+07 3.6192252e+06 0.0000000e+00 
4.4743976e+07 5.7408795e+06 0.0000000e+00 
5.2111496e+07 6.9470510e+06 0.0000000e+00 
5.2111496e+07 -6.9470510e+06 0.0000000e+00 
4.4743976e+07 -5.7408795e+06 0.0000000e+00 
3.2665556e+07 -3.6192252e+06 0.0000000e+00 
2.2055290e+07 -2.0270890e+06 0.0000000e+00 
1.3220197e+07 -9.4825475e+05 0.0000000e+00 
6.7856815e+06 -5.7369662e+05 0.0000000e+00 
2.7087212e+06 -3.1412997e+05 0.0000000e+00 
6.7958544e+05 -2.3771870e+05 0.0000000e+00 
2.1939334e+04 -2.2699803e+05 0.0000000e+00 
1.4395138e+05 -2.2576892e+05 0.0000000e+00 
5.7335725e+05 -2.1793466e+05 0.0000000e+00 
9.7117650e+05 -2.0726386e+05 0.0000000e+00 
1.1337168e+06 -2.0218002e+05 0.0000000e+00 
9.9059156e+05 -2.0667700e+05 0.0000000e+00 
6.0347356e+05 -2.1722509e+05 0.0000000e+00 
2.5163442e+05 5.8103152e+04 0.0000000e+00 
8.6170945e+04 5.6112320e+04 0.0000000e+00 
1.4876698e+04 5.5653934e+04 0.0000000e+00 
1.6993407e+02 5.5619824e+04 0.0000000e+00 
1.2419500e+04 5.5590418e+04 0.0000000e+00 
3.0014590e+04 5.5511609e+04 0.0000000e+00 
3.9383793e+04 5.5457984e+04 0.0000000e+00 
3.4993332e+04 5.5483992e+04 0.0000000e+00 
1.9343309e+04 5.5563309e+04 0.0000000e+00 
2.9696194e+03 5.5616223e+04 0.0000000e+00 
5.9121881e+05 -8.1251631e+03 0.0000000e+00 
4.6928638e+05 -5.2690376e+03 0.0000000e+00 
3.7778891e+05 -3.2002559e+03 0.0000000e+00 
3.1676769e+05 -1.6946572e+03 0.0000000e+00 
2.8625016e+05 -5.2728711e+02 0.0000000e+00 
2.8625016e+05 5.2728705e+02 0.0000000e+00 
3.1676769e+05 1.6946572e+03 0.0000000e+00 
3.7778891e+05 3.2002559e+03 0.0000000e+00 
4.6928638e+05 5.2690376e+03 0.0000000e+00 
5.9121881e+05 8.1251631e+03 0.0000000e+00 
MOMENT 3 60  float
0.0000000e+00 0.0000000e+00 3.1271941e+04 
0.0000000e+00 0.0000000e+00 2.0148408e+04 
0.0000000e+00 0.0000000e+00 9.0243184e+03 
0.0000000e+00 0.0000000e+00 -2.1002585e+03 
0.0000000e+00 0.0000000e+00 -1.3224709e+04 
0.0000000e+00 0.0000000e+00 -2.4348547e+04 
0.0000000e+00 0.0000000e+00 -3.5472082e+04 
0.0000000e+00 0.0000000e+00 -4.6597090e+04 
0.0000000e+00 0.0000000e+00 -5.7727496e+04 
0.0000000e+00 0.0000000e+00 -6.8870023e+04 
0.0000000e+00 0.0000000e+00 -8.9364578e+04 
0.0000000e+00 0.0000000e+00 -4.3959758e+04 
0.0000000e+00 0.0000000e+00 1.4975302e+03 
0.0000000e+00 0.0000000e+00 4.6952797e+04 
0.0000000e+00 0.0000000e+00 9.2353055e+04 
0.0000000e+00 0.0000000e+00 1.3769255e+05 
0.0000000e+00 0.0000000e+00 1.8305809e+05 
0.0000000e+00 0.0000000e+00 2.2867481e+05 
0.0000000e+00 0.0000000e+00 2.7495394e+05 
0.0000000e+00 0.0000000e+00 3.2254669e+05 
0.0000000e+00 0.0000000e+00 3.4901200e+05 
0.0000000e+00 0.0000000e+00 3.5412016e+05 
0.0000000e+00 0.0000000e+00 3.6066288e+05 
0.0000000e+00 0.0000000e+00 3.6868350e+05 
0.0000000e+00 0.0000000e+00 3.5186438e+05 
0.0000000e+00 0.0000000e+00 3.5186438e+05 
0.0000000e+00 0.0000000e+00 3.6868350e+05 
0.0000000e+00 0.0000000e+00 3.6066288e+05 
0.0000000e+00 0.0000000e+00 3.5412016e+05 
0.0000000e+00 0.0000000e+00 3.4901200e+05 
0.0000000e+00 0.0000000e+00 3.2254669e+05 
0.0000000e+00 0.0000000e+00 2.7495394e+05 
0.0000000e+00 0.0000000e+00 2.2867481e+05 
0.0000000e+00 0.0000000e+00 1.8305809e+05 
0.0000000e+00 0.0000000e+00 1.3769255e+05 
0.0000000e+00 0.0000000e+00 9.2353055e+04 
0.0000000e+00 0.0000000e+00 4.6952797e+04 
0.0000000e+00 0.0000000e+00 1.4975302e+03 
0.0000000e+00 0.0000000e+00 -4.3959758e+04 
0.0000000e+00 0.0000000e+00 -8.9364578e+04 
0.0000000e+00 0.0000000e+00 -6.8870023e+04 
0.0000000e+00 0.0000000e+00 -5.7727496e+04 
0.0000000e+00 0.0000000e+00 -4.6597090e+04 
0.0000000e+00 0.0000000e+00 -3.5472082e+04 
0.0000000e+00 0.0000000e+00 -2.4348547e+04 
0.0000000e+00 0.0000000e+00 -1.3224709e+04 
0.0000000e+00 0.0000000e+00 -2.1002585e+03 
0.0000000e+00 0.0000000e+00 9.0243184e+03 
0.0000000e+00 0.0000000e+00 2.0148408e+04 
0.0000000e+00 0.0000000e+00 3.1271941e+04 
0.0000000e+00 0.0000000e+00 3.7605602e+04 
0.0000000e+00 0.0000000e+00 3.7598703e+04 
0.0000000e+00 0.0000000e+00 3.7593531e+04 
0.0000000e+00 0.0000000e+00 3.7590082e+04 
0.0000000e+00 0.0000000e+00 3.7588359e+04 
0.0000000e+00 0.0000000e+00 3.7588359e+04 
0.0000000e+00 0.0000000e+00 3.7590082e+04 
0.0000000e+00 0.0000000e+00 3.7593531e+04 
0.0000000e+00 0.0000000e+00 3.7598703e+04 
0.0000000e+00 0.0000000e+00 3.7605602e+04 
