# vtk DataFile Version 4.0
vtk output
ASCII
DATASET UNSTRUCTURED_GRID
POINTS 212 float
0.0000000e+00 0.0000000e+00 0.0000000e+00 
0.0000000e+00 0.0000000e+00 2.5000000e-01 
0.0000000e+00 0.0000000e+00 5.0000000e-01 
0.0000000e+00 0.0000000e+00 7.5000000e-01 
0.0000000e+00 0.0000000e+00 1.0000000e+00 
0.0000000e+00 0.0000000e+00 1.2500000e+00 
0.0000000e+00 0.0000000e+00 1.5000000e+00 
0.0000000e+00 0.0000000e+00 1.7500000e+00 
0.0000000e+00 0.0000000e+00 2.0000000e+00 
0.0000000e+00 0.0000000e+00 2.2500000e+00 
0.0000000e+00 0.0000000e+00 2.5000000e+00 
0.0000000e+00 0.0000000e+00 2.7500000e+00 
0.0000000e+00 0.0000000e+00 3.0000000e+00 
0.0000000e+00 0.0000000e+00 3.2500000e+00 
0.0000000e+00 0.0000000e+00 3.5000000e+00 
0.0000000e+00 0.0000000e+00 3.7500000e+00 
0.0000000e+00 0.0000000e+00 4.0000000e+00 
0.0000000e+00 0.0000000e+00 4.2500000e+00 
0.0000000e+00 0.0000000e+00 4.5000000e+00 
0.0000000e+00 0.0000000e+00 4.7500000e+00 
0.0000000e+00 0.0000000e+00 5.0000000e+00 
0.0000000e+00 0.0000000e+00 5.2500000e+00 
0.0000000e+00 0.0000000e+00 5.5000000e+00 
0.0000000e+00 0.0000000e+00 5.7500000e+00 
0.0000000e+00 0.0000000e+00 6.0000000e+00 
0.0000000e+00 0.0000000e+00 6.2500000e+00 
0.0000000e+00 0.0000000e+00 6.5000000e+00 
0.0000000e+00 0.0000000e+00 6.7500000e+00 
0.0000000e+00 0.0000000e+00 7.0000000e+00 
0.0000000e+00 0.0000000e+00 7.2500000e+00 
0.0000000e+00 0.0000000e+00 7.5000000e+00 
0.0000000e+00 0.0000000e+00 7.7500000e+00 
0.0000000e+00 0.0000000e+00 8.0000000e+00 
0.0000000e+00 0.0000000e+00 8.2500000e+00 
0.0000000e+00 0.0000000e+00 8.5000000e+00 
0.0000000e+00 0.0000000e+00 8.7500000e+00 
0.0000000e+00 0.0000000e+00 9.0000000e+00 
0.0000000e+00 0.0000000e+00 9.2500000e+00 
0.0000000e+00 0.0000000e+00 9.5000000e+00 
0.0000000e+00 0.0000000e+00 9.7500000e+00 
0.0000000e+00 0.0000000e+00 1.0000000e+01 
0.0000000e+00 0.0000000e+00 1.0250000e+01 
0.0000000e+00 0.0000000e+00 1.0500000e+01 
0.0000000e+00 0.0000000e+00 1.0750000e+01 
0.0000000e+00 0.0000000e+00 1.1000000e+01 
0.0000000e+00 0.0000000e+00 1.1250000e+01 
0.0000000e+00 0.0000000e+00 1.1500000e+01 
0.0000000e+00 0.0000000e+00 1.1750000e+01 
0.0000000e+00 0.0000000e+00 1.2000000e+01 
0.0000000e+00 0.0000000e+00 1.2250000e+01 
0.0000000e+00 0.0000000e+00 1.2500000e+01 
0.0000000e+00 0.0000000e+00 1.2750000e+01 
0.0000000e+00 0.0000000e+00 1.3000000e+01 
0.0000000e+00 0.0000000e+00 1.3250000e+01 
0.0000000e+00 0.0000000e+00 1.3500000e+01 
0.0000000e+00 0.0000000e+00 1.3750000e+01 
0.0000000e+00 0.0000000e+00 1.4000000e+01 
0.0000000e+00 0.0000000e+00 1.4250000e+01 
0.0000000e+00 0.0000000e+00 1.4500000e+01 
0.0000000e+00 0.0000000e+00 1.4750000e+01 
0.0000000e+00 0.0000000e+00 1.5000000e+01 
0.0000000e+00 0.0000000e+00 1.5250000e+01 
0.0000000e+00 0.0000000e+00 1.5500000e+01 
0.0000000e+00 0.0000000e+00 1.5750000e+01 
0.0000000e+00 0.0000000e+00 1.6000000e+01 
0.0000000e+00 0.0000000e+00 1.6250000e+01 
0.0000000e+00 0.0000000e+00 1.6500000e+01 
0.0000000e+00 0.0000000e+00 1.6750000e+01 
0.0000000e+00 0.0000000e+00 1.7000000e+01 
0.0000000e+00 0.0000000e+00 1.7250000e+01 
0.0000000e+00 0.0000000e+00 1.7500000e+01 
0.0000000e+00 0.0000000e+00 1.7750000e+01 
0.0000000e+00 0.0000000e+00 1.8000000e+01 
5.0000000e-01 0.0000000e+00 3.0000000e+00 
5.0000000e-01 0.0000000e+00 6.0000000e+00 
5.0000000e-01 0.0000000e+00 9.0000000e+00 
5.0000000e-01 0.0000000e+00 1.2000000e+01 
5.0000000e-01 0.0000000e+00 1.5000000e+01 
5.0000000e-01 0.0000000e+00 1.8000000e+01 
1.0000000e+00 0.0000000e+00 3.0000000e+00 
1.0000000e+00 0.0000000e+00 6.0000000e+00 
1.0000000e+00 0.0000000e+00 9.0000000e+00 
1.0000000e+00 0.0000000e+00 1.2000000e+01 
1.0000000e+00 0.0000000e+00 1.5000000e+01 
1.0000000e+00 0.0000000e+00 1.8000000e+01 
1.5000000e+00 0.0000000e+00 3.0000000e+00 
1.5000000e+00 0.0000000e+00 6.0000000e+00 
1.5000000e+00 0.0000000e+00 9.0000000e+00 
1.5000000e+00 0.0000000e+00 1.2000000e+01 
1.5000000e+00 0.0000000e+00 1.5000000e+01 
1.5000000e+00 0.0000000e+00 1.8000000e+01 
2.0000000e+00 0.0000000e+00 3.0000000e+00 
2.0000000e+00 0.0000000e+00 6.0000000e+00 
2.0000000e+00 0.0000000e+00 9.0000000e+00 
2.0000000e+00 0.0000000e+00 1.2000000e+01 
2.0000000e+00 0.0000000e+00 1.5000000e+01 
2.0000000e+00 0.0000000e+00 1.8000000e+01 
2.5000000e+00 0.0000000e+00 3.0000000e+00 
2.5000000e+00 0.0000000e+00 6.0000000e+00 
2.5000000e+00 0.0000000e+00 9.0000000e+00 
2.5000000e+00 0.0000000e+00 1.2000000e+01 
2.5000000e+00 0.0000000e+00 1.5000000e+01 
2.5000000e+00 0.0000000e+00 1.8000000e+01 
3.0000000e+00 0.0000000e+00 3.0000000e+00 
3.0000000e+00 0.0000000e+00 6.0000000e+00 
3.0000000e+00 0.0000000e+00 9.0000000e+00 
3.0000000e+00 0.0000000e+00 1.2000000e+01 
3.0000000e+00 0.0000000e+00 1.5000000e+01 
3.0000000e+00 0.0000000e+00 1.8000000e+01 
3.5000000e+00 0.0000000e+00 3.0000000e+00 
3.5000000e+00 0.0000000e+00 6.0000000e+00 
3.5000000e+00 0.0000000e+00 9.0000000e+00 
3.5000000e+00 0.0000000e+00 1.2000000e+01 
3.5000000e+00 0.0000000e+00 1.5000000e+01 
3.5000000e+00 0.0000000e+00 1.8000000e+01 
4.0000000e+00 0.0000000e+00 3.0000000e+00 
4.0000000e+00 0.0000000e+00 6.0000000e+00 
4.0000000e+00 0.0000000e+00 9.0000000e+00 
4.0000000e+00 0.0000000e+00 1.2000000e+01 
4.0000000e+00 0.0000000e+00 1.5000000e+01 
4.0000000e+00 0.0000000e+00 1.8000000e+01 
4.5000000e+00 0.0000000e+00 3.0000000e+00 
4.5000000e+00 0.0000000e+00 6.0000000e+00 
4.5000000e+00 0.0000000e+00 9.0000000e+00 
4.5000000e+00 0.0000000e+00 1.2000000e+01 
4.5000000e+00 0.0000000e+00 1.5000000e+01 
4.5000000e+00 0.0000000e+00 1.8000000e+01 
5.0000000e+00 0.0000000e+00 3.0000000e+00 
5.0000000e+00 0.0000000e+00 6.0000000e+00 
5.0000000e+00 0.0000000e+00 9.0000000e+00 
5.0000000e+00 0.0000000e+00 1.2000000e+01 
5.0000000e+00 0.0000000e+00 1.5000000e+01 
5.0000000e+00 0.0000000e+00 1.8000000e+01 
5.5000000e+00 0.0000000e+00 3.0000000e+00 
5.5000000e+00 0.0000000e+00 6.0000000e+00 
5.5000000e+00 0.0000000e+00 9.0000000e+00 
5.5000000e+00 0.0000000e+00 1.2000000e+01 
5.5000000e+00 0.0000000e+00 1.5000000e+01 
5.5000000e+00 0.0000000e+00 1.8000000e+01 
6.0000000e+00 0.0000000e+00 0.0000000e+00 
6.0000000e+00 0.0000000e+00 2.5000000e-01 
6.0000000e+00 0.0000000e+00 5.0000000e-01 
6.0000000e+00 0.0000000e+00 7.5000000e-01 
6.0000000e+00 0.0000000e+00 1.0000000e+00 
6.0000000e+00 0.0000000e+00 1.2500000e+00 
6.0000000e+00 0.0000000e+00 1.5000000e+00 
6.0000000e+00 0.0000000e+00 1.7500000e+00 
6.0000000e+00 0.0000000e+00 2.0000000e+00 
6.0000000e+00 0.0000000e+00 2.2500000e+00 
6.0000000e+00 0.0000000e+00 2.5000000e+00 
6.0000000e+00 0.0000000e+00 2.7500000e+00 
6.0000000e+00 0.0000000e+00 3.0000000e+00 
6.0000000e+00 0.0000000e+00 3.2500000e+00 
6.0000000e+00 0.0000000e+00 3.5000000e+00 
6.0000000e+00 0.0000000e+00 3.7500000e+00 
6.0000000e+00 0.0000000e+00 4.0000000e+00 
6.0000000e+00 0.0000000e+00 4.2500000e+00 
6.0000000e+00 0.0000000e+00 4.5000000e+00 
6.0000000e+00 0.0000000e+00 4.7500000e+00 
6.0000000e+00 0.0000000e+00 5.0000000e+00 
6.0000000e+00 0.0000000e+00 5.2500000e+00 
6.0000000e+00 0.0000000e+00 5.5000000e+00 
6.0000000e+00 0.0000000e+00 5.7500000e+00 
6.0000000e+00 0.0000000e+00 6.0000000e+00 
6.0000000e+00 0.0000000e+00 6.2500000e+00 
6.0000000e+00 0.0000000e+00 6.5000000e+00 
6.0000000e+00 0.0000000e+00 6.7500000e+00 
6.0000000e+00 0.0000000e+00 7.0000000e+00 
6.0000000e+00 0.0000000e+00 7.2500000e+00 
6.0000000e+00 0.0000000e+00 7.5000000e+00 
6.0000000e+00 0.0000000e+00 7.7500000e+00 
6.0000000e+00 0.0000000e+00 8.0000000e+00 
6.0000000e+00 0.0000000e+00 8.2500000e+00 
6.0000000e+00 0.0000000e+00 8.5000000e+00 
6.0000000e+00 0.0000000e+00 8.7500000e+00 
6.0000000e+00 0.0000000e+00 9.0000000e+00 
6.0000000e+00 0.0000000e+00 9.2500000e+00 
6.0000000e+00 0.0000000e+00 9.5000000e+00 
6.0000000e+00 0.0000000e+00 9.7500000e+00 
6.0000000e+00 0.0000000e+00 1.0000000e+01 
6.0000000e+00 0.0000000e+00 1.0250000e+01 
6.0000000e+00 0.0000000e+00 1.0500000e+01 
6.0000000e+00 0.0000000e+00 1.0750000e+01 
6.0000000e+00 0.0000000e+00 1.1000000e+01 
6.0000000e+00 0.0000000e+00 1.1250000e+01 
6.0000000e+00 0.0000000e+00 1.1500000e+01 
6.0000000e+00 0.0000000e+00 1.1750000e+01 
6.0000000e+00 0.0000000e+00 1.2000000e+01 
6.0000000e+00 0.0000000e+00 1.2250000e+01 
6.0000000e+00 0.0000000e+00 1.2500000e+01 
6.0000000e+00 0.0000000e+00 1.2750000e+01 
6.0000000e+00 0.0000000e+00 1.3000000e+01 
6.0000000e+00 0.0000000e+00 1.3250000e+01 
6.0000000e+00 0.0000000e+00 1.3500000e+01 
6.0000000e+00 0.0000000e+00 1.3750000e+01 
6.0000000e+00 0.0000000e+00 1.4000000e+01 
6.0000000e+00 0.0000000e+00 1.4250000e+01 
6.0000000e+00 0.0000000e+00 1.4500000e+01 
6.0000000e+00 0.0000000e+00 1.4750000e+01 
6.0000000e+00 0.0000000e+00 1.5000000e+01 
6.0000000e+00 0.0000000e+00 1.5250000e+01 
6.0000000e+00 0.0000000e+00 1.5500000e+01 
6.0000000e+00 0.0000000e+00 1.5750000e+01 
6.0000000e+00 0.0000000e+00 1.6000000e+01 
6.0000000e+00 0.0000000e+00 1.6250000e+01 
6.0000000e+00 0.0000000e+00 1.6500000e+01 
6.0000000e+00 0.0000000e+00 1.6750000e+01 
6.0000000e+00 0.0000000e+00 1.7000000e+01 
6.0000000e+00 0.0000000e+00 1.7250000e+01 
6.0000000e+00 0.0000000e+00 1.7500000e+01 
6.0000000e+00 0.0000000e+00 1.7750000e+01 
6.0000000e+00 0.0000000e+00 1.8000000e+01 

CELLS 216 648
2 0 1
2 1 2
2 2 3
2 3 4
2 4 5
2 5 6
2 6 7
2 7 8
2 8 9
2 9 10
2 10 11
2 11 12
2 12 13
2 13 14
2 14 15
2 15 16
2 16 17
2 17 18
2 18 19
2 19 20
2 20 21
2 21 22
2 22 23
2 23 24
2 24 25
2 25 26
2 26 27
2 27 28
2 28 29
2 29 30
2 30 31
2 31 32
2 32 33
2 33 34
2 34 35
2 35 36
2 36 37
2 37 38
2 38 39
2 39 40
2 40 41
2 41 42
2 42 43
2 43 44
2 44 45
2 45 46
2 46 47
2 47 48
2 48 49
2 49 50
2 50 51
2 51 52
2 52 53
2 53 54
2 54 55
2 55 56
2 56 57
2 57 58
2 58 59
2 59 60
2 60 61
2 61 62
2 62 63
2 63 64
2 64 65
2 65 66
2 66 67
2 67 68
2 68 69
2 69 70
2 70 71
2 71 72
2 139 140
2 140 141
2 141 142
2 142 143
2 143 144
2 144 145
2 145 146
2 146 147
2 147 148
2 148 149
2 149 150
2 150 151
2 151 152
2 152 153
2 153 154
2 154 155
2 155 156
2 156 157
2 157 158
2 158 159
2 159 160
2 160 161
2 161 162
2 162 163
2 163 164
2 164 165
2 165 166
2 166 167
2 167 168
2 168 169
2 169 170
2 170 171
2 171 172
2 172 173
2 173 174
2 174 175
2 175 176
2 176 177
2 177 178
2 178 179
2 179 180
2 180 181
2 181 182
2 182 183
2 183 184
2 184 185
2 185 186
2 186 187
2 187 188
2 188 189
2 189 190
2 190 191
2 191 192
2 192 193
2 193 194
2 194 195
2 195 196
2 196 197
2 197 198
2 198 199
2 199 200
2 200 201
2 201 202
2 202 203
2 203 204
2 204 205
2 205 206
2 206 207
2 207 208
2 208 209
2 209 210
2 210 211
2 12 73
2 73 79
2 79 85
2 85 91
2 91 97
2 97 103
2 103 109
2 109 115
2 115 121
2 121 127
2 127 133
2 133 151
2 24 74
2 74 80
2 80 86
2 86 92
2 92 98
2 98 104
2 104 110
2 110 116
2 116 122
2 122 128
2 128 134
2 134 163
2 36 75
2 75 81
2 81 87
2 87 93
2 93 99
2 99 105
2 105 111
2 111 117
2 117 123
2 123 129
2 129 135
2 135 175
2 48 76
2 76 82
2 82 88
2 88 94
2 94 100
2 100 106
2 106 112
2 112 118
2 118 124
2 124 130
2 130 136
2 136 187
2 60 77
2 77 83
2 83 89
2 89 95
2 95 101
2 101 107
2 107 113
2 113 119
2 119 125
2 125 131
2 131 137
2 137 199
2 72 78
2 78 84
2 84 90
2 90 96
2 96 102
2 102 108
2 108 114
2 114 120
2 120 126
2 126 132
2 132 138
2 138 211

CELL_TYPES 216
3
3
3
3
3
3
3
3
3
3
3
3
3
3
3
3
3
3
3
3
3
3
3
3
3
3
3
3
3
3
3
3
3
3
3
3
3
3
3
3
3
3
3
3
3
3
3
3
3
3
3
3
3
3
3
3
3
3
3
3
3
3
3
3
3
3
3
3
3
3
3
3
3
3
3
3
3
3
3
3
3
3
3
3
3
3
3
3
3
3
3
3
3
3
3
3
3
3
3
3
3
3
3
3
3
3
3
3
3
3
3
3
3
3
3
3
3
3
3
3
3
3
3
3
3
3
3
3
3
3
3
3
3
3
3
3
3
3
3
3
3
3
3
3
3
3
3
3
3
3
3
3
3
3
3
3
3
3
3
3
3
3
3
3
3
3
3
3
3
3
3
3
3
3
3
3
3
3
3
3
3
3
3
3
3
3
3
3
3
3
3
3
3
3
3
3
3
3
3
3
3
3
3
3
3
3
3
3
3
3
3
3
3
3
3
3
POINT_DATA 212
FIELD FieldData 7
DISPLACEMENT 3 212  float
0.0000000e+00 0.0000000e+00 0.0000000e+00 
-3.9182910e-06 0.0000000e+00 -6.2523391e-08 
-7.6722854e-06 0.0000000e+00 -1.2504678e-07 
-1.1097687e-05 0.0000000e+00 -1.8757018e-07 
-1.4030200e-05 0.0000000e+00 -2.5009356e-07 
-1.6305527e-05 0.0000000e+00 -3.1261695e-07 
-1.7759372e-05 0.0000000e+00 -3.7514036e-07 
-1.8227440e-05 0.0000000e+00 -4.3766374e-07 
-1.7545432e-05 0.0000000e+00 -5.0018713e-07 
-1.5549052e-05 0.0000000e+00 -5.6271051e-07 
-1.2074006e-05 0.0000000e+00 -6.2523389e-07 
-6.9559956e-06 0.0000000e+00 -6.8775734e-07 
-3.0725044e-08 0.0000000e+00 -7.5028072e-07 
6.2019899e-06 0.0000000e+00 -8.0238351e-07 
9.4943471e-06 0.0000000e+00 -8.5448636e-07 
1.0388660e-05 0.0000000e+00 -9.0658921e-07 
9.4272436e-06 0.0000000e+00 -9.5869200e-07 
7.1524146e-06 0.0000000e+00 -1.0107948e-06 
4.1064859e-06 0.0000000e+00 -1.0628977e-06 
8.3177378e-07 0.0000000e+00 -1.1150005e-06 
-2.1294074e-06 0.0000000e+00 -1.1671033e-06 
-4.2347428e-06 0.0000000e+00 -1.2192062e-06 
-4.9419177e-06 0.0000000e+00 -1.2713090e-06 
-3.7086165e-06 0.0000000e+00 -1.3234118e-06 
7.4751023e-09 0.0000000e+00 -1.3755147e-06 
3.8918374e-06 0.0000000e+00 -1.4171969e-06 
5.5686378e-06 0.0000000e+00 -1.4588792e-06 
5.4882230e-06 0.0000000e+00 -1.5005614e-06 
4.1009403e-06 0.0000000e+00 -1.5422437e-06 
1.8571357e-06 0.0000000e+00 -1.5839260e-06 
-7.9284388e-07 0.0000000e+00 -1.6256082e-06 
-3.3986516e-06 0.0000000e+00 -1.6672905e-06 
-5.5099408e-06 0.0000000e+00 -1.7089727e-06 
-6.6763650e-06 0.0000000e+00 -1.7506550e-06 
-6.4475771e-06 0.0000000e+00 -1.7923372e-06 
-4.3732307e-06 0.0000000e+00 -1.8340195e-06 
-2.9790397e-09 0.0000000e+00 -1.8757017e-06 
4.3002124e-06 0.0000000e+00 -1.9069635e-06 
6.1978117e-06 0.0000000e+00 -1.9382251e-06 
6.1768187e-06 0.0000000e+00 -1.9694869e-06 
4.7242311e-06 0.0000000e+00 -2.0007485e-06 
2.3270477e-06 0.0000000e+00 -2.0320103e-06 
-5.2773260e-07 0.0000000e+00 -2.0632719e-06 
-3.3531112e-06 0.0000000e+00 -2.0945336e-06 
-5.6620897e-06 0.0000000e+00 -2.1257954e-06 
-6.9676694e-06 0.0000000e+00 -2.1570570e-06 
-6.7828514e-06 0.0000000e+00 -2.1883186e-06 
-4.6206374e-06 0.0000000e+00 -2.2195804e-06 
5.9717111e-09 0.0000000e+00 -2.2508420e-06 
4.7670087e-06 0.0000000e+00 -2.2716833e-06 
7.2835251e-06 0.0000000e+00 -2.2925244e-06 
7.9690490e-06 0.0000000e+00 -2.3133655e-06 
7.2371063e-06 0.0000000e+00 -2.3342066e-06 
5.5012247e-06 0.0000000e+00 -2.3550479e-06 
3.1749316e-06 0.0000000e+00 -2.3758889e-06 
6.7175336e-07 0.0000000e+00 -2.3967300e-06 
-1.5947827e-06 0.0000000e+00 -2.4175711e-06 
-3.2111493e-06 0.0000000e+00 -2.4384124e-06 
-3.7638199e-06 0.0000000e+00 -2.4592534e-06 
-2.8392669e-06 0.0000000e+00 -2.4800945e-06 
-2.3963521e-08 0.0000000e+00 -2.5009356e-06 
2.2515928e-06 0.0000000e+00 -2.5113563e-06 
1.7534579e-06 0.0000000e+00 -2.5217769e-06 
-8.1001144e-07 0.0000000e+00 -2.5321974e-06 
-4.7304588e-06 0.0000000e+00 -2.5426179e-06 
-9.2995269e-06 0.0000000e+00 -2.5530385e-06 
-1.3808859e-05 0.0000000e+00 -2.5634590e-06 
-1.7550099e-05 0.0000000e+00 -2.5738796e-06 
-1.9814890e-05 0.0000000e+00 -2.5843001e-06 
-1.9894875e-05 0.0000000e+00 -2.5947209e-06 
-1.7081697e-05 0.0000000e+00 -2.6051414e-06 
-1.0667000e-05 0.0000000e+00 -2.6155619e-06 
5.7574667e-08 0.0000000e+00 -2.6259825e-06 
-2.5604203e-08 0.0000000e+00 -2.5545703e-05 
6.2292518e-09 0.0000000e+00 -2.1137690e-05 
-2.4825331e-09 0.0000000e+00 -2.2609656e-05 
4.9764259e-09 0.0000000e+00 -2.3631632e-05 
-1.9969601e-08 0.0000000e+00 -1.9990259e-05 
4.7978890e-08 0.0000000e+00 -3.7013338e-05 
-2.0483363e-08 0.0000000e+00 -6.1217710e-05 
4.9834017e-09 0.0000000e+00 -5.2691586e-05 
-1.9860265e-09 0.0000000e+00 -5.4958644e-05 
3.9811408e-09 0.0000000e+00 -5.6509849e-05 
-1.5975681e-08 0.0000000e+00 -4.9684550e-05 
3.8383114e-08 0.0000000e+00 -8.0533297e-05 
-1.5362522e-08 0.0000000e+00 -9.8535398e-05 
3.7375512e-09 0.0000000e+00 -8.6806300e-05 
-1.4895200e-09 0.0000000e+00 -8.9691763e-05 
2.9858556e-09 0.0000000e+00 -9.1654591e-05 
-1.1981760e-08 0.0000000e+00 -8.2352904e-05 
2.8787333e-08 0.0000000e+00 -1.2395495e-04 
-1.0241681e-08 0.0000000e+00 -1.3031917e-04 
2.4917008e-09 0.0000000e+00 -1.1630223e-04 
-9.9301334e-10 0.0000000e+00 -1.1962941e-04 
1.9905704e-09 0.0000000e+00 -1.2188626e-04 
-7.9878406e-09 0.0000000e+00 -1.1081572e-04 
1.9191557e-08 0.0000000e+00 -1.6009869e-04 
-5.1208406e-09 0.0000000e+00 -1.5144075e-04 
1.2458503e-09 0.0000000e+00 -1.3605111e-04 
-4.9650667e-10 0.0000000e+00 -1.3964332e-04 
9.9528519e-10 0.0000000e+00 -1.4207658e-04 
-3.9939203e-09 0.0000000e+00 -1.2994472e-04 
9.5957784e-09 0.0000000e+00 -1.8383625e-04 
-1.4794673e-17 0.0000000e+00 -1.5882315e-04 
-2.7693731e-17 0.0000000e+00 -1.4297594e-04 
-4.3030561e-17 0.0000000e+00 -1.4665650e-04 
-5.1723528e-17 0.0000000e+00 -1.4914856e-04 
-4.9719782e-17 0.0000000e+00 -1.3666294e-04 
-5.6202833e-17 0.0000000e+00 -1.9209065e-04 
5.1208406e-09 0.0000000e+00 -1.5144075e-04 
-1.2458504e-09 0.0000000e+00 -1.3605111e-04 
4.9650656e-10 0.0000000e+00 -1.3964332e-04 
-9.9528530e-10 0.0000000e+00 -1.4207658e-04 
3.9939203e-09 0.0000000e+00 -1.2994472e-04 
-9.5957784e-09 0.0000000e+00 -1.8383625e-04 
1.0241681e-08 0.0000000e+00 -1.3031917e-04 
-2.4917008e-09 0.0000000e+00 -1.1630223e-04 
9.9301323e-10 0.0000000e+00 -1.1962941e-04 
-1.9905706e-09 0.0000000e+00 -1.2188626e-04 
7.9878406e-09 0.0000000e+00 -1.1081572e-04 
-1.9191557e-08 0.0000000e+00 -1.6009869e-04 
1.5362522e-08 0.0000000e+00 -9.8535398e-05 
-3.7375512e-09 0.0000000e+00 -8.6806300e-05 
1.4895198e-09 0.0000000e+00 -8.9691763e-05 
-2.9858558e-09 0.0000000e+00 -9.1654591e-05 
1.1981760e-08 0.0000000e+00 -8.2352904e-05 
-2.8787333e-08 0.0000000e+00 -1.2395495e-04 
2.0483363e-08 0.0000000e+00 -6.1217710e-05 
-4.9834017e-09 0.0000000e+00 -5.2691586e-05 
1.9860265e-09 0.0000000e+00 -5.4958644e-05 
-3.9811412e-09 0.0000000e+00 -5.6509849e-05 
1.5975681e-08 0.0000000e+00 -4.9684550e-05 
-3.8383114e-08 0.0000000e+00 -8.0533297e-05 
2.5604203e-08 0.0000000e+00 -2.5545703e-05 
-6.2292518e-09 0.0000000e+00 -2.1137690e-05 
2.4825331e-09 0.0000000e+00 -2.2609656e-05 
-4.9764264e-09 0.0000000e+00 -2.3631632e-05 
1.9969601e-08 0.0000000e+00 -1.9990259e-05 
-4.7978890e-08 0.0000000e+00 -3.7013338e-05 
0.0000000e+00 0.0000000e+00 0.0000000e+00 
3.9182910e-06 0.0000000e+00 -6.2523391e-08 
7.6722854e-06 0.0000000e+00 -1.2504678e-07 
1.1097687e-05 0.0000000e+00 -1.8757018e-07 
1.4030200e-05 0.0000000e+00 -2.5009356e-07 
1.6305527e-05 0.0000000e+00 -3.1261695e-07 
1.7759372e-05 0.0000000e+00 -3.7514036e-07 
1.8227440e-05 0.0000000e+00 -4.3766374e-07 
1.7545432e-05 0.0000000e+00 -5.0018713e-07 
1.5549052e-05 0.0000000e+00 -5.6271051e-07 
1.2074006e-05 0.0000000e+00 -6.2523389e-07 
6.9559956e-06 0.0000000e+00 -6.8775734e-07 
3.0725044e-08 0.0000000e+00 -7.5028072e-07 
-6.2019899e-06 0.0000000e+00 -8.0238351e-07 
-9.4943471e-06 0.0000000e+00 -8.5448636e-07 
-1.0388660e-05 0.0000000e+00 -9.0658921e-07 
-9.4272436e-06 0.0000000e+00 -9.5869200e-07 
-7.1524146e-06 0.0000000e+00 -1.0107948e-06 
-4.1064859e-06 0.0000000e+00 -1.0628977e-06 
-8.3177378e-07 0.0000000e+00 -1.1150005e-06 
2.1294074e-06 0.0000000e+00 -1.1671033e-06 
4.2347428e-06 0.0000000e+00 -1.2192062e-06 
4.9419177e-06 0.0000000e+00 -1.2713090e-06 
3.7086165e-06 0.0000000e+00 -1.3234118e-06 
-7.4751023e-09 0.0000000e+00 -1.3755147e-06 
-3.8918374e-06 0.0000000e+00 -1.4171969e-06 
-5.5686378e-06 0.0000000e+00 -1.4588792e-06 
-5.4882230e-06 0.0000000e+00 -1.5005614e-06 
-4.1009403e-06 0.0000000e+00 -1.5422437e-06 
-1.8571357e-06 0.0000000e+00 -1.5839260e-06 
7.9284388e-07 0.0000000e+00 -1.6256082e-06 
3.3986516e-06 0.0000000e+00 -1.6672905e-06 
5.5099408e-06 0.0000000e+00 -1.7089727e-06 
6.6763650e-06 0.0000000e+00 -1.7506550e-06 
6.4475771e-06 0.0000000e+00 -1.7923372e-06 
4.3732307e-06 0.0000000e+00 -1.8340195e-06 
2.9790397e-09 0.0000000e+00 -1.8757017e-06 
-4.3002124e-06 0.0000000e+00 -1.9069635e-06 
-6.1978117e-06 0.0000000e+00 -1.9382251e-06 
-6.1768187e-06 0.0000000e+00 -1.9694869e-06 
-4.7242311e-06 0.0000000e+00 -2.0007485e-06 
-2.3270477e-06 0.0000000e+00 -2.0320103e-06 
5.2773260e-07 0.0000000e+00 -2.0632719e-06 
3.3531112e-06 0.0000000e+00 -2.0945336e-06 
5.6620897e-06 0.0000000e+00 -2.1257954e-06 
6.9676694e-06 0.0000000e+00 -2.1570570e-06 
6.7828514e-06 0.0000000e+00 -2.1883186e-06 
4.6206374e-06 0.0000000e+00 -2.2195804e-06 
-5.9717116e-09 0.0000000e+00 -2.2508420e-06 
-4.7670087e-06 0.0000000e+00 -2.2716833e-06 
-7.2835251e-06 0.0000000e+00 -2.2925244e-06 
-7.9690490e-06 0.0000000e+00 -2.3133655e-06 
-7.2371063e-06 0.0000000e+00 -2.3342066e-06 
-5.5012247e-06 0.0000000e+00 -2.3550479e-06 
-3.1749316e-06 0.0000000e+00 -2.3758889e-06 
-6.7175336e-07 0.0000000e+00 -2.3967300e-06 
1.5947827e-06 0.0000000e+00 -2.4175711e-06 
3.2111493e-06 0.0000000e+00 -2.4384124e-06 
3.7638199e-06 0.0000000e+00 -2.4592534e-06 
2.8392669e-06 0.0000000e+00 -2.4800945e-06 
2.3963521e-08 0.0000000e+00 -2.5009356e-06 
-2.2515928e-06 0.0000000e+00 -2.5113563e-06 
-1.7534579e-06 0.0000000e+00 -2.5217769e-06 
8.1001144e-07 0.0000000e+00 -2.5321974e-06 
4.7304588e-06 0.0000000e+00 -2.5426179e-06 
9.2995269e-06 0.0000000e+00 -2.5530385e-06 
1.3808859e-05 0.0000000e+00 -2.5634590e-06 
1.7550099e-05 0.0000000e+00 -2.5738796e-06 
1.9814890e-05 0.0000000e+00 -2.5843001e-06 
1.9894875e-05 0.0000000e+00 -2.5947209e-06 
1.7081697e-05 0.0000000e+00 -2.6051414e-06 
1.0667000e-05 0.0000000e+00 -2.6155619e-06 
-5.7574667e-08 0.0000000e+00 -2.6259825e-06 
ROTATION 3 212  float
0.0000000e+00 -1.5782694e-05 0.0000000e+00 
0.0000000e+00 -1.5454101e-05 0.0000000e+00 
0.0000000e+00 -1.4468324e-05 0.0000000e+00 
0.0000000e+00 -1.2825360e-05 0.0000000e+00 
0.0000000e+00 -1.0525210e-05 0.0000000e+00 
0.0000000e+00 -7.5678754e-06 0.0000000e+00 
0.0000000e+00 -3.9533547e-06 0.0000000e+00 
0.0000000e+00 3.1835108e-07 0.0000000e+00 
0.0000000e+00 5.2472428e-06 0.0000000e+00 
0.0000000e+00 1.0833320e-05 0.0000000e+00 
0.0000000e+00 1.7076582e-05 0.0000000e+00 
0.0000000e+00 2.3977031e-05 0.0000000e+00 
0.0000000e+00 3.1534662e-05 0.0000000e+00 
0.0000000e+00 1.8688601e-05 0.0000000e+00 
0.0000000e+00 8.0117961e-06 0.0000000e+00 
0.0000000e+00 -4.9574874e-07 0.0000000e+00 
0.0000000e+00 -6.8340337e-06 0.0000000e+00 
0.0000000e+00 -1.1003059e-05 0.0000000e+00 
0.0000000e+00 -1.3002825e-05 0.0000000e+00 
0.0000000e+00 -1.2833330e-05 0.0000000e+00 
0.0000000e+00 -1.0494577e-05 0.0000000e+00 
0.0000000e+00 -5.9865633e-06 0.0000000e+00 
0.0000000e+00 6.9070956e-07 0.0000000e+00 
0.0000000e+00 9.5372425e-06 0.0000000e+00 
0.0000000e+00 2.0553034e-05 0.0000000e+00 
0.0000000e+00 1.0822094e-05 0.0000000e+00 
0.0000000e+00 2.8925406e-06 0.0000000e+00 
0.0000000e+00 -3.2356263e-06 0.0000000e+00 
0.0000000e+00 -7.5624062e-06 0.0000000e+00 
0.0000000e+00 -1.0087800e-05 0.0000000e+00 
0.0000000e+00 -1.0811806e-05 0.0000000e+00 
0.0000000e+00 -9.7344255e-06 0.0000000e+00 
0.0000000e+00 -6.8556578e-06 0.0000000e+00 
0.0000000e+00 -2.1755036e-06 0.0000000e+00 
0.0000000e+00 4.3060372e-06 0.0000000e+00 
0.0000000e+00 1.2588966e-05 0.0000000e+00 
0.0000000e+00 2.2673279e-05 0.0000000e+00 
0.0000000e+00 1.2076916e-05 0.0000000e+00 
0.0000000e+00 3.4285470e-06 0.0000000e+00 
0.0000000e+00 -3.2718276e-06 0.0000000e+00 
0.0000000e+00 -8.0242071e-06 0.0000000e+00 
0.0000000e+00 -1.0828593e-05 0.0000000e+00 
0.0000000e+00 -1.1684984e-05 0.0000000e+00 
0.0000000e+00 -1.0593380e-05 0.0000000e+00 
0.0000000e+00 -7.5537819e-06 0.0000000e+00 
0.0000000e+00 -2.5661889e-06 0.0000000e+00 
0.0000000e+00 4.3693985e-06 0.0000000e+00 
0.0000000e+00 1.3252980e-05 0.0000000e+00 
0.0000000e+00 2.4084557e-05 0.0000000e+00 
0.0000000e+00 1.4279422e-05 0.0000000e+00 
0.0000000e+00 6.1283959e-06 0.0000000e+00 
0.0000000e+00 -3.6852245e-07 0.0000000e+00 
0.0000000e+00 -5.2113323e-06 0.0000000e+00 
0.0000000e+00 -8.4000339e-06 0.0000000e+00 
0.0000000e+00 -9.9346280e-06 0.0000000e+00 
0.0000000e+00 -9.8151131e-06 0.0000000e+00 
0.0000000e+00 -8.0414902e-06 0.0000000e+00 
0.0000000e+00 -4.6137588e-06 0.0000000e+00 
0.0000000e+00 4.6808032e-07 0.0000000e+00 
0.0000000e+00 7.2040280e-06 0.0000000e+00 
0.0000000e+00 1.5594083e-05 0.0000000e+00 
0.0000000e+00 3.0826052e-06 0.0000000e+00 
0.0000000e+00 -6.5954464e-06 0.0000000e+00 
0.0000000e+00 -1.3440071e-05 0.0000000e+00 
0.0000000e+00 -1.7451268e-05 0.0000000e+00 
0.0000000e+00 -1.8629040e-05 0.0000000e+00 
0.0000000e+00 -1.6973383e-05 0.0000000e+00 
0.0000000e+00 -1.2484299e-05 0.0000000e+00 
0.0000000e+00 -5.1617885e-06 0.0000000e+00 
0.0000000e+00 4.9941486e-06 0.0000000e+00 
0.0000000e+00 1.7983513e-05 0.0000000e+00 
0.0000000e+00 3.3806304e-05 0.0000000e+00 
0.0000000e+00 5.2462525e-05 0.0000000e+00 
0.0000000e+00 6.3886284e-05 0.0000000e+00 
0.0000000e+00 5.4734926e-05 0.0000000e+00 
0.0000000e+00 5.6501798e-05 0.0000000e+00 
0.0000000e+00 5.7677862e-05 0.0000000e+00 
0.0000000e+00 5.0602470e-05 0.0000000e+00 
0.0000000e+00 8.1326165e-05 0.0000000e+00 
0.0000000e+00 7.5724776e-05 0.0000000e+00 
0.0000000e+00 6.8403693e-05 0.0000000e+00 
0.0000000e+00 6.9817193e-05 0.0000000e+00 
0.0000000e+00 7.0758040e-05 0.0000000e+00 
0.0000000e+00 6.5097724e-05 0.0000000e+00 
0.0000000e+00 8.9676687e-05 0.0000000e+00 
0.0000000e+00 7.1152775e-05 0.0000000e+00 
0.0000000e+00 6.5661960e-05 0.0000000e+00 
0.0000000e+00 6.6722081e-05 0.0000000e+00 
0.0000000e+00 6.7427718e-05 0.0000000e+00 
0.0000000e+00 6.3182481e-05 0.0000000e+00 
0.0000000e+00 8.1616701e-05 0.0000000e+00 
0.0000000e+00 5.4272892e-05 0.0000000e+00 
0.0000000e+00 5.0612347e-05 0.0000000e+00 
0.0000000e+00 5.1319097e-05 0.0000000e+00 
0.0000000e+00 5.1789521e-05 0.0000000e+00 
0.0000000e+00 4.8959366e-05 0.0000000e+00 
0.0000000e+00 6.1248844e-05 0.0000000e+00 
0.0000000e+00 2.9187759e-05 0.0000000e+00 
0.0000000e+00 2.7357486e-05 0.0000000e+00 
0.0000000e+00 2.7710861e-05 0.0000000e+00 
0.0000000e+00 2.7946073e-05 0.0000000e+00 
0.0000000e+00 2.6530995e-05 0.0000000e+00 
0.0000000e+00 3.2675736e-05 0.0000000e+00 
0.0000000e+00 1.2673880e-18 0.0000000e+00 
0.0000000e+00 2.0278209e-18 0.0000000e+00 
0.0000000e+00 2.7037612e-18 0.0000000e+00 
0.0000000e+00 2.5347761e-19 0.0000000e+00 
0.0000000e+00 1.3518806e-18 0.0000000e+00 
0.0000000e+00 9.4044542e-19 0.0000000e+00 
0.0000000e+00 -2.9187759e-05 0.0000000e+00 
0.0000000e+00 -2.7357486e-05 0.0000000e+00 
0.0000000e+00 -2.7710861e-05 0.0000000e+00 
0.0000000e+00 -2.7946073e-05 0.0000000e+00 
0.0000000e+00 -2.6530995e-05 0.0000000e+00 
0.0000000e+00 -3.2675736e-05 0.0000000e+00 
0.0000000e+00 -5.4272892e-05 0.0000000e+00 
0.0000000e+00 -5.0612347e-05 0.0000000e+00 
0.0000000e+00 -5.1319097e-05 0.0000000e+00 
0.0000000e+00 -5.1789521e-05 0.0000000e+00 
0.0000000e+00 -4.8959366e-05 0.0000000e+00 
0.0000000e+00 -6.1248844e-05 0.0000000e+00 
0.0000000e+00 -7.1152775e-05 0.0000000e+00 
0.0000000e+00 -6.5661960e-05 0.0000000e+00 
0.0000000e+00 -6.6722081e-05 0.0000000e+00 
0.0000000e+00 -6.7427718e-05 0.0000000e+00 
0.0000000e+00 -6.3182481e-05 0.0000000e+00 
0.0000000e+00 -8.1616701e-05 0.0000000e+00 
0.0000000e+00 -7.5724776e-05 0.0000000e+00 
0.0000000e+00 -6.8403693e-05 0.0000000e+00 
0.0000000e+00 -6.9817193e-05 0.0000000e+00 
0.0000000e+00 -7.0758040e-05 0.0000000e+00 
0.0000000e+00 -6.5097724e-05 0.0000000e+00 
0.0000000e+00 -8.9676687e-05 0.0000000e+00 
0.0000000e+00 -6.3886284e-05 0.0000000e+00 
0.0000000e+00 -5.4734926e-05 0.0000000e+00 
0.0000000e+00 -5.6501798e-05 0.0000000e+00 
0.0000000e+00 -5.7677862e-05 0.0000000e+00 
0.0000000e+00 -5.0602470e-05 0.0000000e+00 
0.0000000e+00 -8.1326165e-05 0.0000000e+00 
0.0000000e+00 1.5782694e-05 0.0000000e+00 
0.0000000e+00 1.5454101e-05 0.0000000e+00 
0.0000000e+00 1.4468324e-05 0.0000000e+00 
0.0000000e+00 1.2825360e-05 0.0000000e+00 
0.0000000e+00 1.0525210e-05 0.0000000e+00 
0.0000000e+00 7.5678754e-06 0.0000000e+00 
0.0000000e+00 3.9533547e-06 0.0000000e+00 
0.0000000e+00 -3.1835108e-07 0.0000000e+00 
0.0000000e+00 -5.2472428e-06 0.0000000e+00 
0.0000000e+00 -1.0833320e-05 0.0000000e+00 
0.0000000e+00 -1.7076582e-05 0.0000000e+00 
0.0000000e+00 -2.3977031e-05 0.0000000e+00 
0.0000000e+00 -3.1534662e-05 0.0000000e+00 
0.0000000e+00 -1.8688601e-05 0.0000000e+00 
0.0000000e+00 -8.0117961e-06 0.0000000e+00 
0.0000000e+00 4.9574874e-07 0.0000000e+00 
0.0000000e+00 6.8340337e-06 0.0000000e+00 
0.0000000e+00 1.1003059e-05 0.0000000e+00 
0.0000000e+00 1.3002825e-05 0.0000000e+00 
0.0000000e+00 1.2833330e-05 0.0000000e+00 
0.0000000e+00 1.0494577e-05 0.0000000e+00 
0.0000000e+00 5.9865633e-06 0.0000000e+00 
0.0000000e+00 -6.9070956e-07 0.0000000e+00 
0.0000000e+00 -9.5372425e-06 0.0000000e+00 
0.0000000e+00 -2.0553034e-05 0.0000000e+00 
0.0000000e+00 -1.0822094e-05 0.0000000e+00 
0.0000000e+00 -2.8925406e-06 0.0000000e+00 
0.0000000e+00 3.2356263e-06 0.0000000e+00 
0.0000000e+00 7.5624062e-06 0.0000000e+00 
0.0000000e+00 1.0087800e-05 0.0000000e+00 
0.0000000e+00 1.0811806e-05 0.0000000e+00 
0.0000000e+00 9.7344255e-06 0.0000000e+00 
0.0000000e+00 6.8556578e-06 0.0000000e+00 
0.0000000e+00 2.1755036e-06 0.0000000e+00 
0.0000000e+00 -4.3060372e-06 0.0000000e+00 
0.0000000e+00 -1.2588966e-05 0.0000000e+00 
0.0000000e+00 -2.2673279e-05 0.0000000e+00 
0.0000000e+00 -1.2076916e-05 0.0000000e+00 
0.0000000e+00 -3.4285470e-06 0.0000000e+00 
0.0000000e+00 3.2718276e-06 0.0000000e+00 
0.0000000e+00 8.0242071e-06 0.0000000e+00 
0.0000000e+00 1.0828593e-05 0.0000000e+00 
0.0000000e+00 1.1684984e-05 0.0000000e+00 
0.0000000e+00 1.0593380e-05 0.0000000e+00 
0.0000000e+00 7.5537819e-06 0.0000000e+00 
0.0000000e+00 2.5661889e-06 0.0000000e+00 
0.0000000e+00 -4.3693985e-06 0.0000000e+00 
0.0000000e+00 -1.3252980e-05 0.0000000e+00 
0.0000000e+00 -2.4084557e-05 0.0000000e+00 
0.0000000e+00 -1.4279422e-05 0.0000000e+00 
0.0000000e+00 -6.1283959e-06 0.0000000e+00 
0.0000000e+00 3.6852245e-07 0.0000000e+00 
0.0000000e+00 5.2113323e-06 0.0000000e+00 
0.0000000e+00 8.4000339e-06 0.0000000e+00 
0.0000000e+00 9.9346280e-06 0.0000000e+00 
0.0000000e+00 9.8151131e-06 0.0000000e+00 
0.0000000e+00 8.0414902e-06 0.0000000e+00 
0.0000000e+00 4.6137588e-06 0.0000000e+00 
0.0000000e+00 -4.6808032e-07 0.0000000e+00 
0.0000000e+00 -7.2040280e-06 0.0000000e+00 
0.0000000e+00 -1.5594083e-05 0.0000000e+00 
0.0000000e+00 -3.0826052e-06 0.0000000e+00 
0.0000000e+00 6.5954464e-06 0.0000000e+00 
0.0000000e+00 1.3440071e-05 0.0000000e+00 
0.0000000e+00 1.7451268e-05 0.0000000e+00 