# vtk DataFile Version 4.0
vtk output
ASCII
DATASET UNSTRUCTURED_GRID
POINTS 212 float
0.0000000e+00 0.0000000e+00 0.0000000e+00 
0.0000000e+00 0.0000000e+00 2.5000000e-01 
0.0000000e+00 0.0000000e+00 5.0000000e-01 
0.0000000e+00 0.0000000e+00 7.5000000e-01 
0.0000000e+00 0.0000000e+00 1.0000000e+00 
0.0000000e+00 0.0000000e+00 1.2500000e+00 
0.0000000e+00 0.0000000e+00 1.5000000e+00 
0.0000000e+00 0.0000000e+00 1.7500000e+00 
0.0000000e+00 0.0000000e+00 2.0000000e+00 
0.0000000e+00 0.0000000e+00 2.2500000e+00 
0.0000000e+00 0.0000000e+00 2.5000000e+00 
0.0000000e+00 0.0000000e+00 2.7500000e+00 
0.0000000e+00 0.0000000e+00 3.0000000e+00 
0.0000000e+00 0.0000000e+00 3.2500000e+00 
0.0000000e+00 0.0000000e+00 3.5000000e+00 
0.0000000e+00 0.0000000e+00 3.7500000e+00 
0.0000000e+00 0.0000000e+00 4.0000000e+00 
0.0000000e+00 0.0000000e+00 4.2500000e+00 
0.0000000e+00 0.0000000e+00 4.5000000e+00 
0.0000000e+00 0.0000000e+00 4.7500000e+00 
0.0000000e+00 0.0000000e+00 5.0000000e+00 
0.0000000e+00 0.0000000e+00 5.2500000e+00 
0.0000000e+00 0.0000000e+00 5.5000000e+00 
0.0000000e+00 0.0000000e+00 5.7500000e+00 
0.0000000e+00 0.0000000e+00 6.0000000e+00 
0.0000000e+00 0.0000000e+00 6.2500000e+00 
0.0000000e+00 0.0000000e+00 6.5000000e+00 
0.0000000e+00 0.0000000e+00 6.7500000e+00 
0.0000000e+00 0.0000000e+00 7.0000000e+00 
0.0000000e+00 0.0000000e+00 7.2500000e+00 
0.0000000e+00 0.0000000e+00 7.5000000e+00 
0.0000000e+00 0.0000000e+00 7.7500000e+00 
0.0000000e+00 0.0000000e+00 8.0000000e+00 
0.0000000e+00 0.0000000e+00 8.2500000e+00 
0.0000000e+00 0.0000000e+00 8.5000000e+00 
0.0000000e+00 0.0000000e+00 8.7500000e+00 
0.0000000e+00 0.0000000e+00 9.0000000e+00 
0.0000000e+00 0.0000000e+00 9.2500000e+00 
0.0000000e+00 0.0000000e+00 9.5000000e+00 
0.0000000e+00 0.0000000e+00 9.7500000e+00 
0.0000000e+00 0.0000000e+00 1.0000000e+01 
0.0000000e+00 0.0000000e+00 1.0250000e+01 
0.0000000e+00 0.0000000e+00 1.0500000e+01 
0.0000000e+00 0.0000000e+00 1.0750000e+01 
0.0000000e+00 0.0000000e+00 1.1000000e+01 
0.0000000e+00 0.0000000e+00 1.1250000e+01 
0.0000000e+00 0.0000000e+00 1.1500000e+01 
0.0000000e+00 0.0000000e+00 1.1750000e+01 
0.0000000e+00 0.0000000e+00 1.2000000e+01 
0.0000000e+00 0.0000000e+00 1.2250000e+01 
0.0000000e+00 0.0000000e+00 1.2500000e+01 
0.0000000e+00 0.0000000e+00 1.2750000e+01 
0.0000000e+00 0.0000000e+00 1.3000000e+01 
0.0000000e+00 0.0000000e+00 1.3250000e+01 
0.0000000e+00 0.0000000e+00 1.3500000e+01 
0.0000000e+00 0.0000000e+00 1.3750000e+01 
0.0000000e+00 0.0000000e+00 1.4000000e+01 
0.0000000e+00 0.0000000e+00 1.4250000e+01 
0.0000000e+00 0.0000000e+00 1.4500000e+01 
0.0000000e+00 0.0000000e+00 1.4750000e+01 
0.0000000e+00 0.0000000e+00 1.5000000e+01 
0.0000000e+00 0.0000000e+00 1.5250000e+01 
0.0000000e+00 0.0000000e+00 1.5500000e+01 
0.0000000e+00 0.0000000e+00 1.5750000e+01 
0.0000000e+00 0.0000000e+00 1.6000000e+01 
0.0000000e+00 0.0000000e+00 1.6250000e+01 
0.0000000e+00 0.0000000e+00 1.6500000e+01 
0.0000000e+00 0.0000000e+00 1.6750000e+01 
0.0000000e+00 0.0000000e+00 1.7000000e+01 
0.0000000e+00 0.0000000e+00 1.7250000e+01 
0.0000000e+00 0.0000000e+00 1.7500000e+01 
0.0000000e+00 0.0000000e+00 1.7750000e+01 
0.0000000e+00 0.0000000e+00 1.8000000e+01 
6.0000000e+00 0.0000000e+00 0.0000000e+00 
6.0000000e+00 0.0000000e+00 2.5000000e-01 
6.0000000e+00 0.0000000e+00 5.0000000e-01 
6.0000000e+00 0.0000000e+00 7.5000000e-01 
6.0000000e+00 0.0000000e+00 1.0000000e+00 
6.0000000e+00 0.0000000e+00 1.2500000e+00 
6.0000000e+00 0.0000000e+00 1.5000000e+00 
6.0000000e+00 0.0000000e+00 1.7500000e+00 
6.0000000e+00 0.0000000e+00 2.0000000e+00 
6.0000000e+00 0.0000000e+00 2.2500000e+00 
6.0000000e+00 0.0000000e+00 2.5000000e+00 
6.0000000e+00 0.0000000e+00 2.7500000e+00 
6.0000000e+00 0.0000000e+00 3.0000000e+00 
6.0000000e+00 0.0000000e+00 3.2500000e+00 
6.0000000e+00 0.0000000e+00 3.5000000e+00 
6.0000000e+00 0.0000000e+00 3.7500000e+00 
6.0000000e+00 0.0000000e+00 4.0000000e+00 
6.0000000e+00 0.0000000e+00 4.2500000e+00 
6.0000000e+00 0.0000000e+00 4.5000000e+00 
6.0000000e+00 0.0000000e+00 4.7500000e+00 
6.0000000e+00 0.0000000e+00 5.0000000e+00 
6.0000000e+00 0.0000000e+00 5.2500000e+00 
6.0000000e+00 0.0000000e+00 5.5000000e+00 
6.0000000e+00 0.0000000e+00 5.7500000e+00 
6.0000000e+00 0.0000000e+00 6.0000000e+00 
6.0000000e+00 0.0000000e+00 6.2500000e+00 
6.0000000e+00 0.0000000e+00 6.5000000e+00 
6.0000000e+00 0.0000000e+00 6.7500000e+00 
6.0000000e+00 0.0000000e+00 7.0000000e+00 
6.0000000e+00 0.0000000e+00 7.2500000e+00 
6.0000000e+00 0.0000000e+00 7.5000000e+00 
6.0000000e+00 0.0000000e+00 7.7500000e+00 
6.0000000e+00 0.0000000e+00 8.0000000e+00 
6.0000000e+00 0.0000000e+00 8.2500000e+00 
6.0000000e+00 0.0000000e+00 8.5000000e+00 
6.0000000e+00 0.0000000e+00 8.7500000e+00 
6.0000000e+00 0.0000000e+00 9.0000000e+00 
6.0000000e+00 0.0000000e+00 9.2500000e+00 
6.0000000e+00 0.0000000e+00 9.5000000e+00 
6.0000000e+00 0.0000000e+00 9.7500000e+00 
6.0000000e+00 0.0000000e+00 1.0000000e+01 
6.0000000e+00 0.0000000e+00 1.0250000e+01 
6.0000000e+00 0.0000000e+00 1.0500000e+01 
6.0000000e+00 0.0000000e+00 1.0750000e+01 
6.0000000e+00 0.0000000e+00 1.1000000e+01 
6.0000000e+00 0.0000000e+00 1.1250000e+01 
6.0000000e+00 0.0000000e+00 1.1500000e+01 
6.0000000e+00 0.0000000e+00 1.1750000e+01 
6.0000000e+00 0.0000000e+00 1.2000000e+01 
6.0000000e+00 0.0000000e+00 1.2250000e+01 
6.0000000e+00 0.0000000e+00 1.2500000e+01 
6.0000000e+00 0.0000000e+00 1.2750000e+01 
6.0000000e+00 0.0000000e+00 1.3000000e+01 
6.0000000e+00 0.0000000e+00 1.3250000e+01 
6.0000000e+00 0.0000000e+00 1.3500000e+01 
6.0000000e+00 0.0000000e+00 1.3750000e+01 
6.0000000e+00 0.0000000e+00 1.4000000e+01 
6.0000000e+00 0.0000000e+00 1.4250000e+01 
6.0000000e+00 0.0000000e+00 1.4500000e+01 
6.0000000e+00 0.0000000e+00 1.4750000e+01 
6.0000000e+00 0.0000000e+00 1.5000000e+01 
6.0000000e+00 0.0000000e+00 1.5250000e+01 
6.0000000e+00 0.0000000e+00 1.5500000e+01 
6.0000000e+00 0.0000000e+00 1.5750000e+01 
6.0000000e+00 0.0000000e+00 1.6000000e+01 
6.0000000e+00 0.0000000e+00 1.6250000e+01 
6.0000000e+00 0.0000000e+00 1.6500000e+01 
6.0000000e+00 0.0000000e+00 1.6750000e+01 
6.0000000e+00 0.0000000e+00 1.7000000e+01 
6.0000000e+00 0.0000000e+00 1.7250000e+01 
6.0000000e+00 0.0000000e+00 1.7500000e+01 
6.0000000e+00 0.0000000e+00 1.7750000e+01 
6.0000000e+00 0.0000000e+00 1.8000000e+01 
5.0000000e-01 0.0000000e+00 3.0000000e+00 
1.0000000e+00 0.0000000e+00 3.0000000e+00 
1.5000000e+00 0.0000000e+00 3.0000000e+00 
2.0000000e+00 0.0000000e+00 3.0000000e+00 
2.5000000e+00 0.0000000e+00 3.0000000e+00 
3.0000000e+00 0.0000000e+00 3.0000000e+00 
3.5000000e+00 0.0000000e+00 3.0000000e+00 
4.0000000e+00 0.0000000e+00 3.0000000e+00 
4.5000000e+00 0.0000000e+00 3.0000000e+00 
5.0000000e+00 0.0000000e+00 3.0000000e+00 
5.5000000e+00 0.0000000e+00 3.0000000e+00 
5.0000000e-01 0.0000000e+00 6.0000000e+00 
1.0000000e+00 0.0000000e+00 6.0000000e+00 
1.5000000e+00 0.0000000e+00 6.0000000e+00 
2.0000000e+00 0.0000000e+00 6.0000000e+00 
2.5000000e+00 0.0000000e+00 6.0000000e+00 
3.0000000e+00 0.0000000e+00 6.0000000e+00 
3.5000000e+00 0.0000000e+00 6.0000000e+00 
4.0000000e+00 0.0000000e+00 6.0000000e+00 
4.5000000e+00 0.0000000e+00 6.0000000e+00 
5.0000000e+00 0.0000000e+00 6.0000000e+00 
5.5000000e+00 0.0000000e+00 6.0000000e+00 
5.0000000e-01 0.0000000e+00 9.0000000e+00 
1.0000000e+00 0.0000000e+00 9.0000000e+00 
1.5000000e+00 0.0000000e+00 9.0000000e+00 
2.0000000e+00 0.0000000e+00 9.0000000e+00 
2.5000000e+00 0.0000000e+00 9.0000000e+00 
3.0000000e+00 0.0000000e+00 9.0000000e+00 
3.5000000e+00 0.0000000e+00 9.0000000e+00 
4.0000000e+00 0.0000000e+00 9.0000000e+00 
4.5000000e+00 0.0000000e+00 9.0000000e+00 
5.0000000e+00 0.0000000e+00 9.0000000e+00 
5.5000000e+00 0.0000000e+00 9.0000000e+00 
5.0000000e-01 0.0000000e+00 1.2000000e+01 
1.0000000e+00 0.0000000e+00 1.2000000e+01 
1.5000000e+00 0.0000000e+00 1.2000000e+01 
2.0000000e+00 0.0000000e+00 1.2000000e+01 
2.5000000e+00 0.0000000e+00 1.2000000e+01 
3.0000000e+00 0.0000000e+00 1.2000000e+01 
3.5000000e+00 0.0000000e+00 1.2000000e+01 
4.0000000e+00 0.0000000e+00 1.2000000e+01 
4.5000000e+00 0.0000000e+00 1.2000000e+01 
5.0000000e+00 0.0000000e+00 1.2000000e+01 
5.5000000e+00 0.0000000e+00 1.2000000e+01 
5.0000000e-01 0.0000000e+00 1.5000000e+01 
1.0000000e+00 0.0000000e+00 1.5000000e+01 
1.5000000e+00 0.0000000e+00 1.5000000e+01 
2.0000000e+00 0.0000000e+00 1.5000000e+01 
2.5000000e+00 0.0000000e+00 1.5000000e+01 
3.0000000e+00 0.0000000e+00 1.5000000e+01 
3.5000000e+00 0.0000000e+00 1.5000000e+01 
4.0000000e+00 0.0000000e+00 1.5000000e+01 
4.5000000e+00 0.0000000e+00 1.5000000e+01 
5.0000000e+00 0.0000000e+00 1.5000000e+01 
5.5000000e+00 0.0000000e+00 1.5000000e+01 
5.0000000e-01 0.0000000e+00 1.8000000e+01 
1.0000000e+00 0.0000000e+00 1.8000000e+01 
1.5000000e+00 0.0000000e+00 1.8000000e+01 
2.0000000e+00 0.0000000e+00 1.8000000e+01 
2.5000000e+00 0.0000000e+00 1.8000000e+01 
3.0000000e+00 0.0000000e+00 1.8000000e+01 
3.5000000e+00 0.0000000e+00 1.8000000e+01 
4.0000000e+00 0.0000000e+00 1.8000000e+01 
4.5000000e+00 0.0000000e+00 1.8000000e+01 
5.0000000e+00 0.0000000e+00 1.8000000e+01 
5.5000000e+00 0.0000000e+00 1.8000000e+01 

CELLS 216 648
2 0 1
2 1 2
2 2 3
2 3 4
2 4 5
2 5 6
2 6 7
2 7 8
2 8 9
2 9 10
2 10 11
2 11 12
2 12 13
2 13 14
2 14 15
2 15 16
2 16 17
2 17 18
2 18 19
2 19 20
2 20 21
2 21 22
2 22 23
2 23 24
2 24 25
2 25 26
2 26 27
2 27 28
2 28 29
2 29 30
2 30 31
2 31 32
2 32 33
2 33 34
2 34 35
2 35 36
2 36 37
2 37 38
2 38 39
2 39 40
2 40 41
2 41 42
2 42 43
2 43 44
2 44 45
2 45 46
2 46 47
2 47 48
2 48 49
2 49 50
2 50 51
2 51 52
2 52 53
2 53 54
2 54 55
2 55 56
2 56 57
2 57 58
2 58 59
2 59 60
2 60 61
2 61 62
2 62 63
2 63 64
2 64 65
2 65 66
2 66 67
2 67 68
2 68 69
2 69 70
2 70 71
2 71 72
2 73 74
2 74 75
2 75 76
2 76 77
2 77 78
2 78 79
2 79 80
2 80 81
2 81 82
2 82 83
2 83 84
2 84 85
2 85 86
2 86 87
2 87 88
2 88 89
2 89 90
2 90 91
2 91 92
2 92 93
2 93 94
2 94 95
2 95 96
2 96 97
2 97 98
2 98 99
2 99 100
2 100 101
2 101 102
2 102 103
2 103 104
2 104 105
2 105 106
2 106 107
2 107 108
2 108 109
2 109 110
2 110 111
2 111 112
2 112 113
2 113 114
2 114 115
2 115 116
2 116 117
2 117 118
2 118 119
2 119 120
2 120 121
2 121 122
2 122 123
2 123 124
2 124 125
2 125 126
2 126 127
2 127 128
2 128 129
2 129 130
2 130 131
2 131 132
2 132 133
2 133 134
2 134 135
2 135 136
2 136 137
2 137 138
2 138 139
2 139 140
2 140 141
2 141 142
2 142 143
2 143 144
2 144 145
2 12 146
2 146 147
2 147 148
2 148 149
2 149 150
2 150 151
2 151 152
2 152 153
2 153 154
2 154 155
2 155 156
2 156 85
2 24 157
2 157 158
2 158 159
2 159 160
2 160 161
2 161 162
2 162 163
2 163 164
2 164 165
2 165 166
2 166 167
2 167 97
2 36 168
2 168 169
2 169 170
2 170 171
2 171 172
2 172 173
2 173 174
2 174 175
2 175 176
2 176 177
2 177 178
2 178 109
2 48 179
2 179 180
2 180 181
2 181 182
2 182 183
2 183 184
2 184 185
2 185 186
2 186 187
2 187 188
2 188 189
2 189 121
2 60 190
2 190 191
2 191 192
2 192 193
2 193 194
2 194 195
2 195 196
2 196 197
2 197 198
2 198 199
2 199 200
2 200 133
2 72 201
2 201 202
2 202 203
2 203 204
2 204 205
2 205 206
2 206 207
2 207 208
2 208 209
2 209 210
2 210 211
2 211 145

CELL_TYPES 216
3
3
3
3
3
3
3
3
3
3
3
3
3
3
3
3
3
3
3
3
3
3
3
3
3
3
3
3
3
3
3
3
3
3
3
3
3
3
3
3
3
3
3
3
3
3
3
3
3
3
3
3
3
3
3
3
3
3
3
3
3
3
3
3
3
3
3
3
3
3
3
3
3
3
3
3
3
3
3
3
3
3
3
3
3
3
3
3
3
3
3
3
3
3
3
3
3
3
3
3
3
3
3
3
3
3
3
3
3
3
3
3
3
3
3
3
3
3
3
3
3
3
3
3
3
3
3
3
3
3
3
3
3
3
3
3
3
3
3
3
3
3
3
3
3
3
3
3
3
3
3
3
3
3
3
3
3
3
3
3
3
3
3
3
3
3
3
3
3
3
3
3
3
3
3
3
3
3
3
3
3
3
3
3
3
3
3
3
3
3
3
3
3
3
3
3
3
3
3
3
3
3
3
3
3
3
3
3
3
3
3
3
3
3
3
3
POINT_DATA 212
FIELD FieldData 3
ADJOINT_DISPLACEMENT 3 212  float
0.0000000e+00 0.0000000e+00 0.0000000e+00 
1.1704245e-03 0.0000000e+00 2.2243056e-16 
2.3218619e-03 0.0000000e+00 4.4486112e-16 
3.4353249e-03 0.0000000e+00 6.6729166e-16 
4.4918265e-03 0.0000000e+00 8.8972224e-16 
5.4723793e-03 0.0000000e+00 1.1121528e-15 
6.3579963e-03 0.0000000e+00 1.3345833e-15 
7.1296901e-03 0.0000000e+00 1.5570138e-15 
7.7684736e-03 0.0000000e+00 1.7794445e-15 
8.2553597e-03 0.0000000e+00 2.0018749e-15 
8.5713612e-03 0.0000000e+00 2.2243056e-15 
8.6974911e-03 0.0000000e+00 2.4467362e-15 
8.6147627e-03 0.0000000e+00 2.6691666e-15 
8.3781295e-03 0.0000000e+00 -2.3936984e-08 
8.1311977e-03 0.0000000e+00 -4.7873971e-08 
7.9879519e-03 0.0000000e+00 -7.1810959e-08 
8.0623785e-03 0.0000000e+00 -9.5747943e-08 
8.4684631e-03 0.0000000e+00 -1.1968493e-07 
9.3201911e-03 0.0000000e+00 -1.4362192e-07 
1.0731549e-02 0.0000000e+00 -1.6755891e-07 
1.2816522e-02 0.0000000e+00 -1.9149590e-07 
1.5689095e-02 0.0000000e+00 -2.1543288e-07 
1.9463256e-02 0.0000000e+00 -2.3936988e-07 
2.4252988e-02 0.0000000e+00 -2.6330684e-07 
3.0172281e-02 0.0000000e+00 -2.8724384e-07 
3.7744887e-02 0.0000000e+00 -4.0692959e-07 
4.7089141e-02 0.0000000e+00 -5.2661534e-07 
5.7710897e-02 0.0000000e+00 -6.4630103e-07 
6.9116011e-02 0.0000000e+00 -7.6598678e-07 
8.0810331e-02 0.0000000e+00 -8.8567253e-07 
9.2299715e-02 0.0000000e+00 -1.0053583e-06 
1.0309002e-01 0.0000000e+00 -1.1250439e-06 
1.1268710e-01 0.0000000e+00 -1.2447297e-06 
1.2059679e-01 0.0000000e+00 -1.3644154e-06 
1.2632497e-01 0.0000000e+00 -1.4841012e-06 
1.2937747e-01 0.0000000e+00 -1.6037869e-06 
1.2926017e-01 0.0000000e+00 -1.7234727e-06 
1.2914227e-01 0.0000000e+00 -1.6035239e-06 
1.3219287e-01 0.0000000e+00 -1.4835751e-06 
1.3791759e-01 0.0000000e+00 -1.3636263e-06 
1.4582208e-01 0.0000000e+00 -1.2436776e-06 
1.5541197e-01 0.0000000e+00 -1.1237288e-06 
1.6619290e-01 0.0000000e+00 -1.0037800e-06 
1.7767052e-01 0.0000000e+00 -8.8383126e-07 
1.8935044e-01 0.0000000e+00 -7.6388250e-07 
2.0073831e-01 0.0000000e+00 -6.4393367e-07 
2.1133977e-01 0.0000000e+00 -5.2398491e-07 
2.2066045e-01 0.0000000e+00 -4.0403617e-07 
2.2820598e-01 0.0000000e+00 -2.8408738e-07 
2.3409149e-01 0.0000000e+00 -2.5909824e-07 
2.3883812e-01 0.0000000e+00 -2.3410909e-07 
2.4256065e-01 0.0000000e+00 -2.0911995e-07 
2.4537380e-01 0.0000000e+00 -1.8413080e-07 
2.4739234e-01 0.0000000e+00 -1.5914165e-07 
2.4873100e-01 0.0000000e+00 -1.3415250e-07 
2.4950454e-01 0.0000000e+00 -1.0916336e-07 
2.4982768e-01 0.0000000e+00 -8.4174211e-08 
2.4981518e-01 0.0000000e+00 -5.9185062e-08 
2.4958180e-01 0.0000000e+00 -3.4195917e-08 
2.4924228e-01 0.0000000e+00 -9.2067687e-09 
2.4891135e-01 0.0000000e+00 1.5782378e-08 
2.4871890e-01 0.0000000e+00 2.0780174e-08 
2.4870354e-01 0.0000000e+00 2.5777970e-08 
2.4884306e-01 0.0000000e+00 3.0775766e-08 
2.4911527e-01 0.0000000e+00 3.5773564e-08 
2.4949798e-01 0.0000000e+00 4.0771358e-08 
2.4996898e-01 0.0000000e+00 4.5769156e-08 
2.5050607e-01 0.0000000e+00 5.0766950e-08 
2.5108710e-01 0.0000000e+00 5.5764747e-08 
2.5168982e-01 0.0000000e+00 6.0762545e-08 
2.5229210e-01 0.0000000e+00 6.5760339e-08 
2.5287166e-01 0.0000000e+00 7.0758134e-08 
2.5340638e-01 0.0000000e+00 7.5755928e-08 
0.0000000e+00 0.0000000e+00 0.0000000e+00 
2.6579466e-04 0.0000000e+00 -2.1160717e-16 
5.5057654e-04 0.0000000e+00 -4.2321334e-16 
8.7333273e-04 0.0000000e+00 -6.3482171e-16 
1.2530504e-03 0.0000000e+00 -8.4643060e-16 
1.7087169e-03 0.0000000e+00 -1.0580400e-15 
2.2593192e-03 0.0000000e+00 -1.2696488e-15 
2.9238446e-03 0.0000000e+00 -1.4812565e-15 
3.7212803e-03 0.0000000e+00 -1.6928656e-15 
4.6706134e-03 0.0000000e+00 -1.9044750e-15 
5.7908311e-03 0.0000000e+00 -2.1160844e-15 
7.1009202e-03 0.0000000e+00 -2.3276952e-15 
8.6198682e-03 0.0000000e+00 -2.5393074e-15 
1.0472247e-02 0.0000000e+00 2.3936984e-08 
1.2693981e-02 0.0000000e+00 4.7873971e-08 
1.5171083e-02 0.0000000e+00 7.1810959e-08 
1.7789567e-02 0.0000000e+00 9.5747943e-08 
2.0435449e-02 0.0000000e+00 1.1968493e-07 
2.2994742e-02 0.0000000e+00 1.4362192e-07 
2.5353460e-02 0.0000000e+00 1.6755891e-07 
2.7397616e-02 0.0000000e+00 1.9149590e-07 
2.9013228e-02 0.0000000e+00 2.1543288e-07 
3.0086307e-02 0.0000000e+00 2.3936988e-07 
3.0502869e-02 0.0000000e+00 2.6330684e-07 
3.0148927e-02 0.0000000e+00 2.8724384e-07 
2.9218843e-02 0.0000000e+00 4.0692959e-07 
2.8312394e-02 0.0000000e+00 5.2661534e-07 
2.7923729e-02 0.0000000e+00 6.4630103e-07 
2.8546995e-02 0.0000000e+00 7.6598678e-07 
3.0676337e-02 0.0000000e+00 8.8567253e-07 
3.4805901e-02 0.0000000e+00 1.0053583e-06 
4.1429833e-02 0.0000000e+00 1.1250440e-06 
5.1042281e-02 0.0000000e+00 1.2447297e-06 
6.4137392e-02 0.0000000e+00 1.3644154e-06 
8.1209309e-02 0.0000000e+00 1.4841012e-06 
1.0275219e-01 0.0000000e+00 1.6037869e-06 
1.2926015e-01 0.0000000e+00 1.7234727e-06 
1.5576674e-01 0.0000000e+00 1.6035239e-06 
1.7730561e-01 0.0000000e+00 1.4835751e-06 
1.9437112e-01 0.0000000e+00 1.3636263e-06 
2.0745762e-01 0.0000000e+00 1.2436776e-06 
2.1705949e-01 0.0000000e+00 1.1237288e-06 
2.2367109e-01 0.0000000e+00 1.0037800e-06 
2.2778679e-01 0.0000000e+00 8.8383126e-07 
2.2990094e-01 0.0000000e+00 7.6388250e-07 
2.3050791e-01 0.0000000e+00 6.4393367e-07 
2.3010206e-01 0.0000000e+00 5.2398491e-07 
2.2917777e-01 0.0000000e+00 4.0403617e-07 
2.2822937e-01 0.0000000e+00 2.8408738e-07 
2.2785398e-01 0.0000000e+00 2.5909824e-07 
2.2824262e-01 0.0000000e+00 2.3410909e-07 
2.2928053e-01 0.0000000e+00 2.0911995e-07 
2.3085298e-01 0.0000000e+00 1.8413080e-07 
2.3284520e-01 0.0000000e+00 1.5914165e-07 
2.3514247e-01 0.0000000e+00 1.3415250e-07 
2.3763002e-01 0.0000000e+00 1.0916336e-07 
2.4019313e-01 0.0000000e+00 8.4174211e-08 
2.4271704e-01 0.0000000e+00 5.9185062e-08 
2.4508700e-01 0.0000000e+00 3.4195917e-08 
2.4718826e-01 0.0000000e+00 9.2067696e-09 
2.4890609e-01 0.0000000e+00 -1.5782378e-08 
2.5026053e-01 0.0000000e+00 -2.0780174e-08 
2.5136292e-01 0.0000000e+00 -2.5777970e-08 
2.5223547e-01 0.0000000e+00 -3.0775766e-08 
2.5290036e-01 0.0000000e+00 -3.5773564e-08 
2.5337979e-01 0.0000000e+00 -4.0771358e-08 
2.5369596e-01 0.0000000e+00 -4.5769156e-08 
2.5387105e-01 0.0000000e+00 -5.0766950e-08 
2.5392726e-01 0.0000000e+00 -5.5764747e-08 
2.5388679e-01 0.0000000e+00 -6.0762545e-08 
2.5377184e-01 0.0000000e+00 -6.5760339e-08 
2.5360459e-01 0.0000000e+00 -7.0758134e-08 
2.5340724e-01 0.0000000e+00 -7.5755928e-08 
8.6151883e-03 0.0000000e+00 5.7414966e-04 
8.6156130e-03 0.0000000e+00 1.4428583e-03 
8.6160386e-03 0.0000000e+00 2.4864408e-03 
8.6164642e-03 0.0000000e+00 3.5852126e-03 
8.6168898e-03 0.0000000e+00 4.6194885e-03 
8.6173154e-03 0.0000000e+00 5.4695834e-03 
8.6177411e-03 0.0000000e+00 6.0158125e-03 
8.6181667e-03 0.0000000e+00 6.1384910e-03 
8.6185923e-03 0.0000000e+00 5.7179341e-03 
8.6190179e-03 0.0000000e+00 4.6344567e-03 
8.6194426e-03 0.0000000e+00 2.7683736e-03 
3.0170335e-02 0.0000000e+00 -1.1079706e-02 
3.0168388e-02 0.0000000e+00 -1.8548865e-02 
3.0166442e-02 0.0000000e+00 -2.2886505e-02 
3.0164495e-02 0.0000000e+00 -2.4571374e-02 
3.0162551e-02 0.0000000e+00 -2.4082210e-02 
3.0160604e-02 0.0000000e+00 -2.1897763e-02 
3.0158658e-02 0.0000000e+00 -1.8496772e-02 
3.0156711e-02 0.0000000e+00 -1.4357982e-02 
3.0154767e-02 0.0000000e+00 -9.9601373e-03 
3.0152820e-02 0.0000000e+00 -5.7819821e-03 
3.0150874e-02 0.0000000e+00 -2.3022594e-03 
1.2926017e-01 0.0000000e+00 1.8585468e-02 
1.2926017e-01 0.0000000e+00 6.7678101e-02 
1.2926017e-01 0.0000000e+00 1.4847435e-01 
1.2926017e-01 0.0000000e+00 2.6217240e-01 
1.2926017e-01 0.0000000e+00 4.0997037e-01 
1.2926017e-01 0.0000000e+00 5.9306651e-01 
1.2926017e-01 0.0000000e+00 8.1265897e-01 
1.2926017e-01 0.0000000e+00 5.6994587e-01 
1.2926015e-01 0.0000000e+00 3.6612540e-01 
1.2926015e-01 0.0000000e+00 2.0239580e-01 
1.2926015e-01 0.0000000e+00 7.9955176e-02 
2.2820793e-01 0.0000000e+00 -1.1033977e-02 
2.2820988e-01 0.0000000e+00 -1.8478876e-02 
2.2821184e-01 0.0000000e+00 -2.2809777e-02 
2.2821379e-01 0.0000000e+00 -2.4501480e-02 
2.2821572e-01 0.0000000e+00 -2.4028782e-02 
2.2821768e-01 0.0000000e+00 -2.1866482e-02 
2.2821963e-01 0.0000000e+00 -1.8489376e-02 
2.2822158e-01 0.0000000e+00 -1.4372265e-02 
2.2822353e-01 0.0000000e+00 -9.9899443e-03 
2.2822547e-01 0.0000000e+00 -5.8172145e-03 
2.2822742e-01 0.0000000e+00 -2.3288720e-03 
2.4891092e-01 0.0000000e+00 7.1196241e-04 
2.4891047e-01 0.0000000e+00 1.6276529e-03 
2.4891004e-01 0.0000000e+00 2.6471305e-03 
2.4890959e-01 0.0000000e+00 3.6704384e-03 
2.4890916e-01 0.0000000e+00 4.5976201e-03 
2.4890873e-01 0.0000000e+00 5.3287186e-03 
2.4890828e-01 0.0000000e+00 5.7637766e-03 
2.4890785e-01 0.0000000e+00 5.8028386e-03 
2.4890740e-01 0.0000000e+00 5.3459471e-03 
2.4890697e-01 0.0000000e+00 4.2931451e-03 
2.4890652e-01 0.0000000e+00 2.5444767e-03 
2.5340647e-01 0.0000000e+00 -8.7973016e-04 
2.5340652e-01 0.0000000e+00 -1.5162771e-03 
2.5340661e-01 0.0000000e+00 -1.9345540e-03 
2.5340667e-01 0.0000000e+00 -2.1595499e-03 
2.5340673e-01 0.0000000e+00 -2.2162534e-03 
2.5340682e-01 0.0000000e+00 -2.1296542e-03 
2.5340688e-01 0.0000000e+00 -1.9247406e-03 
2.5340694e-01 0.0000000e+00 -1.6265020e-03 
2.5340703e-01 0.0000000e+00 -1.2599272e-03 
2.5340709e-01 0.0000000e+00 -8.5000525e-04 
2.5340718e-01 0.0000000e+00 -4.2172513e-04 
ADJOINT_ROTATION 3 212  float
0.0000000e+00 4.6943566e-03 0.0000000e+00 
0.0000000e+00 4.6563819e-03 0.0000000e+00 
0.0000000e+00 4.5424588e-03 0.0000000e+00 
0.0000000e+00 4.3525873e-03 0.0000000e+00 
0.0000000e+00 4.0867669e-03 0.0000000e+00 
0.0000000e+00 3.7449975e-03 0.0000000e+00 
0.0000000e+00 3.3272796e-03 0.0000000e+00 
0.0000000e+00 2.8336132e-03 0.0000000e+00 
0.0000000e+00 2.2639979e-03 0.0000000e+00 
0.0000000e+00 1.6184339e-03 0.0000000e+00 
0.0000000e+00 8.9692109e-04 0.0000000e+00 
0.0000000e+00 9.9459707e-05 0.0000000e+00 
0.0000000e+00 -7.7395042e-04 0.0000000e+00 
0.0000000e+00 -1.0431195e-03 0.0000000e+00 
0.0000000e+00 -8.5634546e-04 0.0000000e+00 
0.0000000e+00 -2.1362845e-04 0.0000000e+00 
0.0000000e+00 8.8503165e-04 0.0000000e+00 
0.0000000e+00 2.4396349e-03 0.0000000e+00 
0.0000000e+00 4.4501810e-03 0.0000000e+00 
0.0000000e+00 6.9166701e-03 0.0000000e+00 
0.0000000e+00 9.8391026e-03 0.0000000e+00 
0.0000000e+00 1.3217478e-02 0.0000000e+00 
0.0000000e+00 1.7051795e-02 0.0000000e+00 
0.0000000e+00 2.1342058e-02 0.0000000e+00 
0.0000000e+00 2.6088262e-02 0.0000000e+00 
0.0000000e+00 3.4163151e-02 0.0000000e+00 
0.0000000e+00 4.0261451e-02 0.0000000e+00 
0.0000000e+00 4.4383168e-02 0.0000000e+00 
0.0000000e+00 4.6528302e-02 0.0000000e+00 
0.0000000e+00 4.6696849e-02 0.0000000e+00 
0.0000000e+00 4.4888809e-02 0.0000000e+00 
0.0000000e+00 4.1104183e-02 0.0000000e+00 
0.0000000e+00 3.5342973e-02 0.0000000e+00 
0.0000000e+00 2.7605178e-02 0.0000000e+00 
0.0000000e+00 1.7890796e-02 0.0000000e+00 
0.0000000e+00 6.1998293e-03 0.0000000e+00 
0.0000000e+00 -7.4677225e-03 0.0000000e+00 
0.0000000e+00 6.1949752e-03 0.0000000e+00 
0.0000000e+00 1.7880220e-02 0.0000000e+00 
0.0000000e+00 2.7588010e-02 0.0000000e+00 
0.0000000e+00 3.5318349e-02 0.0000000e+00 
0.0000000e+00 4.1071232e-02 0.0000000e+00 
0.0000000e+00 4.4846661e-02 0.0000000e+00 
0.0000000e+00 4.6644639e-02 0.0000000e+00 
0.0000000e+00 4.6465158e-02 0.0000000e+00 
0.0000000e+00 4.4308230e-02 0.0000000e+00 
0.0000000e+00 4.0173844e-02 0.0000000e+00 
0.0000000e+00 3.4062006e-02 0.0000000e+00 
0.0000000e+00 2.5972715e-02 0.0000000e+00 
0.0000000e+00 2.1187782e-02 0.0000000e+00 
0.0000000e+00 1.6861834e-02 0.0000000e+00 
0.0000000e+00 1.2994869e-02 0.0000000e+00 
0.0000000e+00 9.5868884e-03 0.0000000e+00 
0.0000000e+00 6.6378932e-03 0.0000000e+00 
0.0000000e+00 4.1478821e-03 0.0000000e+00 
0.0000000e+00 2.1168555e-03 0.0000000e+00 
0.0000000e+00 5.4481317e-04 0.0000000e+00 
0.0000000e+00 -5.6824461e-04 0.0000000e+00 
0.0000000e+00 -1.2223180e-03 0.0000000e+00 
0.0000000e+00 -1.4174070e-03 0.0000000e+00 
0.0000000e+00 -1.1535116e-03 0.0000000e+00 
0.0000000e+00 -4.0081225e-04 0.0000000e+00 
0.0000000e+00 2.6310899e-04 0.0000000e+00 
0.0000000e+00 8.3825225e-04 0.0000000e+00 
0.0000000e+00 1.3246174e-03 0.0000000e+00 
0.0000000e+00 1.7222046e-03 0.0000000e+00 
0.0000000e+00 2.0310138e-03 0.0000000e+00 
0.0000000e+00 2.2510448e-03 0.0000000e+00 
0.0000000e+00 2.3822980e-03 0.0000000e+00 
0.0000000e+00 2.4247731e-03 0.0000000e+00 
0.0000000e+00 2.3784700e-03 0.0000000e+00 
0.0000000e+00 2.2433891e-03 0.0000000e+00 
0.0000000e+00 2.0195302e-03 0.0000000e+00 
0.0000000e+00 1.0505206e-03 0.0000000e+00 
0.0000000e+00 1.0884949e-03 0.0000000e+00 
0.0000000e+00 1.2024180e-03 0.0000000e+00 
0.0000000e+00 1.3922898e-03 0.0000000e+00 
0.0000000e+00 1.6581102e-03 0.0000000e+00 
0.0000000e+00 1.9998795e-03 0.0000000e+00 
0.0000000e+00 2.4175972e-03 0.0000000e+00 
0.0000000e+00 2.9112638e-03 0.0000000e+00 
0.0000000e+00 3.4808791e-03 0.0000000e+00 
0.0000000e+00 4.1264431e-03 0.0000000e+00 
0.0000000e+00 4.8479559e-03 0.0000000e+00 
0.0000000e+00 5.6454171e-03 0.0000000e+00 
0.0000000e+00 6.5188273e-03 0.0000000e+00 
0.0000000e+00 8.2242154e-03 0.0000000e+00 
0.0000000e+00 9.4736610e-03 0.0000000e+00 
0.0000000e+00 1.0267163e-02 0.0000000e+00 
0.0000000e+00 1.0604722e-02 0.0000000e+00 
0.0000000e+00 1.0486338e-02 0.0000000e+00 
0.0000000e+00 9.9120112e-03 0.0000000e+00 
0.0000000e+00 8.8817412e-03 0.0000000e+00 
0.0000000e+00 7.3955283e-03 0.0000000e+00 
0.0000000e+00 5.4533724e-03 0.0000000e+00 
0.0000000e+00 3.0552731e-03 0.0000000e+00 
0.0000000e+00 2.0123091e-04 0.0000000e+00 
0.0000000e+00 -3.1087543e-03 0.0000000e+00 
0.0000000e+00 -4.0024985e-03 0.0000000e+00 
0.0000000e+00 -2.9196569e-03 0.0000000e+00 
0.0000000e+00 1.3977014e-04 0.0000000e+00 
0.0000000e+00 5.1757824e-03 0.0000000e+00 
0.0000000e+00 1.2188381e-02 0.0000000e+00 
0.0000000e+00 2.1177564e-02 0.0000000e+00 
0.0000000e+00 3.2143332e-02 0.0000000e+00 
0.0000000e+00 4.5085687e-02 0.0000000e+00 
0.0000000e+00 6.0004625e-02 0.0000000e+00 
0.0000000e+00 7.6900154e-02 0.0000000e+00 
0.0000000e+00 9.5772266e-02 0.0000000e+00 
0.0000000e+00 1.1662096e-01 0.0000000e+00 
0.0000000e+00 9.5761336e-02 0.0000000e+00 
0.0000000e+00 7.6879166e-02 0.0000000e+00 
0.0000000e+00 5.9974447e-02 0.0000000e+00 
0.0000000e+00 4.5047183e-02 0.0000000e+00 
0.0000000e+00 3.2097373e-02 0.0000000e+00 
0.0000000e+00 2.1125017e-02 0.0000000e+00 
0.0000000e+00 1.2130114e-02 0.0000000e+00 
0.0000000e+00 5.1126657e-03 0.0000000e+00 
0.0000000e+00 7.2670198e-05 0.0000000e+00 
0.0000000e+00 -2.9898714e-03 0.0000000e+00 
0.0000000e+00 -4.0749596e-03 0.0000000e+00 
0.0000000e+00 -3.1825942e-03 0.0000000e+00 
0.0000000e+00 1.0299023e-04 0.0000000e+00 
0.0000000e+00 2.9295902e-03 0.0000000e+00 
0.0000000e+00 5.2972059e-03 0.0000000e+00 
0.0000000e+00 7.2058369e-03 0.0000000e+00 
0.0000000e+00 8.6554838e-03 0.0000000e+00 
0.0000000e+00 9.6461456e-03 0.0000000e+00 
0.0000000e+00 1.0177824e-02 0.0000000e+00 
0.0000000e+00 1.0250517e-02 0.0000000e+00 
0.0000000e+00 9.8642260e-03 0.0000000e+00 
0.0000000e+00 9.0189502e-03 0.0000000e+00 
0.0000000e+00 7.7146906e-03 0.0000000e+00 
0.0000000e+00 5.9514465e-03 0.0000000e+00 
0.0000000e+00 4.8988792e-03 0.0000000e+00 
0.0000000e+00 3.9350903e-03 0.0000000e+00 
0.0000000e+00 3.0600792e-03 0.0000000e+00 
0.0000000e+00 2.2738462e-03 0.0000000e+00 
0.0000000e+00 1.5763913e-03 0.0000000e+00 
0.0000000e+00 9.6771441e-04 0.0000000e+00 
0.0000000e+00 4.4781552e-04 0.0000000e+00 
0.0000000e+00 1.6694636e-05 0.0000000e+00 
0.0000000e+00 -3.2564820e-04 0.0000000e+00 
0.0000000e+00 -5.7921303e-04 0.0000000e+00 
0.0000000e+00 -7.4399984e-04 0.0000000e+00 
0.0000000e+00 -8.2000863e-04 0.0000000e+00 
0.0000000e+00 -1.4827532e-03 0.0000000e+00 
0.0000000e+00 -1.9521862e-03 0.0000000e+00 
0.0000000e+00 -2.1822492e-03 0.0000000e+00 
0.0000000e+00 -2.1729425e-03 0.0000000e+00 
0.0000000e+00 -1.9242658e-03 0.0000000e+00 
0.0000000e+00 -1.4362192e-03 0.0000000e+00 
0.0000000e+00 -7.0880284e-04 0.0000000e+00 
0.0000000e+00 2.5798348e-04 0.0000000e+00 
0.0000000e+00 1.4641397e-03 0.0000000e+00 
0.0000000e+00 2.9096657e-03 0.0000000e+00 
0.0000000e+00 4.5945616e-03 0.0000000e+00 
0.0000000e+00 1.8388996e-02 0.0000000e+00 
0.0000000e+00 1.1647218e-02 0.0000000e+00 
0.0000000e+00 5.8629271e-03 0.0000000e+00 
0.0000000e+00 1.0361238e-03 0.0000000e+00 
0.0000000e+00 -2.8331922e-03 0.0000000e+00 
0.0000000e+00 -5.7450207e-03 0.0000000e+00 
0.0000000e+00 -7.6993615e-03 0.0000000e+00 
0.0000000e+00 -8.6962152e-03 0.0000000e+00 
0.0000000e+00 -8.7355813e-03 0.0000000e+00 
0.0000000e+00 -7.8174593e-03 0.0000000e+00 
0.0000000e+00 -5.9418506e-03 0.0000000e+00 
0.0000000e+00 -6.7280434e-02 0.0000000e+00 
0.0000000e+00 -1.2948950e-01 0.0000000e+00 
0.0000000e+00 -1.9409490e-01 0.0000000e+00 
0.0000000e+00 -2.6109663e-01 0.0000000e+00 
0.0000000e+00 -3.3049473e-01 0.0000000e+00 
0.0000000e+00 -4.0228918e-01 0.0000000e+00 
0.0000000e+00 -4.7647995e-01 0.0000000e+00 
0.0000000e+00 4.4693291e-01 0.0000000e+00 
0.0000000e+00 3.6794946e-01 0.0000000e+00 
0.0000000e+00 2.8656963e-01 0.0000000e+00 
0.0000000e+00 2.0279346e-01 0.0000000e+00 
0.0000000e+00 1.8320326e-02 0.0000000e+00 
0.0000000e+00 1.1617534e-02 0.0000000e+00 
0.0000000e+00 5.8643380e-03 0.0000000e+00 
0.0000000e+00 1.0607385e-03 0.0000000e+00 
0.0000000e+00 -2.7932650e-03 0.0000000e+00 
0.0000000e+00 -5.6976723e-03 0.0000000e+00 
0.0000000e+00 -7.6524829e-03 0.0000000e+00 
0.0000000e+00 -8.6576976e-03 0.0000000e+00 
0.0000000e+00 -8.7133162e-03 0.0000000e+00 
0.0000000e+00 -7.8193387e-03 0.0000000e+00 
0.0000000e+00 -5.9757642e-03 0.0000000e+00 
0.0000000e+00 -1.6609560e-03 0.0000000e+00 
0.0000000e+00 -1.9684869e-03 0.0000000e+00 
0.0000000e+00 -2.0761045e-03 0.0000000e+00 
0.0000000e+00 -1.9838084e-03 0.0000000e+00 
0.0000000e+00 -1.6915989e-03 0.0000000e+00 
0.0000000e+00 -1.1994758e-03 0.0000000e+00 
0.0000000e+00 -5.0743925e-04 0.0000000e+00 
0.0000000e+00 3.8451084e-04 0.0000000e+00 
0.0000000e+00 1.4763745e-03 0.0000000e+00 
0.0000000e+00 2.7681515e-03 0.0000000e+00 
0.0000000e+00 4.2598420e-03 0.0000000e+00 
0.0000000e+00 1.5080231e-03 0.0000000e+00 
0.0000000e+00 1.0464941e-03 0.0000000e+00 
0.0000000e+00 6.3494302e-04 0.0000000e+00 
0.0000000e+00 2.7336986e-04 0.0000000e+00 
0.0000000e+00 -3.8225298e-05 0.0000000e+00 
0.0000000e+00 -2.9984250e-04 0.0000000e+00 
0.0000000e+00 -5.1148178e-04 0.0000000e+00 
0.0000000e+00 -6.7314308e-04 0.0000000e+00 