# vtk DataFile Version 4.0
vtk output
ASCII
DATASET UNSTRUCTURED_GRID
POINTS 22 float
0.0000000e+00 0.0000000e+00 0.0000000e+00 
1.0000000e-01 0.0000000e+00 0.0000000e+00 
2.0000000e-01 0.0000000e+00 0.0000000e+00 
3.0000001e-01 0.0000000e+00 0.0000000e+00 
4.0000001e-01 0.0000000e+00 0.0000000e+00 
5.0000000e-01 0.0000000e+00 0.0000000e+00 
6.0000002e-01 0.0000000e+00 0.0000000e+00 
6.9999999e-01 0.0000000e+00 0.0000000e+00 
8.0000001e-01 0.0000000e+00 0.0000000e+00 
8.9999998e-01 0.0000000e+00 0.0000000e+00 
1.0000000e+00 0.0000000e+00 0.0000000e+00 
1.0000000e+00 0.0000000e+00 0.0000000e+00 
1.1000000e+00 0.0000000e+00 0.0000000e+00 
1.2000000e+00 0.0000000e+00 0.0000000e+00 
1.3000000e+00 0.0000000e+00 0.0000000e+00 
1.4000000e+00 0.0000000e+00 0.0000000e+00 
1.5000000e+00 0.0000000e+00 0.0000000e+00 
1.6000000e+00 0.0000000e+00 0.0000000e+00 
1.7000000e+00 0.0000000e+00 0.0000000e+00 
1.8000000e+00 0.0000000e+00 0.0000000e+00 
1.9000000e+00 0.0000000e+00 0.0000000e+00 
2.0000000e+00 0.0000000e+00 0.0000000e+00 

CELLS 20 60
2 0 1
2 1 2
2 2 3
2 3 4
2 4 5
2 5 6
2 6 7
2 7 8
2 8 9
2 9 10
2 11 12
2 12 13
2 13 14
2 14 15
2 15 16
2 16 17
2 17 18
2 18 19
2 19 20
2 20 21

CELL_TYPES 20
3
3
3
3
3
3
3
3
3
3
3
3
3
3
3
3
3
3
3
3
POINT_DATA 22
FIELD FieldData 4
DISPLACEMENT 3 22  float
0.0000000e+00 0.0000000e+00 0.0000000e+00 
0.0000000e+00 -3.6875000e-03 0.0000000e+00 
0.0000000e+00 -1.4500000e-02 0.0000000e+00 
0.0000000e+00 -3.2062501e-02 0.0000000e+00 
0.0000000e+00 -5.6000002e-02 0.0000000e+00 
0.0000000e+00 -8.5937500e-02 0.0000000e+00 
0.0000000e+00 -1.2150000e-01 0.0000000e+00 
0.0000000e+00 -1.6231249e-01 0.0000000e+00 
0.0000000e+00 -2.0800000e-01 0.0000000e+00 
0.0000000e+00 -2.5818750e-01 0.0000000e+00 
0.0000000e+00 -3.1250000e-01 0.0000000e+00 
0.0000000e+00 -3.1250000e-01 0.0000000e+00 
0.0000000e+00 -2.7056250e-01 0.0000000e+00 
0.0000000e+00 -2.3199999e-01 0.0000000e+00 
0.0000000e+00 -1.9643749e-01 0.0000000e+00 
0.0000000e+00 -1.6350000e-01 0.0000000e+00 
0.0000000e+00 -1.3281250e-01 0.0000000e+00 
0.0000000e+00 -1.0400000e-01 0.0000000e+00 
0.0000000e+00 -7.6687500e-02 0.0000000e+00 
0.0000000e+00 -5.0500002e-02 0.0000000e+00 
0.0000000e+00 -2.5062500e-02 0.0000000e+00 
0.0000000e+00 0.0000000e+00 0.0000000e+00 
ROTATION 3 22  float
0.0000000e+00 0.0000000e+00 0.0000000e+00 
0.0000000e+00 0.0000000e+00 -7.3124997e-02 
0.0000000e+00 0.0000000e+00 -1.4250000e-01 
0.0000000e+00 0.0000000e+00 -2.0812500e-01 
0.0000000e+00 0.0000000e+00 -2.7000001e-01 
0.0000000e+00 0.0000000e+00 -3.2812500e-01 
0.0000000e+00 0.0000000e+00 -3.8249999e-01 
0.0000000e+00 0.0000000e+00 -4.3312499e-01 
0.0000000e+00 0.0000000e+00 -4.7999999e-01 
0.0000000e+00 0.0000000e+00 -5.2312499e-01 
0.0000000e+00 0.0000000e+00 -5.6250000e-01 
0.0000000e+00 0.0000000e+00 4.3750000e-01 
0.0000000e+00 0.0000000e+00 4.0187499e-01 
0.0000000e+00 0.0000000e+00 3.7000000e-01 
0.0000000e+00 0.0000000e+00 3.4187499e-01 
0.0000000e+00 0.0000000e+00 3.1750000e-01 
0.0000000e+00 0.0000000e+00 2.9687500e-01 
0.0000000e+00 0.0000000e+00 2.8000000e-01 
0.0000000e+00 0.0000000e+00 2.6687500e-01 
0.0000000e+00 0.0000000e+00 2.5749999e-01 
0.0000000e+00 0.0000000e+00 2.5187501e-01 
0.0000000e+00 0.0000000e+00 2.5000000e-01 
REACTION 3 22  float
-0.0000000e+00 3.9375000e+05 0.0000000e+00 
-0.0000000e+00 1.4901161e-08 0.0000000e+00 
-0.0000000e+00 -0.0000000e+00 0.0000000e+00 
-0.0000000e+00 1.1920929e-07 0.0000000e+00 
-0.0000000e+00 8.9406967e-08 0.0000000e+00 
-0.0000000e+00 -1.1920929e-07 0.0000000e+00 
-0.0000000e+00 -2.9802322e-08 0.0000000e+00 
-0.0000000e+00 5.9604645e-08 0.0000000e+00 
-0.0000000e+00 -4.1723251e-07 0.0000000e+00 
-0.0000000e+00 1.1920929e-07 0.0000000e+00 
-0.0000000e+00 -3.9375000e+05 0.0000000e+00 
-0.0000000e+00 3.9375000e+05 0.0000000e+00 
-0.0000000e+00 -5.6624413e-07 0.0000000e+00 
-0.0000000e+00 2.0861626e-07 0.0000000e+00 
-0.0000000e+00 -6.2584877e-07 0.0000000e+00 
-0.0000000e+00 -2.0861626e-07 0.0000000e+00 
-0.0000000e+00 6.2584877e-07 0.0000000e+00 
-0.0000000e+00 -1.1920929e-07 0.0000000e+00 
-0.0000000e+00 -2.3841858e-07 0.0000000e+00 
-0.0000000e+00 -5.9604645e-08 0.0000000e+00 
-0.0000000e+00 5.9604645e-08 0.0000000e+00 
-0.0000000e+00 -3.9375000e+05 0.0000000e+00 
REACTION_MOMENT 3 22  float
0.0000000e+00 0.0000000e+00 7.8750000e+05 
0.0000000e+00 0.0000000e+00 -4.6566129e-10 
0.0000000e+00 0.0000000e+00 9.3132257e-10 
0.0000000e+00 0.0000000e+00 5.5879354e-09 
0.0000000e+00 0.0000000e+00 -0.0000000e+00 
0.0000000e+00 0.0000000e+00 -9.3132257e-10 
0.0000000e+00 0.0000000e+00 -3.7252903e-09 
0.0000000e+00 0.0000000e+00 1.4901161e-08 
0.0000000e+00 0.0000000e+00 1.3038516e-08 
0.0000000e+00 0.0000000e+00 -3.7252903e-09 
-0.0000000e+00 -0.0000000e+00 -3.9375000e+05 
0.0000000e+00 0.0000000e+00 3.9375000e+05 
0.0000000e+00 0.0000000e+00 -4.1909516e-08 
0.0000000e+00 0.0000000e+00 -1.8626451e-09 
0.0000000e+00 0.0000000e+00 7.4505806e-09 
0.0000000e+00 0.0000000e+00 -1.9557774e-08 
0.0000000e+00 0.0000000e+00 -1.8626451e-09 
0.0000000e+00 0.0000000e+00 -2.0489097e-08 
0.0000000e+00 0.0000000e+00 -7.4505806e-09 
0.0000000e+00 0.0000000e+00 -5.5879354e-09 
0.0000000e+00 0.0000000e+00 3.7252903e-09 
0.0000000e+00 0.0000000e+00 -0.0000000e+00 
CELL_DATA 20
FIELD FieldData 2
MOMENT 3 20  float
0.0000000e+00 0.0000000e+00 7.6781250e+05 
0.0000000e+00 0.0000000e+00 7.2843750e+05 
0.0000000e+00 0.0000000e+00 6.8906250e+05 
0.0000000e+00 0.0000000e+00 6.4968750e+05 
0.0000000e+00 0.0000000e+00 6.1031250e+05 
0.0000000e+00 0.0000000e+00 5.7093750e+05 
0.0000000e+00 0.0000000e+00 5.3156250e+05 
0.0000000e+00 0.0000000e+00 4.9218750e+05 
0.0000000e+00 0.0000000e+00 4.5281250e+05 
0.0000000e+00 0.0000000e+00 4.1343750e+05 
0.0000000e+00 0.0000000e+00 3.7406250e+05 
0.0000000e+00 0.0000000e+00 3.3468750e+05 
0.0000000e+00 0.0000000e+00 2.9531250e+05 
0.0000000e+00 0.0000000e+00 2.5593750e+05 
0.0000000e+00 0.0000000e+00 2.1656250e+05 
0.0000000e+00 0.0000000e+00 1.7718750e+05 
0.0000000e+00 0.0000000e+00 1.3781250e+05 
0.0000000e+00 0.0000000e+00 9.8437500e+04 
0.0000000e+00 0.0000000e+00 5.9062500e+04 
0.0000000e+00 0.0000000e+00 1.9687500e+04 
FORCE 3 20  float
0.0000000e+00 -3.9375000e+05 0.0000000e+00 
0.0000000e+00 -3.9375000e+05 0.0000000e+00 
0.0000000e+00 -3.9375000e+05 0.0000000e+00 
0.0000000e+00 -3.9375000e+05 0.0000000e+00 
0.0000000e+00 -3.9375000e+05 0.0000000e+00 
0.0000000e+00 -3.9375000e+05 0.0000000e+00 
0.0000000e+00 -3.9375000e+05 0.0000000e+00 
0.0000000e+00 -3.9375000e+05 0.0000000e+00 
0.0000000e+00 -3.9375000e+05 0.0000000e+00 
0.0000000e+00 -3.9375000e+05 0.0000000e+00 
0.0000000e+00 -3.9375000e+05 0.0000000e+00 
0.0000000e+00 -3.9375000e+05 0.0000000e+00 
0.0000000e+00 -3.9375000e+05 0.0000000e+00 
0.0000000e+00 -3.9375000e+05 0.0000000e+00 
0.0000000e+00 -3.9375000e+05 0.0000000e+00 
0.0000000e+00 -3.9375000e+05 0.0000000e+00 
0.0000000e+00 -3.9375000e+05 0.0000000e+00 
0.0000000e+00 -3.9375000e+05 0.0000000e+00 
0.0000000e+00 -3.9375000e+05 0.0000000e+00 
0.0000000e+00 -3.9375000e+05 0.0000000e+00 
