# vtk DataFile Version 4.0
vtk output
ASCII
DATASET UNSTRUCTURED_GRID
POINTS 30 float
0.0000000e+00 0.0000000e+00 0.0000000e+00 
0.0000000e+00 0.0000000e+00 8.0000001e-01 
0.0000000e+00 0.0000000e+00 1.6000000e+00 
0.0000000e+00 0.0000000e+00 2.4000001e+00 
0.0000000e+00 0.0000000e+00 3.2000000e+00 
0.0000000e+00 0.0000000e+00 4.0000000e+00 
0.0000000e+00 0.0000000e+00 4.8000002e+00 
0.0000000e+00 0.0000000e+00 5.5999999e+00 
0.0000000e+00 0.0000000e+00 6.4000001e+00 
0.0000000e+00 0.0000000e+00 7.1999998e+00 
0.0000000e+00 0.0000000e+00 8.0000000e+00 
1.0000000e+01 0.0000000e+00 0.0000000e+00 
1.0000000e+01 0.0000000e+00 8.0000001e-01 
1.0000000e+01 0.0000000e+00 1.6000000e+00 
1.0000000e+01 0.0000000e+00 2.4000001e+00 
1.0000000e+01 0.0000000e+00 3.2000000e+00 
1.0000000e+01 0.0000000e+00 4.0000000e+00 
1.0000000e+01 0.0000000e+00 4.8000002e+00 
1.0000000e+01 0.0000000e+00 5.5999999e+00 
1.0000000e+01 0.0000000e+00 6.4000001e+00 
1.0000000e+01 0.0000000e+00 7.1999998e+00 
1.0000000e+01 0.0000000e+00 8.0000000e+00 
2.0000000e+00 0.0000000e+00 4.0000000e+00 
4.0000000e+00 0.0000000e+00 4.0000000e+00 
6.0000000e+00 0.0000000e+00 4.0000000e+00 
8.0000000e+00 0.0000000e+00 4.0000000e+00 
2.0000000e+00 0.0000000e+00 8.0000000e+00 
4.0000000e+00 0.0000000e+00 8.0000000e+00 
6.0000000e+00 0.0000000e+00 8.0000000e+00 
8.0000000e+00 0.0000000e+00 8.0000000e+00 

CELLS 30 90
2 0 1
2 1 2
2 2 3
2 3 4
2 4 5
2 5 6
2 6 7
2 7 8
2 8 9
2 9 10
2 11 12
2 12 13
2 13 14
2 14 15
2 15 16
2 16 17
2 17 18
2 18 19
2 19 20
2 20 21
2 5 22
2 22 23
2 23 24
2 24 25
2 25 16
2 10 26
2 26 27
2 27 28
2 28 29
2 29 21

CELL_TYPES 30
3
3
3
3
3
3
3
3
3
3
3
3
3
3
3
3
3
3
3
3
3
3
3
3
3
3
3
3
3
3
POINT_DATA 30
FIELD FieldData 7
DISPLACEMENT 3 30  float
0.0000000e+00 0.0000000e+00 0.0000000e+00 
5.1536364e-03 0.0000000e+00 2.7989170e-06 
1.0112977e-02 0.0000000e+00 7.9689780e-06 
1.4619051e-02 0.0000000e+00 1.6786957e-05 
1.8402500e-02 0.0000000e+00 2.3220007e-05 
2.1209333e-02 0.0000000e+00 2.9206618e-05 
2.3520838e-02 0.0000000e+00 3.2512544e-05 
2.5831386e-02 0.0000000e+00 3.8794235e-05 
2.7983142e-02 0.0000000e+00 4.5075922e-05 
2.9824948e-02 0.0000000e+00 5.1357609e-05 
3.1227073e-02 0.0000000e+00 5.4760210e-05 
0.0000000e+00 0.0000000e+00 0.0000000e+00 
5.0966879e-03 0.0000000e+00 -9.3605313e-06 
9.9806935e-03 0.0000000e+00 -1.7057773e-05 
1.4451969e-02 0.0000000e+00 -2.1457874e-05 
1.8267578e-02 0.0000000e+00 -2.5857977e-05 
2.1189278e-02 0.0000000e+00 -2.8380678e-05 
2.3573278e-02 0.0000000e+00 -2.9406137e-05 
2.5849510e-02 0.0000000e+00 -3.0431596e-05 
2.7945975e-02 0.0000000e+00 -3.1252737e-05 
2.9775616e-02 0.0000000e+00 -3.2073876e-05 
3.1235926e-02 0.0000000e+00 -3.4118584e-05 
2.1200866e-02 0.0000000e+00 -2.0563453e-03 
2.1192398e-02 0.0000000e+00 2.0135463e-04 
2.1190578e-02 0.0000000e+00 2.8962581e-03 
2.1191768e-02 0.0000000e+00 3.3121076e-03 
3.1233707e-02 0.0000000e+00 -1.4043037e-03 
3.1239629e-02 0.0000000e+00 -5.0929270e-04 
3.1237790e-02 0.0000000e+00 9.8573742e-04 
3.1235952e-02 0.0000000e+00 1.5771959e-03 
ROTATION 3 30  float
0.0000000e+00 6.4790701e-03 0.0000000e+00 
0.0000000e+00 6.3679973e-03 0.0000000e+00 
0.0000000e+00 5.9726043e-03 0.0000000e+00 
0.0000000e+00 5.2368897e-03 0.0000000e+00 
0.0000000e+00 4.1655474e-03 0.0000000e+00 
0.0000000e+00 2.8144787e-03 0.0000000e+00 
0.0000000e+00 2.9244467e-03 0.0000000e+00 
0.0000000e+00 2.8204324e-03 0.0000000e+00 
0.0000000e+00 2.5274681e-03 0.0000000e+00 
0.0000000e+00 2.0455539e-03 0.0000000e+00 
0.0000000e+00 1.4550530e-03 0.0000000e+00 
0.0000000e+00 6.4164666e-03 0.0000000e+00 
0.0000000e+00 6.2796469e-03 0.0000000e+00 
0.0000000e+00 5.8925459e-03 0.0000000e+00 
0.0000000e+00 5.2324729e-03 0.0000000e+00 
0.0000000e+00 4.2533767e-03 0.0000000e+00 
0.0000000e+00 3.0189268e-03 0.0000000e+00 
0.0000000e+00 2.9268595e-03 0.0000000e+00 
0.0000000e+00 2.7495041e-03 0.0000000e+00 
0.0000000e+00 2.4727385e-03 0.0000000e+00 
0.0000000e+00 2.0824408e-03 0.0000000e+00 
0.0000000e+00 1.5348155e-03 0.0000000e+00 
0.0000000e+00 -3.8598184e-04 0.0000000e+00 
0.0000000e+00 -1.5287732e-03 0.0000000e+00 
0.0000000e+00 -9.2783041e-04 0.0000000e+00 
0.0000000e+00 5.7396543e-04 0.0000000e+00 
0.0000000e+00 3.4255991e-05 0.0000000e+00 
0.0000000e+00 -7.4599753e-04 0.0000000e+00 
0.0000000e+00 -6.3532736e-04 0.0000000e+00 
0.0000000e+00 1.5757396e-04 0.0000000e+00 
REACTION 3 30  float
-1.0933752e+04 -0.0000000e+00 -7.3471572e+03 
4.5838533e-10 -0.0000000e+00 -1.8189894e-12 
-2.1100277e-10 -0.0000000e+00 7.2759576e-12 
-1.0077201e-09 -0.0000000e+00 -3.6379788e-12 
1.3533281e-09 -0.0000000e+00 -1.4551915e-11 
6.5483619e-11 -0.0000000e+00 -4.5838533e-10 
1.4484613e-08 -0.0000000e+00 -2.6557245e-10 
-2.3283064e-09 -0.0000000e+00 2.1827873e-10 
2.6775524e-09 -0.0000000e+00 -2.0372681e-10 
7.8580342e-10 -0.0000000e+00 -3.6379788e-12 
-2.4583642e-09 -0.0000000e+00 3.1604941e-11 
-1.3468199e+04 -0.0000000e+00 2.4571395e+04 
6.6393113e-10 -0.0000000e+00 3.2741809e-11 
1.7844286e-09 -0.0000000e+00 1.6370905e-11 
-2.0954758e-09 -0.0000000e+00 5.0931703e-11 
-4.2164174e-09 -0.0000000e+00 -2.3646862e-10 
-9.3041308e-09 -0.0000000e+00 -2.4738256e-10 
-8.1490725e-10 -0.0000000e+00 1.4551915e-11 
2.4210749e-09 -0.0000000e+00 1.0913936e-11 
-3.4924597e-09 -0.0000000e+00 -4.9913069e-09 
4.9112714e-10 -0.0000000e+00 3.6379788e-12 
6.5356289e-09 -0.0000000e+00 2.0500011e-09 
-0.0000000e+00 -0.0000000e+00 4.4383341e-10 
-5.5479177e-10 -0.0000000e+00 7.3123374e-10 
-9.8953024e-10 -0.0000000e+00 -2.6921043e-10 
-1.7716957e-09 -0.0000000e+00 -1.8735591e-10 
3.1141099e-09 -0.0000000e+00 -7.2759576e-12 
-9.1276888e-09 -0.0000000e+00 -2.0008883e-11 
-0.0000000e+00 -0.0000000e+00 -8.4855856e-10 
3.8994585e-09 -0.0000000e+00 1.1823431e-11 
REACTION_MOMENT 3 30  float
-0.0000000e+00 5.8207661e-10 -0.0000000e+00 
-0.0000000e+00 4.6566129e-10 -0.0000000e+00 
-0.0000000e+00 1.2223609e-09 -0.0000000e+00 
-0.0000000e+00 -3.4924597e-10 -0.0000000e+00 
-0.0000000e+00 -2.5611371e-09 -0.0000000e+00 
-0.0000000e+00 4.2928150e-09 -0.0000000e+00 
-0.0000000e+00 2.2700988e-09 -0.0000000e+00 
-0.0000000e+00 -1.1641532e-10 -0.0000000e+00 
-0.0000000e+00 1.9499566e-09 -0.0000000e+00 
-0.0000000e+00 1.4260877e-09 -0.0000000e+00 
-0.0000000e+00 1.0440999e-09 -0.0000000e+00 
-0.0000000e+00 -5.8207661e-11 -0.0000000e+00 
-0.0000000e+00 2.3283064e-10 -0.0000000e+00 
-0.0000000e+00 1.1641532e-10 -0.0000000e+00 
-0.0000000e+00 -6.9849193e-10 -0.0000000e+00 
-0.0000000e+00 1.1641532e-10 -0.0000000e+00 
-0.0000000e+00 -8.7311491e-10 -0.0000000e+00 
-0.0000000e+00 2.9103830e-10 -0.0000000e+00 
-0.0000000e+00 1.6007107e-09 -0.0000000e+00 
-0.0000000e+00 -3.3760443e-09 -0.0000000e+00 
-0.0000000e+00 -1.0186341e-09 -0.0000000e+00 
-0.0000000e+00 5.5297278e-10 -0.0000000e+00 
-0.0000000e+00 5.4569682e-10 -0.0000000e+00 
-0.0000000e+00 2.2191671e-10 -0.0000000e+00 
-0.0000000e+00 -2.8012437e-10 -0.0000000e+00 
-0.0000000e+00 -1.6734703e-10 -0.0000000e+00 
-0.0000000e+00 -1.0913936e-11 -0.0000000e+00 
-0.0000000e+00 -3.6379788e-12 -0.0000000e+00 
-0.0000000e+00 1.0913936e-11 -0.0000000e+00 
-0.0000000e+00 7.2759576e-12 -0.0000000e+00 
VOLUME_ACCELERATION 3 30  float
0.0000000e+00 0.0000000e+00 0.0000000e+00 
0.0000000e+00 0.0000000e+00 0.0000000e+00 
0.0000000e+00 0.0000000e+00 0.0000000e+00 
0.0000000e+00 0.0000000e+00 0.0000000e+00 
0.0000000e+00 0.0000000e+00 0.0000000e+00 
0.0000000e+00 0.0000000e+00 0.0000000e+00 
0.0000000e+00 0.0000000e+00 0.0000000e+00 
0.0000000e+00 0.0000000e+00 0.0000000e+00 
0.0000000e+00 0.0000000e+00 0.0000000e+00 
0.0000000e+00 0.0000000e+00 0.0000000e+00 
0.0000000e+00 0.0000000e+00 0.0000000e+00 
0.0000000e+00 0.0000000e+00 0.0000000e+00 
0.0000000e+00 0.0000000e+00 0.0000000e+00 
0.0000000e+00 0.0000000e+00 0.0000000e+00 
0.0000000e+00 0.0000000e+00 0.0000000e+00 
0.0000000e+00 0.0000000e+00 0.0000000e+00 
0.0000000e+00 0.0000000e+00 0.0000000e+00 
0.0000000e+00 0.0000000e+00 0.0000000e+00 
0.0000000e+00 0.0000000e+00 0.0000000e+00 
0.0000000e+00 0.0000000e+00 0.0000000e+00 
0.0000000e+00 0.0000000e+00 0.0000000e+00 
0.0000000e+00 0.0000000e+00 0.0000000e+00 
0.0000000e+00 0.0000000e+00 0.0000000e+00 
0.0000000e+00 0.0000000e+00 0.0000000e+00 
0.0000000e+00 0.0000000e+00 0.0000000e+00 
0.0000000e+00 0.0000000e+00 0.0000000e+00 
0.0000000e+00 0.0000000e+00 0.0000000e+00 
0.0000000e+00 0.0000000e+00 0.0000000e+00 
0.0000000e+00 0.0000000e+00 0.0000000e+00 
0.0000000e+00 0.0000000e+00 0.0000000e+00 
POINT_LOAD 3 30  float
0.0000000e+00 0.0000000e+00 0.0000000e+00 
-6.1202397e+03 0.0000000e+00 -6.2242524e+03 
6.0757300e+02 0.0000000e+00 -9.5757822e+03 
-1.4551219e+02 0.0000000e+00 6.2604321e+03 
5.6482812e+03 0.0000000e+00 1.1719094e+03 
8.0705581e+03 0.0000000e+00 -9.1673535e+03 
2.4641487e+03 0.0000000e+00 -7.8113721e+03 
0.0000000e+00 0.0000000e+00 0.0000000e+00 
0.0000000e+00 0.0000000e+00 0.0000000e+00 
7.9107324e+03 0.0000000e+00 7.5576108e+03 
-5.5773086e+03 0.0000000e+00 7.5027397e+03 
0.0000000e+00 0.0000000e+00 0.0000000e+00 
2.2993621e+03 0.0000000e+00 -4.3661357e+03 
-4.5330552e+03 0.0000000e+00 -8.6549922e+03 
0.0000000e+00 0.0000000e+00 0.0000000e+00 
6.2673613e+03 0.0000000e+00 -4.9281763e+03 
2.6208320e+03 0.0000000e+00 7.9958330e+03 
0.0000000e+00 0.0000000e+00 0.0000000e+00 
-1.3901437e+03 0.0000000e+00 -5.3633496e+02 
0.0000000e+00 0.0000000e+00 0.0000000e+00 
-4.3110835e+03 0.0000000e+00 3.2118564e+03 
9.8718037e+03 0.0000000e+00 -1.5365637e+03 
0.0000000e+00 0.0000000e+00 0.0000000e+00 
-6.9806733e+03 0.0000000e+00 4.9444731e+03 
-3.1600156e+03 0.0000000e+00 8.3309062e+03 
3.8656824e+03 0.0000000e+00 -8.9973301e+03 
7.4951019e+02 0.0000000e+00 -7.2303965e+03 
8.1468569e+03 0.0000000e+00 3.2869077e+03 
0.0000000e+00 0.0000000e+00 0.0000000e+00 
-1.9027191e+03 0.0000000e+00 1.5417826e+03 
POINT_MOMENT 3 30  float
0.0000000e+00 0.0000000e+00 0.0000000e+00 
0.0000000e+00 0.0000000e+00 0.0000000e+00 
0.0000000e+00 0.0000000e+00 0.0000000e+00 
0.0000000e+00 0.0000000e+00 0.0000000e+00 
0.0000000e+00 0.0000000e+00 0.0000000e+00 
0.0000000e+00 0.0000000e+00 0.0000000e+00 
0.0000000e+00 0.0000000e+00 0.0000000e+00 
0.0000000e+00 0.0000000e+00 0.0000000e+00 
0.0000000e+00 0.0000000e+00 0.0000000e+00 
0.0000000e+00 0.0000000e+00 0.0000000e+00 
0.0000000e+00 0.0000000e+00 0.0000000e+00 
0.0000000e+00 0.0000000e+00 0.0000000e+00 
0.0000000e+00 0.0000000e+00 0.0000000e+00 
0.0000000e+00 0.0000000e+00 0.0000000e+00 
0.0000000e+00 0.0000000e+00 0.0000000e+00 
0.0000000e+00 0.0000000e+00 0.0000000e+00 
0.0000000e+00 0.0000000e+00 0.0000000e+00 
0.0000000e+00 0.0000000e+00 0.0000000e+00 
0.0000000e+00 0.0000000e+00 0.0000000e+00 
0.0000000e+00 0.0000000e+00 0.0000000e+00 
0.0000000e+00 0.0000000e+00 0.0000000e+00 
0.0000000e+00 0.0000000e+00 0.0000000e+00 
0.0000000e+00 0.0000000e+00 0.0000000e+00 
0.0000000e+00 0.0000000e+00 0.0000000e+00 
0.0000000e+00 0.0000000e+00 0.0000000e+00 
0.0000000e+00 0.0000000e+00 0.0000000e+00 
0.0000000e+00 0.0000000e+00 0.0000000e+00 
0.0000000e+00 0.0000000e+00 0.0000000e+00 
0.0000000e+00 0.0000000e+00 0.0000000e+00 
0.0000000e+00 0.0000000e+00 0.0000000e+00 
CELL_DATA 30
FIELD FieldData 9
YOUNG_MODULUS 1 30  float
2.1000000e+11
2.1000000e+11
2.1000000e+11
2.1000000e+11
2.1000000e+11
2.1000000e+11
2.1000000e+11
2.1000000e+11
2.1000000e+11
2.1000000e+11
2.1000000e+11
2.1000000e+11
2.1000000e+11
2.1000000e+11
2.1000000e+11
2.1000000e+11
2.1000000e+11
2.1000000e+11
2.1000000e+11
2.1000000e+11
2.1000000e+11
2.1000000e+11
2.1000000e+11
2.1000000e+11
2.1000000e+11
2.1000000e+11
2.1000000e+11
2.1000000e+11
2.1000000e+11
2.1000000e+11
DENSITY 1 30  float
7.8500000e+03
7.8500000e+03
7.8500000e+03
7.8500000e+03
7.8500000e+03
7.8500000e+03
7.8500000e+03
7.8500000e+03
7.8500000e+03
7.8500000e+03
7.8500000e+03
7.8500000e+03
7.8500000e+03
7.8500000e+03
7.8500000e+03
7.8500000e+03
7.8500000e+03
7.8500000e+03
7.8500000e+03
7.8500000e+03
7.8500000e+03
7.8500000e+03
7.8500000e+03
7.8500000e+03
7.8500000e+03
7.8500000e+03
7.8500000e+03
7.8500000e+03
7.8500000e+03
7.8500000e+03
CROSS_AREA 1 30  float
9.9999998e-03
9.9999998e-03
9.9999998e-03
9.9999998e-03
9.9999998e-03
9.9999998e-03
9.9999998e-03
9.9999998e-03
9.9999998e-03
9.9999998e-03
9.9999998e-03
9.9999998e-03
9.9999998e-03
9.9999998e-03
9.9999998e-03
9.9999998e-03
9.9999998e-03
9.9999998e-03
9.9999998e-03
9.9999998e-03
9.9999998e-03
9.9999998e-03
9.9999998e-03
9.9999998e-03
9.9999998e-03
9.9999998e-03
9.9999998e-03
9.9999998e-03
9.9999998e-03
9.9999998e-03
I22 1 30  float
1.5000001e-04
1.5000001e-04
1.5000001e-04
1.5000001e-04
1.5000001e-04
1.5000001e-04
1.5000001e-04
1.5000001e-04
1.5000001e-04
1.5000001e-04
1.5000001e-04
1.5000001e-04
1.5000001e-04
1.5000001e-04
1.5000001e-04
1.5000001e-04
1.5000001e-04
1.5000001e-04
1.5000001e-04
1.5000001e-04
1.5000001e-04
1.5000001e-04
1.5000001e-04
1.5000001e-04
1.5000001e-04
1.5000001e-04
1.5000001e-04
1.5000001e-04
1.5000001e-04
1.5000001e-04
I33 1 30  float
1.5000001e-04
1.5000001e-04
1.5000001e-04
1.5000001e-04
1.5000001e-04
1.5000001e-04
1.5000001e-04
1.5000001e-04
1.5000001e-04
1.5000001e-04
1.5000001e-04
1.5000001e-04
1.5000001e-04
1.5000001e-04
1.5000001e-04
1.5000001e-04
1.5000001e-04
1.5000001e-04
1.5000001e-04
1.5000001e-04
1.5000001e-04
1.5000001e-04
1.5000001e-04
1.5000001e-04
1.5000001e-04
1.5000001e-04
1.5000001e-04
1.5000001e-04
1.5000001e-04
1.5000001e-04
TORSIONAL_INERTIA 1 30  float
3.0000001e-04
3.0000001e-04
3.0000001e-04
3.0000001e-04
3.0000001e-04
3.0000001e-04
3.0000001e-04
3.0000001e-04
3.0000001e-04
3.0000001e-04
3.0000001e-04
3.0000001e-04
3.0000001e-04
3.0000001e-04
3.0000001e-04
3.0000001e-04
3.0000001e-04
3.0000001e-04
3.0000001e-04
3.0000001e-04
3.0000001e-04
3.0000001e-04
3.0000001e-04
3.0000001e-04
3.0000001e-04
3.0000001e-04
3.0000001e-04
3.0000001e-04
3.0000001e-04
3.0000001e-04
POISSON_RATIO 1 30  float
3.0000001e-01
3.0000001e-01
3.0000001e-01
3.0000001e-01
3.0000001e-01
3.0000001e-01
3.0000001e-01
3.0000001e-01
3.0000001e-01
3.0000001e-01
3.0000001e-01
3.0000001e-01
3.0000001e-01
3.0000001e-01
3.0000001e-01
3.0000001e-01
3.0000001e-01
3.0000001e-01
3.0000001e-01
3.0000001e-01
3.0000001e-01
3.0000001e-01
3.0000001e-01
3.0000001e-01
3.0000001e-01
3.0000001e-01
3.0000001e-01
3.0000001e-01
3.0000001e-01
3.0000001e-01
MOMENT 3 30  float
0.0000000e+00 -4.3735005e+03 0.0000000e+00 
0.0000000e+00 -1.5568598e+04 0.0000000e+00 
0.0000000e+00 -2.8968762e+04 0.0000000e+00 
0.0000000e+00 -4.2184102e+04 0.0000000e+00 
0.0000000e+00 -5.3198332e+04 0.0000000e+00 
0.0000000e+00 4.3299941e+03 0.0000000e+00 
0.0000000e+00 -4.0955664e+03 0.0000000e+00 
0.0000000e+00 -1.1535468e+04 0.0000000e+00 
0.0000000e+00 -1.8975369e+04 0.0000000e+00 
0.0000000e+00 -2.3250977e+04 0.0000000e+00 
0.0000000e+00 -5.3872798e+03 0.0000000e+00 
0.0000000e+00 -1.5242094e+04 0.0000000e+00 
0.0000000e+00 -2.5990385e+04 0.0000000e+00 
0.0000000e+00 -3.8551898e+04 0.0000000e+00 
0.0000000e+00 -4.8606469e+04 0.0000000e+00 
0.0000000e+00 -3.6251528e+03 0.0000000e+00 
0.0000000e+00 -6.9833701e+03 0.0000000e+00 
0.0000000e+00 -1.0897645e+04 0.0000000e+00 
0.0000000e+00 -1.5367977e+04 0.0000000e+00 
0.0000000e+00 -2.1562742e+04 0.0000000e+00 
0.0000000e+00 -5.0407254e+04 0.0000000e+00 
0.0000000e+00 -1.7998965e+04 0.0000000e+00 
0.0000000e+00 9.4648496e+03 0.0000000e+00 
0.0000000e+00 2.3653285e+04 0.0000000e+00 
0.0000000e+00 3.8508145e+04 0.0000000e+00 
0.0000000e+00 -2.2377553e+04 0.0000000e+00 
0.0000000e+00 -1.2288993e+04 0.0000000e+00 
0.0000000e+00 1.7430552e+03 0.0000000e+00 
0.0000000e+00 1.2488196e+04 0.0000000e+00 
0.0000000e+00 2.1691555e+04 0.0000000e+00 
FORCE 3 30  float
7.3471572e+03 0.0000000e+00 -1.0933752e+04 
1.3571410e+04 0.0000000e+00 -1.7053990e+04 
2.3147191e+04 0.0000000e+00 -1.6446418e+04 
1.6886760e+04 0.0000000e+00 -1.6591930e+04 
1.5714851e+04 0.0000000e+00 -1.0943649e+04 
8.6780605e+03 0.0000000e+00 -1.1764025e+04 
1.6489432e+04 0.0000000e+00 -9.2998760e+03 
1.6489432e+04 0.0000000e+00 -9.2998760e+03 
1.6489432e+04 0.0000000e+00 -9.2998760e+03 
8.9318213e+03 0.0000000e+00 -1.3891439e+03 
-2.4571395e+04 0.0000000e+00 -1.3468199e+04 
-2.0205260e+04 0.0000000e+00 -1.1168837e+04 
-1.1550267e+04 0.0000000e+00 -1.5701893e+04 
-1.1550267e+04 0.0000000e+00 -1.5701893e+04 
-6.6220908e+03 0.0000000e+00 -9.4345312e+03 
-2.6918298e+03 0.0000000e+00 -4.1977715e+03 
-2.6918298e+03 0.0000000e+00 -4.1977715e+03 
-2.1554949e+03 0.0000000e+00 -5.5879150e+03 
-2.1554949e+03 0.0000000e+00 -5.5879150e+03 
-5.3673516e+03 0.0000000e+00 -9.8989990e+03 
-8.8909336e+03 0.0000000e+00 1.6204144e+04 
-8.8909336e+03 0.0000000e+00 1.6204144e+04 
-1.9102606e+03 0.0000000e+00 1.1259671e+04 
1.2497549e+03 0.0000000e+00 2.9287642e+03 
-2.6159275e+03 0.0000000e+00 1.1926094e+04 
6.9664526e+03 0.0000000e+00 1.4290815e+03 
6.2169424e+03 0.0000000e+00 8.6594775e+03 
-1.9299141e+03 0.0000000e+00 5.3725703e+03 
-1.9299141e+03 0.0000000e+00 5.3725703e+03 
-2.7195021e+01 0.0000000e+00 3.8307878e+03 
