# vtk DataFile Version 4.0
vtk output
ASCII
DATASET UNSTRUCTURED_GRID
POINTS 212 float
0.0000000e+00 0.0000000e+00 0.0000000e+00 
0.0000000e+00 0.0000000e+00 2.5000000e-01 
0.0000000e+00 0.0000000e+00 5.0000000e-01 
0.0000000e+00 0.0000000e+00 7.5000000e-01 
0.0000000e+00 0.0000000e+00 1.0000000e+00 
0.0000000e+00 0.0000000e+00 1.2500000e+00 
0.0000000e+00 0.0000000e+00 1.5000000e+00 
0.0000000e+00 0.0000000e+00 1.7500000e+00 
0.0000000e+00 0.0000000e+00 2.0000000e+00 
0.0000000e+00 0.0000000e+00 2.2500000e+00 
0.0000000e+00 0.0000000e+00 2.5000000e+00 
0.0000000e+00 0.0000000e+00 2.7500000e+00 
0.0000000e+00 0.0000000e+00 3.0000000e+00 
0.0000000e+00 0.0000000e+00 3.2500000e+00 
0.0000000e+00 0.0000000e+00 3.5000000e+00 
0.0000000e+00 0.0000000e+00 3.7500000e+00 
0.0000000e+00 0.0000000e+00 4.0000000e+00 
0.0000000e+00 0.0000000e+00 4.2500000e+00 
0.0000000e+00 0.0000000e+00 4.5000000e+00 
0.0000000e+00 0.0000000e+00 4.7500000e+00 
0.0000000e+00 0.0000000e+00 5.0000000e+00 
0.0000000e+00 0.0000000e+00 5.2500000e+00 
0.0000000e+00 0.0000000e+00 5.5000000e+00 
0.0000000e+00 0.0000000e+00 5.7500000e+00 
0.0000000e+00 0.0000000e+00 6.0000000e+00 
0.0000000e+00 0.0000000e+00 6.2500000e+00 
0.0000000e+00 0.0000000e+00 6.5000000e+00 
0.0000000e+00 0.0000000e+00 6.7500000e+00 
0.0000000e+00 0.0000000e+00 7.0000000e+00 
0.0000000e+00 0.0000000e+00 7.2500000e+00 
0.0000000e+00 0.0000000e+00 7.5000000e+00 
0.0000000e+00 0.0000000e+00 7.7500000e+00 
0.0000000e+00 0.0000000e+00 8.0000000e+00 
0.0000000e+00 0.0000000e+00 8.2500000e+00 
0.0000000e+00 0.0000000e+00 8.5000000e+00 
0.0000000e+00 0.0000000e+00 8.7500000e+00 
0.0000000e+00 0.0000000e+00 9.0000000e+00 
0.0000000e+00 0.0000000e+00 9.2500000e+00 
0.0000000e+00 0.0000000e+00 9.5000000e+00 
0.0000000e+00 0.0000000e+00 9.7500000e+00 
0.0000000e+00 0.0000000e+00 1.0000000e+01 
0.0000000e+00 0.0000000e+00 1.0250000e+01 
0.0000000e+00 0.0000000e+00 1.0500000e+01 
0.0000000e+00 0.0000000e+00 1.0750000e+01 
0.0000000e+00 0.0000000e+00 1.1000000e+01 
0.0000000e+00 0.0000000e+00 1.1250000e+01 
0.0000000e+00 0.0000000e+00 1.1500000e+01 
0.0000000e+00 0.0000000e+00 1.1750000e+01 
0.0000000e+00 0.0000000e+00 1.2000000e+01 
0.0000000e+00 0.0000000e+00 1.2250000e+01 
0.0000000e+00 0.0000000e+00 1.2500000e+01 
0.0000000e+00 0.0000000e+00 1.2750000e+01 
0.0000000e+00 0.0000000e+00 1.3000000e+01 
0.0000000e+00 0.0000000e+00 1.3250000e+01 
0.0000000e+00 0.0000000e+00 1.3500000e+01 
0.0000000e+00 0.0000000e+00 1.3750000e+01 
0.0000000e+00 0.0000000e+00 1.4000000e+01 
0.0000000e+00 0.0000000e+00 1.4250000e+01 
0.0000000e+00 0.0000000e+00 1.4500000e+01 
0.0000000e+00 0.0000000e+00 1.4750000e+01 
0.0000000e+00 0.0000000e+00 1.5000000e+01 
0.0000000e+00 0.0000000e+00 1.5250000e+01 
0.0000000e+00 0.0000000e+00 1.5500000e+01 
0.0000000e+00 0.0000000e+00 1.5750000e+01 
0.0000000e+00 0.0000000e+00 1.6000000e+01 
0.0000000e+00 0.0000000e+00 1.6250000e+01 
0.0000000e+00 0.0000000e+00 1.6500000e+01 
0.0000000e+00 0.0000000e+00 1.6750000e+01 
0.0000000e+00 0.0000000e+00 1.7000000e+01 
0.0000000e+00 0.0000000e+00 1.7250000e+01 
0.0000000e+00 0.0000000e+00 1.7500000e+01 
0.0000000e+00 0.0000000e+00 1.7750000e+01 
0.0000000e+00 0.0000000e+00 1.8000000e+01 
5.0000000e-01 0.0000000e+00 3.0000000e+00 
5.0000000e-01 0.0000000e+00 6.0000000e+00 
5.0000000e-01 0.0000000e+00 9.0000000e+00 
5.0000000e-01 0.0000000e+00 1.2000000e+01 
5.0000000e-01 0.0000000e+00 1.5000000e+01 
5.0000000e-01 0.0000000e+00 1.8000000e+01 
1.0000000e+00 0.0000000e+00 3.0000000e+00 
1.0000000e+00 0.0000000e+00 6.0000000e+00 
1.0000000e+00 0.0000000e+00 9.0000000e+00 
1.0000000e+00 0.0000000e+00 1.2000000e+01 
1.0000000e+00 0.0000000e+00 1.5000000e+01 
1.0000000e+00 0.0000000e+00 1.8000000e+01 
1.5000000e+00 0.0000000e+00 3.0000000e+00 
1.5000000e+00 0.0000000e+00 6.0000000e+00 
1.5000000e+00 0.0000000e+00 9.0000000e+00 
1.5000000e+00 0.0000000e+00 1.2000000e+01 
1.5000000e+00 0.0000000e+00 1.5000000e+01 
1.5000000e+00 0.0000000e+00 1.8000000e+01 
2.0000000e+00 0.0000000e+00 3.0000000e+00 
2.0000000e+00 0.0000000e+00 6.0000000e+00 
2.0000000e+00 0.0000000e+00 9.0000000e+00 
2.0000000e+00 0.0000000e+00 1.2000000e+01 
2.0000000e+00 0.0000000e+00 1.5000000e+01 
2.0000000e+00 0.0000000e+00 1.8000000e+01 
2.5000000e+00 0.0000000e+00 3.0000000e+00 
2.5000000e+00 0.0000000e+00 6.0000000e+00 
2.5000000e+00 0.0000000e+00 9.0000000e+00 
2.5000000e+00 0.0000000e+00 1.2000000e+01 
2.5000000e+00 0.0000000e+00 1.5000000e+01 
2.5000000e+00 0.0000000e+00 1.8000000e+01 
3.0000000e+00 0.0000000e+00 3.0000000e+00 
3.0000000e+00 0.0000000e+00 6.0000000e+00 
3.0000000e+00 0.0000000e+00 9.0000000e+00 
3.0000000e+00 0.0000000e+00 1.2000000e+01 
3.0000000e+00 0.0000000e+00 1.5000000e+01 
3.0000000e+00 0.0000000e+00 1.8000000e+01 
3.5000000e+00 0.0000000e+00 3.0000000e+00 
3.5000000e+00 0.0000000e+00 6.0000000e+00 
3.5000000e+00 0.0000000e+00 9.0000000e+00 
3.5000000e+00 0.0000000e+00 1.2000000e+01 
3.5000000e+00 0.0000000e+00 1.5000000e+01 
3.5000000e+00 0.0000000e+00 1.8000000e+01 
4.0000000e+00 0.0000000e+00 3.0000000e+00 
4.0000000e+00 0.0000000e+00 6.0000000e+00 
4.0000000e+00 0.0000000e+00 9.0000000e+00 
4.0000000e+00 0.0000000e+00 1.2000000e+01 
4.0000000e+00 0.0000000e+00 1.5000000e+01 
4.0000000e+00 0.0000000e+00 1.8000000e+01 
4.5000000e+00 0.0000000e+00 3.0000000e+00 
4.5000000e+00 0.0000000e+00 6.0000000e+00 
4.5000000e+00 0.0000000e+00 9.0000000e+00 
4.5000000e+00 0.0000000e+00 1.2000000e+01 
4.5000000e+00 0.0000000e+00 1.5000000e+01 
4.5000000e+00 0.0000000e+00 1.8000000e+01 
5.0000000e+00 0.0000000e+00 3.0000000e+00 
5.0000000e+00 0.0000000e+00 6.0000000e+00 
5.0000000e+00 0.0000000e+00 9.0000000e+00 
5.0000000e+00 0.0000000e+00 1.2000000e+01 
5.0000000e+00 0.0000000e+00 1.5000000e+01 
5.0000000e+00 0.0000000e+00 1.8000000e+01 
5.5000000e+00 0.0000000e+00 3.0000000e+00 
5.5000000e+00 0.0000000e+00 6.0000000e+00 
5.5000000e+00 0.0000000e+00 9.0000000e+00 
5.5000000e+00 0.0000000e+00 1.2000000e+01 
5.5000000e+00 0.0000000e+00 1.5000000e+01 
5.5000000e+00 0.0000000e+00 1.8000000e+01 
6.0000000e+00 0.0000000e+00 0.0000000e+00 
6.0000000e+00 0.0000000e+00 2.5000000e-01 
6.0000000e+00 0.0000000e+00 5.0000000e-01 
6.0000000e+00 0.0000000e+00 7.5000000e-01 
6.0000000e+00 0.0000000e+00 1.0000000e+00 
6.0000000e+00 0.0000000e+00 1.2500000e+00 
6.0000000e+00 0.0000000e+00 1.5000000e+00 
6.0000000e+00 0.0000000e+00 1.7500000e+00 
6.0000000e+00 0.0000000e+00 2.0000000e+00 
6.0000000e+00 0.0000000e+00 2.2500000e+00 
6.0000000e+00 0.0000000e+00 2.5000000e+00 
6.0000000e+00 0.0000000e+00 2.7500000e+00 
6.0000000e+00 0.0000000e+00 3.0000000e+00 
6.0000000e+00 0.0000000e+00 3.2500000e+00 
6.0000000e+00 0.0000000e+00 3.5000000e+00 
6.0000000e+00 0.0000000e+00 3.7500000e+00 
6.0000000e+00 0.0000000e+00 4.0000000e+00 
6.0000000e+00 0.0000000e+00 4.2500000e+00 
6.0000000e+00 0.0000000e+00 4.5000000e+00 
6.0000000e+00 0.0000000e+00 4.7500000e+00 
6.0000000e+00 0.0000000e+00 5.0000000e+00 
6.0000000e+00 0.0000000e+00 5.2500000e+00 
6.0000000e+00 0.0000000e+00 5.5000000e+00 
6.0000000e+00 0.0000000e+00 5.7500000e+00 
6.0000000e+00 0.0000000e+00 6.0000000e+00 
6.0000000e+00 0.0000000e+00 6.2500000e+00 
6.0000000e+00 0.0000000e+00 6.5000000e+00 
6.0000000e+00 0.0000000e+00 6.7500000e+00 
6.0000000e+00 0.0000000e+00 7.0000000e+00 
6.0000000e+00 0.0000000e+00 7.2500000e+00 
6.0000000e+00 0.0000000e+00 7.5000000e+00 
6.0000000e+00 0.0000000e+00 7.7500000e+00 
6.0000000e+00 0.0000000e+00 8.0000000e+00 
6.0000000e+00 0.0000000e+00 8.2500000e+00 
6.0000000e+00 0.0000000e+00 8.5000000e+00 
6.0000000e+00 0.0000000e+00 8.7500000e+00 
6.0000000e+00 0.0000000e+00 9.0000000e+00 
6.0000000e+00 0.0000000e+00 9.2500000e+00 
6.0000000e+00 0.0000000e+00 9.5000000e+00 
6.0000000e+00 0.0000000e+00 9.7500000e+00 
6.0000000e+00 0.0000000e+00 1.0000000e+01 
6.0000000e+00 0.0000000e+00 1.0250000e+01 
6.0000000e+00 0.0000000e+00 1.0500000e+01 
6.0000000e+00 0.0000000e+00 1.0750000e+01 
6.0000000e+00 0.0000000e+00 1.1000000e+01 
6.0000000e+00 0.0000000e+00 1.1250000e+01 
6.0000000e+00 0.0000000e+00 1.1500000e+01 
6.0000000e+00 0.0000000e+00 1.1750000e+01 
6.0000000e+00 0.0000000e+00 1.2000000e+01 
6.0000000e+00 0.0000000e+00 1.2250000e+01 
6.0000000e+00 0.0000000e+00 1.2500000e+01 
6.0000000e+00 0.0000000e+00 1.2750000e+01 
6.0000000e+00 0.0000000e+00 1.3000000e+01 
6.0000000e+00 0.0000000e+00 1.3250000e+01 
6.0000000e+00 0.0000000e+00 1.3500000e+01 
6.0000000e+00 0.0000000e+00 1.3750000e+01 
6.0000000e+00 0.0000000e+00 1.4000000e+01 
6.0000000e+00 0.0000000e+00 1.4250000e+01 
6.0000000e+00 0.0000000e+00 1.4500000e+01 
6.0000000e+00 0.0000000e+00 1.4750000e+01 
6.0000000e+00 0.0000000e+00 1.5000000e+01 
6.0000000e+00 0.0000000e+00 1.5250000e+01 
6.0000000e+00 0.0000000e+00 1.5500000e+01 
6.0000000e+00 0.0000000e+00 1.5750000e+01 
6.0000000e+00 0.0000000e+00 1.6000000e+01 
6.0000000e+00 0.0000000e+00 1.6250000e+01 
6.0000000e+00 0.0000000e+00 1.6500000e+01 
6.0000000e+00 0.0000000e+00 1.6750000e+01 
6.0000000e+00 0.0000000e+00 1.7000000e+01 
6.0000000e+00 0.0000000e+00 1.7250000e+01 
6.0000000e+00 0.0000000e+00 1.7500000e+01 
6.0000000e+00 0.0000000e+00 1.7750000e+01 
6.0000000e+00 0.0000000e+00 1.8000000e+01 

CELLS 216 648
2 0 1
2 1 2
2 2 3
2 3 4
2 4 5
2 5 6
2 6 7
2 7 8
2 8 9
2 9 10
2 10 11
2 11 12
2 12 13
2 13 14
2 14 15
2 15 16
2 16 17
2 17 18
2 18 19
2 19 20
2 20 21
2 21 22
2 22 23
2 23 24
2 24 25
2 25 26
2 26 27
2 27 28
2 28 29
2 29 30
2 30 31
2 31 32
2 32 33
2 33 34
2 34 35
2 35 36
2 36 37
2 37 38
2 38 39
2 39 40
2 40 41
2 41 42
2 42 43
2 43 44
2 44 45
2 45 46
2 46 47
2 47 48
2 48 49
2 49 50
2 50 51
2 51 52
2 52 53
2 53 54
2 54 55
2 55 56
2 56 57
2 57 58
2 58 59
2 59 60
2 60 61
2 61 62
2 62 63
2 63 64
2 64 65
2 65 66
2 66 67
2 67 68
2 68 69
2 69 70
2 70 71
2 71 72
2 139 140
2 140 141
2 141 142
2 142 143
2 143 144
2 144 145
2 145 146
2 146 147
2 147 148
2 148 149
2 149 150
2 150 151
2 151 152
2 152 153
2 153 154
2 154 155
2 155 156
2 156 157
2 157 158
2 158 159
2 159 160
2 160 161
2 161 162
2 162 163
2 163 164
2 164 165
2 165 166
2 166 167
2 167 168
2 168 169
2 169 170
2 170 171
2 171 172
2 172 173
2 173 174
2 174 175
2 175 176
2 176 177
2 177 178
2 178 179
2 179 180
2 180 181
2 181 182
2 182 183
2 183 184
2 184 185
2 185 186
2 186 187
2 187 188
2 188 189
2 189 190
2 190 191
2 191 192
2 192 193
2 193 194
2 194 195
2 195 196
2 196 197
2 197 198
2 198 199
2 199 200
2 200 201
2 201 202
2 202 203
2 203 204
2 204 205
2 205 206
2 206 207
2 207 208
2 208 209
2 209 210
2 210 211
2 12 73
2 73 79
2 79 85
2 85 91
2 91 97
2 97 103
2 103 109
2 109 115
2 115 121
2 121 127
2 127 133
2 133 151
2 24 74
2 74 80
2 80 86
2 86 92
2 92 98
2 98 104
2 104 110
2 110 116
2 116 122
2 122 128
2 128 134
2 134 163
2 36 75
2 75 81
2 81 87
2 87 93
2 93 99
2 99 105
2 105 111
2 111 117
2 117 123
2 123 129
2 129 135
2 135 175
2 48 76
2 76 82
2 82 88
2 88 94
2 94 100
2 100 106
2 106 112
2 112 118
2 118 124
2 124 130
2 130 136
2 136 187
2 60 77
2 77 83
2 83 89
2 89 95
2 95 101
2 101 107
2 107 113
2 113 119
2 119 125
2 125 131
2 131 137
2 137 199
2 72 78
2 78 84
2 84 90
2 90 96
2 96 102
2 102 108
2 108 114
2 114 120
2 120 126
2 126 132
2 132 138
2 138 211

CELL_TYPES 216
3
3
3
3
3
3
3
3
3
3
3
3
3
3
3
3
3
3
3
3
3
3
3
3
3
3
3
3
3
3
3
3
3
3
3
3
3
3
3
3
3
3
3
3
3
3
3
3
3
3
3
3
3
3
3
3
3
3
3
3
3
3
3
3
3
3
3
3
3
3
3
3
3
3
3
3
3
3
3
3
3
3
3
3
3
3
3
3
3
3
3
3
3
3
3
3
3
3
3
3
3
3
3
3
3
3
3
3
3
3
3
3
3
3
3
3
3
3
3
3
3
3
3
3
3
3
3
3
3
3
3
3
3
3
3
3
3
3
3
3
3
3
3
3
3
3
3
3
3
3
3
3
3
3
3
3
3
3
3
3
3
3
3
3
3
3
3
3
3
3
3
3
3
3
3
3
3
3
3
3
3
3
3
3
3
3
3
3
3
3
3
3
3
3
3
3
3
3
3
3
3
3
3
3
3
3
3
3
3
3
3
3
3
3
3
3
POINT_DATA 212
FIELD FieldData 3
ADJOINT_DISPLACEMENT 3 212  float
0.0000000e+00 0.0000000e+00 0.0000000e+00 
-9.9379185e-04 0.0000000e+00 1.9492310e-15 
-1.9835026e-03 0.0000000e+00 3.8984619e-15 
-2.9650514e-03 0.0000000e+00 5.8476927e-15 
-3.9343573e-03 0.0000000e+00 7.7969239e-15 
-4.8873392e-03 0.0000000e+00 9.7461551e-15 
-5.8199163e-03 0.0000000e+00 1.1695385e-14 
-6.7280070e-03 0.0000000e+00 1.3644617e-14 
-7.6075308e-03 0.0000000e+00 1.5593848e-14 
-8.4544066e-03 0.0000000e+00 1.7543079e-14 
-9.2645539e-03 0.0000000e+00 1.9492310e-14 
-1.0033891e-02 0.0000000e+00 2.1441540e-14 
-1.0758337e-02 0.0000000e+00 2.3390771e-14 
-1.1542774e-02 0.0000000e+00 1.4324465e-06 
-1.2511581e-02 0.0000000e+00 2.8648928e-06 
-1.3689917e-02 0.0000000e+00 4.2973393e-06 
-1.5102942e-02 0.0000000e+00 5.7297857e-06 
-1.6775815e-02 0.0000000e+00 7.1622321e-06 
-1.8733699e-02 0.0000000e+00 8.5946785e-06 
-2.1001752e-02 0.0000000e+00 1.0027125e-05 
-2.3605134e-02 0.0000000e+00 1.1459571e-05 
-2.6569005e-02 0.0000000e+00 1.2892018e-05 
-2.9918527e-02 0.0000000e+00 1.4324464e-05 
-3.3678859e-02 0.0000000e+00 1.5756910e-05 
-3.7875161e-02 0.0000000e+00 1.7189357e-05 
-4.2993575e-02 0.0000000e+00 2.4353873e-05 
-4.9427997e-02 0.0000000e+00 3.1518390e-05 
-5.7065219e-02 0.0000000e+00 3.8682905e-05 
-6.5792024e-02 0.0000000e+00 4.5847421e-05 
-7.5495206e-02 0.0000000e+00 5.3011932e-05 
-8.6061545e-02 0.0000000e+00 6.0176448e-05 
-9.7377837e-02 0.0000000e+00 6.7340967e-05 
-1.0933087e-01 0.0000000e+00 7.4505479e-05 
-1.2180743e-01 0.0000000e+00 8.1669998e-05 
-1.3469429e-01 0.0000000e+00 8.8834509e-05 
-1.4787827e-01 0.0000000e+00 9.5999028e-05 
-1.6124614e-01 0.0000000e+00 1.0316354e-04 
-1.7676960e-01 0.0000000e+00 1.3756509e-04 
-1.9682510e-01 0.0000000e+00 1.7196663e-04 
-2.2190657e-01 0.0000000e+00 2.0636819e-04 
-2.5250793e-01 0.0000000e+00 2.4076973e-04 
-2.8912303e-01 0.0000000e+00 2.7517127e-04 
-3.3224583e-01 0.0000000e+00 3.0957285e-04 
-3.8237023e-01 0.0000000e+00 3.4397439e-04 
-4.3999010e-01 0.0000000e+00 3.7837593e-04 
-5.0559944e-01 0.0000000e+00 4.1277747e-04 
-5.7969207e-01 0.0000000e+00 4.4717902e-04 
-6.6276193e-01 0.0000000e+00 4.8158059e-04 
-7.5530291e-01 0.0000000e+00 5.1598210e-04 
-8.4785974e-01 0.0000000e+00 4.8165591e-04 
-9.3097329e-01 0.0000000e+00 4.4732969e-04 
-1.0051320e+00 0.0000000e+00 4.1300349e-04 
-1.0708243e+00 0.0000000e+00 3.7867727e-04 
-1.1285385e+00 0.0000000e+00 3.4435105e-04 
-1.1787630e+00 0.0000000e+00 3.1002486e-04 
-1.2219863e+00 0.0000000e+00 2.7569864e-04 
-1.2586967e+00 0.0000000e+00 2.4137241e-04 
-1.2893826e+00 0.0000000e+00 2.0704621e-04 
-1.3145323e+00 0.0000000e+00 1.7271999e-04 
-1.3346343e+00 0.0000000e+00 1.3839378e-04 
-1.3501769e+00 0.0000000e+00 1.0406756e-04 
-1.3635474e+00 0.0000000e+00 9.7204509e-05 
-1.3767452e+00 0.0000000e+00 9.0341455e-05 
-1.3896770e+00 0.0000000e+00 8.3478393e-05 
-1.4022498e+00 0.0000000e+00 7.6615339e-05 
-1.4143702e+00 0.0000000e+00 6.9752285e-05 
-1.4259450e+00 0.0000000e+00 6.2889230e-05 
-1.4368813e+00 0.0000000e+00 5.6026176e-05 
-1.4470855e+00 0.0000000e+00 4.9163122e-05 
-1.4564645e+00 0.0000000e+00 4.2300067e-05 
-1.4649253e+00 0.0000000e+00 3.5437010e-05 
-1.4723746e+00 0.0000000e+00 2.8573955e-05 
-1.4787191e+00 0.0000000e+00 2.1710901e-05 
-1.0762810e-02 0.0000000e+00 1.0098841e-03 
-3.7853990e-02 0.0000000e+00 7.0262556e-03 
-1.6133903e-01 0.0000000e+00 1.9487096e-02 
-7.5530207e-01 0.0000000e+00 -2.6600611e-01 
-1.3500880e+00 0.0000000e+00 1.9451469e-02 
-1.4787334e+00 0.0000000e+00 9.2676487e-03 
-1.0767284e-02 0.0000000e+00 1.3368389e-03 
-3.7832815e-02 0.0000000e+00 1.0762374e-02 
-1.6143192e-01 0.0000000e+00 2.5849422e-02 
-7.5530124e-01 0.0000000e+00 -4.6012855e-01 
-1.3499990e+00 0.0000000e+00 2.5705058e-02 
-1.4787476e+00 0.0000000e+00 1.4439565e-02 
-1.0771758e-02 0.0000000e+00 1.1306589e-03 
-3.7811644e-02 0.0000000e+00 1.1824960e-02 
-1.6152482e-01 0.0000000e+00 2.2038382e-02 
-7.5530040e-01 0.0000000e+00 -5.8903831e-01 
-1.3499100e+00 0.0000000e+00 2.1736721e-02 
-1.4787619e+00 0.0000000e+00 1.6255146e-02 
-1.0776232e-02 0.0000000e+00 5.4113788e-04 
-3.7790474e-02 0.0000000e+00 1.0813429e-02 
-1.6161771e-01 0.0000000e+00 1.0902214e-02 
-7.5529957e-01 0.0000000e+00 -6.5992254e-01 
-1.3498210e+00 0.0000000e+00 1.0418340e-02 
-1.4787761e+00 0.0000000e+00 1.5432075e-02 
-1.0780706e-02 0.0000000e+00 -2.8192980e-04 
-3.7769303e-02 0.0000000e+00 8.3271954e-03 
-1.6171059e-01 0.0000000e+00 -4.7108447e-03 
-7.5529867e-01 0.0000000e+00 -6.7996812e-01 
-1.3497320e+00 0.0000000e+00 -5.3781979e-03 
-1.4787904e+00 0.0000000e+00 1.2688037e-02 
-1.0785180e-02 0.0000000e+00 -1.1887499e-03 
-3.7748132e-02 0.0000000e+00 4.9656760e-03 
-1.6180348e-01 0.0000000e+00 -2.1952555e-02 
-7.5529784e-01 0.0000000e+00 -6.5636212e-01 
-1.3496430e+00 0.0000000e+00 -2.2781009e-02 
-1.4788047e+00 0.0000000e+00 8.7407194e-03 
-1.0789654e-02 0.0000000e+00 -2.0295284e-03 
-3.7726961e-02 0.0000000e+00 1.3282859e-03 
-1.6189638e-01 0.0000000e+00 -3.7974678e-02 
-7.5529701e-01 0.0000000e+00 -5.9629154e-01 
-1.3495541e+00 0.0000000e+00 -3.8918208e-02 
-1.4788189e+00 0.0000000e+00 4.3078060e-03 
-1.0794128e-02 0.0000000e+00 -2.6544712e-03 
-3.7705787e-02 0.0000000e+00 -1.9855599e-03 
-1.6198927e-01 0.0000000e+00 -4.9928978e-02 
-7.5529617e-01 0.0000000e+00 -5.0694346e-01 
-1.3494650e+00 0.0000000e+00 -5.0917912e-02 
-1.4788332e+00 0.0000000e+00 1.0698246e-04 
-1.0798602e-02 0.0000000e+00 -2.9137838e-03 
-3.7684616e-02 0.0000000e+00 -4.3764459e-03 
-1.6208217e-01 0.0000000e+00 -5.4967213e-02 
-7.5529534e-01 0.0000000e+00 -3.9550483e-01 
-1.3493761e+00 0.0000000e+00 -5.5908233e-02 
-1.4788475e+00 0.0000000e+00 -3.1440663e-03 
-1.0803076e-02 0.0000000e+00 -2.6576722e-03 
-3.7663445e-02 0.0000000e+00 -5.2449564e-03 
-1.6217506e-01 0.0000000e+00 -5.0241150e-02 
-7.5529450e-01 0.0000000e+00 -2.6916271e-01 
-1.3492872e+00 0.0000000e+00 -5.1017292e-02 
-1.4788617e+00 0.0000000e+00 -4.7276551e-03 
-1.0807551e-02 0.0000000e+00 -1.7363423e-03 
-3.7642274e-02 0.0000000e+00 -3.9916760e-03 
-1.6226795e-01 0.0000000e+00 -3.2902546e-02 
-7.5529361e-01 0.0000000e+00 -1.3510408e-01 
-1.3491981e+00 0.0000000e+00 -3.3373196e-02 
-1.4788760e+00 0.0000000e+00 -3.9260983e-03 
0.0000000e+00 0.0000000e+00 0.0000000e+00 
-8.0373819e-04 0.0000000e+00 -1.7902171e-15 
-1.6115574e-03 0.0000000e+00 -3.5804341e-15 
-2.4275386e-03 0.0000000e+00 -5.3706488e-15 
-3.2557629e-03 0.0000000e+00 -7.1608614e-15 
-4.1003111e-03 0.0000000e+00 -8.9510740e-15 
-4.9652644e-03 0.0000000e+00 -1.0741293e-14 
-5.8547035e-03 0.0000000e+00 -1.2531512e-14 
-6.7727095e-03 0.0000000e+00 -1.4321733e-14 
-7.7233636e-03 0.0000000e+00 -1.6111947e-14 
-8.7107467e-03 0.0000000e+00 -1.7902173e-14 
-9.7389398e-03 0.0000000e+00 -1.9692401e-14 
-1.0812025e-02 0.0000000e+00 -2.1482627e-14 
-1.2049808e-02 0.0000000e+00 -1.4324464e-06 
-1.3552605e-02 0.0000000e+00 -2.8648928e-06 
-1.5295255e-02 0.0000000e+00 -4.2973393e-06 
-1.7252600e-02 0.0000000e+00 -5.7297857e-06 
-1.9399477e-02 0.0000000e+00 -7.1622321e-06 
-2.1710727e-02 0.0000000e+00 -8.5946785e-06 
-2.4161190e-02 0.0000000e+00 -1.0027125e-05 
-2.6725708e-02 0.0000000e+00 -1.1459571e-05 
-2.9379116e-02 0.0000000e+00 -1.2892018e-05 
-3.2096259e-02 0.0000000e+00 -1.4324464e-05 
-3.4851976e-02 0.0000000e+00 -1.5756910e-05 
-3.7621103e-02 0.0000000e+00 -1.7189357e-05 
-4.0816624e-02 0.0000000e+00 -2.4353873e-05 
-4.4943761e-02 0.0000000e+00 -3.1518390e-05 
-5.0115734e-02 0.0000000e+00 -3.8682905e-05 
-5.6445748e-02 0.0000000e+00 -4.5847421e-05 
-6.4047016e-02 0.0000000e+00 -5.3011932e-05 
-7.3032752e-02 0.0000000e+00 -6.0176448e-05 
-8.3516173e-02 0.0000000e+00 -6.7340967e-05 
-9.5610477e-02 0.0000000e+00 -7.4505479e-05 
-1.0942888e-01 0.0000000e+00 -8.1669998e-05 
-1.2508461e-01 0.0000000e+00 -8.8834509e-05 
-1.4269085e-01 0.0000000e+00 -9.5999028e-05 
-1.6236085e-01 0.0000000e+00 -1.0316354e-04 
-1.8639521e-01 0.0000000e+00 -1.3756509e-04 
-2.1668988e-01 0.0000000e+00 -1.7196663e-04 
-2.5275093e-01 0.0000000e+00 -2.0636819e-04 
-2.9408446e-01 0.0000000e+00 -2.4076973e-04 
-3.4019658e-01 0.0000000e+00 -2.7517127e-04 
-3.9059332e-01 0.0000000e+00 -3.0957285e-04 
-4.4478083e-01 0.0000000e+00 -3.4397439e-04 
-5.0226516e-01 0.0000000e+00 -3.7837593e-04 
-5.6255245e-01 0.0000000e+00 -4.1277747e-04 
-6.2514877e-01 0.0000000e+00 -4.4717902e-04 
-6.8956017e-01 0.0000000e+00 -4.8158059e-04 
-7.5529277e-01 0.0000000e+00 -5.1598210e-04 
-8.2102144e-01 0.0000000e+00 -4.8165591e-04 
-8.8542455e-01 0.0000000e+00 -4.4732969e-04 
-9.4801384e-01 0.0000000e+00 -4.1300349e-04 
-1.0083009e+00 0.0000000e+00 -3.7867727e-04 
-1.0657973e+00 0.0000000e+00 -3.4435105e-04 
-1.1200147e+00 0.0000000e+00 -3.1002486e-04 
-1.1704645e+00 0.0000000e+00 -2.7569864e-04 
-1.2166586e+00 0.0000000e+00 -2.4137241e-04 
-1.2581085e+00 0.0000000e+00 -2.0704621e-04 
-1.2943258e+00 0.0000000e+00 -1.7271999e-04 
-1.3248222e+00 0.0000000e+00 -1.3839378e-04 
-1.3491092e+00 0.0000000e+00 -1.0406756e-04 
-1.3691074e+00 0.0000000e+00 -9.7204509e-05 
-1.3871253e+00 0.0000000e+00 -9.0341455e-05 
-1.4032561e+00 0.0000000e+00 -8.3478393e-05 
-1.4175929e+00 0.0000000e+00 -7.6615339e-05 
-1.4302291e+00 0.0000000e+00 -6.9752285e-05 
-1.4412576e+00 0.0000000e+00 -6.2889230e-05 
-1.4507718e+00 0.0000000e+00 -5.6026176e-05 
-1.4588650e+00 0.0000000e+00 -4.9163122e-05 
-1.4656302e+00 0.0000000e+00 -4.2300067e-05 
-1.4711607e+00 0.0000000e+00 -3.5437010e-05 
-1.4755496e+00 0.0000000e+00 -2.8573955e-05 
-1.4788902e+00 0.0000000e+00 -2.1710901e-05 
ADJOINT_ROTATION 3 212  float
0.0000000e+00 -3.9778883e-03 0.0000000e+00 
0.0000000e+00 -3.9697262e-03 0.0000000e+00 
0.0000000e+00 -3.9452398e-03 0.0000000e+00 
0.0000000e+00 -3.9044300e-03 0.0000000e+00 
0.0000000e+00 -3.8472961e-03 0.0000000e+00 
0.0000000e+00 -3.7738380e-03 0.0000000e+00 
0.0000000e+00 -3.6840560e-03 0.0000000e+00 
0.0000000e+00 -3.5779502e-03 0.0000000e+00 
0.0000000e+00 -3.4555201e-03 0.0000000e+00 
0.0000000e+00 -3.3167661e-03 0.0000000e+00 
0.0000000e+00 -3.1616881e-03 0.0000000e+00 
0.0000000e+00 -2.9902861e-03 0.0000000e+00 
0.0000000e+00 -2.8025601e-03 0.0000000e+00 
0.0000000e+00 -3.4897157e-03 0.0000000e+00 
0.0000000e+00 -4.2775115e-03 0.0000000e+00 
0.0000000e+00 -5.1659481e-03 0.0000000e+00 
0.0000000e+00 -6.1550247e-03 0.0000000e+00 
0.0000000e+00 -7.2447415e-03 0.0000000e+00 
0.0000000e+00 -8.4350994e-03 0.0000000e+00 
0.0000000e+00 -9.7260969e-03 0.0000000e+00 
0.0000000e+00 -1.1117735e-02 0.0000000e+00 
0.0000000e+00 -1.2610014e-02 0.0000000e+00 
0.0000000e+00 -1.4202932e-02 0.0000000e+00 
0.0000000e+00 -1.5896492e-02 0.0000000e+00 
0.0000000e+00 -1.7690690e-02 0.0000000e+00 
0.0000000e+00 -2.3181152e-02 0.0000000e+00 
0.0000000e+00 -2.8218763e-02 0.0000000e+00 
0.0000000e+00 -3.2803528e-02 0.0000000e+00 
0.0000000e+00 -3.6935445e-02 0.0000000e+00 
0.0000000e+00 -4.0614519e-02 0.0000000e+00 
0.0000000e+00 -4.3840740e-02 0.0000000e+00 
0.0000000e+00 -4.6614118e-02 0.0000000e+00 
0.0000000e+00 -4.8934646e-02 0.0000000e+00 
0.0000000e+00 -5.0802331e-02 0.0000000e+00 
0.0000000e+00 -5.2217167e-02 0.0000000e+00 
0.0000000e+00 -5.3179152e-02 0.0000000e+00 
0.0000000e+00 -5.3688295e-02 0.0000000e+00 
0.0000000e+00 -7.0828676e-02 0.0000000e+00 
0.0000000e+00 -8.9944690e-02 0.0000000e+00 
0.0000000e+00 -1.1103634e-01 0.0000000e+00 
0.0000000e+00 -1.3410363e-01 0.0000000e+00 
0.0000000e+00 -1.5914655e-01 0.0000000e+00 
0.0000000e+00 -1.8616511e-01 0.0000000e+00 
0.0000000e+00 -2.1515931e-01 0.0000000e+00 
0.0000000e+00 -2.4612914e-01 0.0000000e+00 
0.0000000e+00 -2.7907461e-01 0.0000000e+00 
0.0000000e+00 -3.1399572e-01 0.0000000e+00 
0.0000000e+00 -3.5089245e-01 0.0000000e+00 
0.0000000e+00 -3.8976485e-01 0.0000000e+00 
0.0000000e+00 -3.5101515e-01 0.0000000e+00 
0.0000000e+00 -3.1421900e-01 0.0000000e+00 
0.0000000e+00 -2.7937642e-01 0.0000000e+00 
0.0000000e+00 -2.4648739e-01 0.0000000e+00 
0.0000000e+00 -2.1555191e-01 0.0000000e+00 
0.0000000e+00 -1.8657000e-01 0.0000000e+00 
0.0000000e+00 -1.5954165e-01 0.0000000e+00 
0.0000000e+00 -1.3446684e-01 0.0000000e+00 
0.0000000e+00 -1.1134560e-01 0.0000000e+00 
0.0000000e+00 -9.0177916e-02 0.0000000e+00 
0.0000000e+00 -7.0963778e-02 0.0000000e+00 
0.0000000e+00 -5.3703204e-02 0.0000000e+00 
0.0000000e+00 -5.3198703e-02 0.0000000e+00 
0.0000000e+00 -5.2321400e-02 0.0000000e+00 
0.0000000e+00 -5.1071297e-02 0.0000000e+00 
0.0000000e+00 -4.9448393e-02 0.0000000e+00 
0.0000000e+00 -4.7452692e-02 0.0000000e+00 
0.0000000e+00 -4.5084186e-02 0.0000000e+00 
0.0000000e+00 -4.2342883e-02 0.0000000e+00 
0.0000000e+00 -3.9228778e-02 0.0000000e+00 
0.0000000e+00 -3.5741873e-02 0.0000000e+00 
0.0000000e+00 -3.1882167e-02 0.0000000e+00 
0.0000000e+00 -2.7649662e-02 0.0000000e+00 
0.0000000e+00 -2.3044355e-02 0.0000000e+00 
0.0000000e+00 -1.2869076e-03 0.0000000e+00 
0.0000000e+00 -1.0545379e-02 0.0000000e+00 
0.0000000e+00 -2.4796845e-02 0.0000000e+00 
0.0000000e+00 4.5824885e-01 0.0000000e+00 
0.0000000e+00 -2.4643695e-02 0.0000000e+00 
0.0000000e+00 -1.4178626e-02 0.0000000e+00 
0.0000000e+00 -7.0843373e-05 0.0000000e+00 
0.0000000e+00 -4.5988993e-03 0.0000000e+00 
0.0000000e+00 -1.6018740e-03 0.0000000e+00 
0.0000000e+00 3.2063657e-01 0.0000000e+00 
0.0000000e+00 -1.3279567e-03 0.0000000e+00 
0.0000000e+00 -6.7482679e-03 0.0000000e+00 
0.0000000e+00 8.4563252e-04 0.0000000e+00 
0.0000000e+00 1.4875067e-04 0.0000000e+00 
0.0000000e+00 1.5896622e-02 0.0000000e+00 
0.0000000e+00 1.9739832e-01 0.0000000e+00 
0.0000000e+00 1.6244013e-02 0.0000000e+00 
0.0000000e+00 -7.5328053e-04 0.0000000e+00 
0.0000000e+00 1.4625200e-03 0.0000000e+00 
0.0000000e+00 3.6975695e-03 0.0000000e+00 
0.0000000e+00 2.7698640e-02 0.0000000e+00 
0.0000000e+00 8.8534102e-02 0.0000000e+00 
0.0000000e+00 2.8072214e-02 0.0000000e+00 
0.0000000e+00 3.8063366e-03 0.0000000e+00 
0.0000000e+00 1.7798193e-03 0.0000000e+00 
0.0000000e+00 6.0475576e-03 0.0000000e+00 
0.0000000e+00 3.3804182e-02 0.0000000e+00 
0.0000000e+00 -5.9560775e-03 0.0000000e+00 
0.0000000e+00 3.4156643e-02 0.0000000e+00 
0.0000000e+00 6.9305832e-03 0.0000000e+00 
0.0000000e+00 1.7975301e-03 0.0000000e+00 
0.0000000e+00 7.1987147e-03 0.0000000e+00 
0.0000000e+00 3.4213249e-02 0.0000000e+00 
0.0000000e+00 -8.6072221e-02 0.0000000e+00 
0.0000000e+00 3.4497306e-02 0.0000000e+00 
0.0000000e+00 8.6194593e-03 0.0000000e+00 
0.0000000e+00 1.5156525e-03 0.0000000e+00 
0.0000000e+00 7.1510412e-03 0.0000000e+00 
0.0000000e+00 2.8925836e-02 0.0000000e+00 
0.0000000e+00 -1.5181433e-01 0.0000000e+00 
0.0000000e+00 2.9094197e-02 0.0000000e+00 
0.0000000e+00 8.8729654e-03 0.0000000e+00 
0.0000000e+00 9.3418668e-04 0.0000000e+00 
0.0000000e+00 5.9045367e-03 0.0000000e+00 
0.0000000e+00 1.7941948e-02 0.0000000e+00 
0.0000000e+00 -2.0318240e-01 0.0000000e+00 
0.0000000e+00 1.7947320e-02 0.0000000e+00 
0.0000000e+00 7.6911007e-03 0.0000000e+00 
0.0000000e+00 5.3132531e-05 0.0000000e+00 
0.0000000e+00 3.4592014e-03 0.0000000e+00 
0.0000000e+00 1.2615842e-03 0.0000000e+00 
0.0000000e+00 -2.4017644e-01 0.0000000e+00 
0.0000000e+00 1.0566736e-03 0.0000000e+00 
0.0000000e+00 5.0738659e-03 0.0000000e+00 
0.0000000e+00 -1.1275100e-03 0.0000000e+00 
0.0000000e+00 -1.8496471e-04 0.0000000e+00 
0.0000000e+00 -2.1115256e-02 0.0000000e+00 
0.0000000e+00 -2.6279643e-01 0.0000000e+00 
0.0000000e+00 -2.1577742e-02 0.0000000e+00 
0.0000000e+00 1.0212603e-03 0.0000000e+00 
0.0000000e+00 -2.6077409e-03 0.0000000e+00 
0.0000000e+00 -5.0279619e-03 0.0000000e+00 
0.0000000e+00 -4.9188573e-02 0.0000000e+00 
0.0000000e+00 -2.7104241e-01 0.0000000e+00 
0.0000000e+00 -4.9955927e-02 0.0000000e+00 
0.0000000e+00 -4.4667157e-03 0.0000000e+00 
0.0000000e+00 -3.2122321e-03 0.0000000e+00 
0.0000000e+00 -3.2203943e-03 0.0000000e+00 
0.0000000e+00 -3.2448801e-03 0.0000000e+00 
0.0000000e+00 -3.2856902e-03 0.0000000e+00 
0.0000000e+00 -3.3428241e-03 0.0000000e+00 
0.0000000e+00 -3.4162821e-03 0.0000000e+00 
0.0000000e+00 -3.5060642e-03 0.0000000e+00 
0.0000000e+00 -3.6121700e-03 0.0000000e+00 
0.0000000e+00 -3.7346000e-03 0.0000000e+00 
0.0000000e+00 -3.8733541e-03 0.0000000e+00 
0.0000000e+00 -4.0284321e-03 0.0000000e+00 
0.0000000e+00 -4.1998341e-03 0.0000000e+00 
0.0000000e+00 -4.3875598e-03 0.0000000e+00 
0.0000000e+00 -5.4979348e-03 0.0000000e+00 
0.0000000e+00 -6.5076686e-03 0.0000000e+00 
0.0000000e+00 -7.4167624e-03 0.0000000e+00 
0.0000000e+00 -8.2252156e-03 0.0000000e+00 
0.0000000e+00 -8.9330291e-03 0.0000000e+00 
0.0000000e+00 -9.5402012e-03 0.0000000e+00 
0.0000000e+00 -1.0046734e-02 0.0000000e+00 
0.0000000e+00 -1.0452625e-02 0.0000000e+00 
0.0000000e+00 -1.0757877e-02 0.0000000e+00 
0.0000000e+00 -1.0962488e-02 0.0000000e+00 
0.0000000e+00 -1.1066459e-02 0.0000000e+00 
0.0000000e+00 -1.1069790e-02 0.0000000e+00 
0.0000000e+00 -1.4569845e-02 0.0000000e+00 
0.0000000e+00 -1.8522747e-02 0.0000000e+00 
0.0000000e+00 -2.2928497e-02 0.0000000e+00 
0.0000000e+00 -2.7787095e-02 0.0000000e+00 
0.0000000e+00 -3.3098537e-02 0.0000000e+00 
0.0000000e+00 -3.8862828e-02 0.0000000e+00 
0.0000000e+00 -4.5079969e-02 0.0000000e+00 
0.0000000e+00 -5.1749952e-02 0.0000000e+00 
0.0000000e+00 -5.8872785e-02 0.0000000e+00 
0.0000000e+00 -6.6448465e-02 0.0000000e+00 
0.0000000e+00 -7.4476995e-02 0.0000000e+00 
0.0000000e+00 -8.2958370e-02 0.0000000e+00 
0.0000000e+00 -1.0898736e-01 0.0000000e+00 
0.0000000e+00 -1.3304073e-01 0.0000000e+00 
0.0000000e+00 -1.5511845e-01 0.0000000e+00 
0.0000000e+00 -1.7522053e-01 0.0000000e+00 
0.0000000e+00 -1.9334698e-01 0.0000000e+00 
0.0000000e+00 -2.0949779e-01 0.0000000e+00 
0.0000000e+00 -2.2367297e-01 0.0000000e+00 
0.0000000e+00 -2.3587252e-01 0.0000000e+00 
0.0000000e+00 -2.4609643e-01 0.0000000e+00 
0.0000000e+00 -2.5434470e-01 0.0000000e+00 
0.0000000e+00 -2.6061732e-01 0.0000000e+00 
0.0000000e+00 -2.6491433e-01 0.0000000e+00 
0.0000000e+00 -2.6058918e-01 0.0000000e+00 
0.0000000e+00 -2.5431049e-01 0.0000000e+00 
0.0000000e+00 -2.4607822e-01 0.0000000e+00 
0.0000000e+00 -2.3589242e-01 0.0000000e+00 
0.0000000e+00 -2.2375304e-01 0.0000000e+00 
0.0000000e+00 -2.0966011e-01 0.0000000e+00 
0.0000000e+00 -1.9361363e-01 0.0000000e+00 
0.0000000e+00 -1.7561360e-01 0.0000000e+00 
0.0000000e+00 -1.5566000e-01 0.0000000e+00 
0.0000000e+00 -1.3375285e-01 0.0000000e+00 
0.0000000e+00 -1.0989214e-01 0.0000000e+00 
0.0000000e+00 -8.4077880e-02 0.0000000e+00 
0.0000000e+00 -7.5970165e-02 0.0000000e+00 
0.0000000e+00 -6.8235241e-02 0.0000000e+00 