# vtk DataFile Version 4.0
vtk output
ASCII
DATASET UNSTRUCTURED_GRID
POINTS 21 float
0.0000000e+00 0.0000000e+00 0.0000000e+00 
1.0000000e-01 0.0000000e+00 0.0000000e+00 
2.0000000e-01 0.0000000e+00 0.0000000e+00 
3.0000001e-01 0.0000000e+00 0.0000000e+00 
4.0000001e-01 0.0000000e+00 0.0000000e+00 
5.0000000e-01 0.0000000e+00 0.0000000e+00 
6.0000002e-01 0.0000000e+00 0.0000000e+00 
6.9999999e-01 0.0000000e+00 0.0000000e+00 
8.0000001e-01 0.0000000e+00 0.0000000e+00 
8.9999998e-01 0.0000000e+00 0.0000000e+00 
1.0000000e+00 0.0000000e+00 0.0000000e+00 
1.1000000e+00 0.0000000e+00 0.0000000e+00 
1.2000000e+00 0.0000000e+00 0.0000000e+00 
1.3000000e+00 0.0000000e+00 0.0000000e+00 
1.4000000e+00 0.0000000e+00 0.0000000e+00 
1.5000000e+00 0.0000000e+00 0.0000000e+00 
1.6000000e+00 0.0000000e+00 0.0000000e+00 
1.7000000e+00 0.0000000e+00 0.0000000e+00 
1.8000000e+00 0.0000000e+00 0.0000000e+00 
1.9000000e+00 0.0000000e+00 0.0000000e+00 
2.0000000e+00 0.0000000e+00 0.0000000e+00 

CELLS 20 60
2 0 1
2 1 2
2 2 3
2 3 4
2 4 5
2 5 6
2 6 7
2 7 8
2 8 9
2 9 10
2 10 11
2 11 12
2 12 13
2 13 14
2 14 15
2 15 16
2 16 17
2 17 18
2 18 19
2 19 20

CELL_TYPES 20
3
3
3
3
3
3
3
3
3
3
3
3
3
3
3
3
3
3
3
3
POINT_DATA 21
FIELD FieldData 6
DISPLACEMENT 3 21  float
0.0000000e+00 0.0000000e+00 0.0000000e+00 
0.0000000e+00 -1.4325396e-05 0.0000000e+00 
0.0000000e+00 -5.1428571e-05 0.0000000e+00 
0.0000000e+00 -1.0321428e-04 0.0000000e+00 
0.0000000e+00 -1.6253968e-04 0.0000000e+00 
0.0000000e+00 -2.2321429e-04 0.0000000e+00 
0.0000000e+00 -2.8000001e-04 0.0000000e+00 
0.0000000e+00 -3.2861112e-04 0.0000000e+00 
0.0000000e+00 -3.6571428e-04 0.0000000e+00 
0.0000000e+00 -3.8892857e-04 0.0000000e+00 
0.0000000e+00 -3.9682540e-04 0.0000000e+00 
0.0000000e+00 -3.8892857e-04 0.0000000e+00 
0.0000000e+00 -3.6571428e-04 0.0000000e+00 
0.0000000e+00 -3.2861112e-04 0.0000000e+00 
0.0000000e+00 -2.8000001e-04 0.0000000e+00 
0.0000000e+00 -2.2321429e-04 0.0000000e+00 
0.0000000e+00 -1.6253968e-04 0.0000000e+00 
0.0000000e+00 -1.0321428e-04 0.0000000e+00 
0.0000000e+00 -5.1428571e-05 0.0000000e+00 
0.0000000e+00 -1.4325396e-05 0.0000000e+00 
0.0000000e+00 0.0000000e+00 0.0000000e+00 
REACTION 3 21  float
-4.8233013e+00 1.0000000e+04 0.0000000e+00 
-3.3508144e+01 -7.7225817e-03 0.0000000e+00 
-3.8599472e+01 -1.0908373e-02 0.0000000e+00 
-2.5273151e+01 -8.9595988e-03 0.0000000e+00 
-5.3980479e+00 -8.9128345e-04 0.0000000e+00 
1.2983626e+01 5.7680011e-03 0.0000000e+00 
2.5109665e+01 8.8989325e-03 0.0000000e+00 
2.8951193e+01 8.1345020e-03 0.0000000e+00 
2.4666006e+01 4.7583869e-03 0.0000000e+00 
1.4051900e+01 1.2075575e-03 0.0000000e+00 
-4.4294568e-11 2.1529407e-03 0.0000000e+00 
-1.4051899e+01 -2.9903732e-04 0.0000000e+00 
-2.4666006e+01 6.2649818e-03 0.0000000e+00 
-2.8951193e+01 8.1342226e-03 0.0000000e+00 
-2.5109665e+01 8.8986522e-03 0.0000000e+00 
-1.2983626e+01 5.7677212e-03 0.0000000e+00 
5.3980479e+00 -1.4810516e-03 0.0000000e+00 
2.5273151e+01 -8.3701108e-03 0.0000000e+00 
3.8599472e+01 -1.0908093e-02 0.0000000e+00 
3.3508144e+01 -7.7223019e-03 0.0000000e+00 
4.8233013e+00 1.0000000e+04 0.0000000e+00 
ROTATION 3 21  float
0.0000000e+00 0.0000000e+00 0.0000000e+00 
0.0000000e+00 0.0000000e+00 -2.7142858e-04 
0.0000000e+00 0.0000000e+00 -4.5714286e-04 
0.0000000e+00 0.0000000e+00 -5.6666665e-04 
0.0000000e+00 0.0000000e+00 -6.0952379e-04 
0.0000000e+00 0.0000000e+00 -5.9523812e-04 
0.0000000e+00 0.0000000e+00 -5.3333334e-04 
0.0000000e+00 0.0000000e+00 -4.3333333e-04 
0.0000000e+00 0.0000000e+00 -3.0476190e-04 
0.0000000e+00 0.0000000e+00 -1.5714286e-04 
0.0000000e+00 0.0000000e+00 1.1974147e-16 
0.0000000e+00 0.0000000e+00 1.5714286e-04 
0.0000000e+00 0.0000000e+00 3.0476190e-04 
0.0000000e+00 0.0000000e+00 4.3333333e-04 
0.0000000e+00 0.0000000e+00 5.3333334e-04 
0.0000000e+00 0.0000000e+00 5.9523812e-04 
0.0000000e+00 0.0000000e+00 6.0952379e-04 
0.0000000e+00 0.0000000e+00 5.6666665e-04 
0.0000000e+00 0.0000000e+00 4.5714286e-04 
0.0000000e+00 0.0000000e+00 2.7142858e-04 
0.0000000e+00 0.0000000e+00 0.0000000e+00 
REACTION_MOMENT 3 21  float
0.0000000e+00 0.0000000e+00 3.3250000e+03 
0.0000000e+00 0.0000000e+00 -1.2300638e-03 
0.0000000e+00 0.0000000e+00 -4.0817331e-03 
0.0000000e+00 0.0000000e+00 -7.3589440e-03 
0.0000000e+00 0.0000000e+00 -9.1240536e-03 
0.0000000e+00 0.0000000e+00 -8.5681388e-03 
0.0000000e+00 0.0000000e+00 -6.3057216e-03 
0.0000000e+00 0.0000000e+00 -3.5579177e-03 
0.0000000e+00 0.0000000e+00 -1.4257936e-03 
0.0000000e+00 0.0000000e+00 -3.7791335e-04 
0.0000000e+00 0.0000000e+00 2.8434215e-08 
0.0000000e+00 0.0000000e+00 3.0263941e-04 
0.0000000e+00 0.0000000e+00 1.3505199e-03 
0.0000000e+00 0.0000000e+00 3.5579600e-03 
0.0000000e+00 0.0000000e+00 6.3057356e-03 
0.0000000e+00 0.0000000e+00 8.5681248e-03 
0.0000000e+00 0.0000000e+00 9.0945372e-03 
0.0000000e+00 0.0000000e+00 7.3294118e-03 
0.0000000e+00 0.0000000e+00 4.0816911e-03 
0.0000000e+00 0.0000000e+00 1.2300499e-03 
0.0000000e+00 0.0000000e+00 -3.3250000e+03 
FORCE 3 21  float
6.1842141e+00 -9.4999990e+03 0.0000000e+00 
2.3834713e+01 -8.9999883e+03 0.0000000e+00 
6.1150021e+01 -7.9999585e+03 0.0000000e+00 
9.3437508e+01 -6.9999248e+03 0.0000000e+00 
1.0849969e+02 -5.9999072e+03 0.0000000e+00 
1.0405650e+02 -4.9999131e+03 0.0000000e+00 
8.4192009e+01 -3.9999363e+03 0.0000000e+00 
5.6347706e+01 -2.9999644e+03 0.0000000e+00 
2.8862526e+01 -1.9999860e+03 0.0000000e+00 
9.0595284e+00 -9.9999640e+02 0.0000000e+00 
1.8792140e+00 -2.7977643e-07 0.0000000e+00 
9.0595284e+00 9.9999713e+02 0.0000000e+00 
2.8862526e+01 1.9999867e+03 0.0000000e+00 
5.6347706e+01 2.9999644e+03 0.0000000e+00 
8.4192009e+01 3.9999363e+03 0.0000000e+00 
1.0405650e+02 4.9999131e+03 0.0000000e+00 
1.0849969e+02 5.9999072e+03 0.0000000e+00 
9.3437508e+01 6.9999253e+03 0.0000000e+00 
6.1150021e+01 7.9999585e+03 0.0000000e+00 
2.3834713e+01 8.9999883e+03 0.0000000e+00 
6.1842141e+00 9.4999990e+03 0.0000000e+00 
MOMENT 3 21  float
0.0000000e+00 0.0000000e+00 2.9522036e+03 
0.0000000e+00 0.0000000e+00 2.3946206e+03 
0.0000000e+00 0.0000000e+00 1.5446206e+03 
0.0000000e+00 0.0000000e+00 7.9462061e+02 
0.0000000e+00 0.0000000e+00 1.4462080e+02 
0.0000000e+00 0.0000000e+00 -4.0537903e+02 
0.0000000e+00 0.0000000e+00 -8.5537891e+02 
0.0000000e+00 0.0000000e+00 -1.2053789e+03 
0.0000000e+00 0.0000000e+00 -1.4553790e+03 
0.0000000e+00 0.0000000e+00 -1.6053792e+03 
0.0000000e+00 0.0000000e+00 -1.6553792e+03 
0.0000000e+00 0.0000000e+00 -1.6053792e+03 
0.0000000e+00 0.0000000e+00 -1.4553790e+03 
0.0000000e+00 0.0000000e+00 -1.2053789e+03 
0.0000000e+00 0.0000000e+00 -8.5537891e+02 
0.0000000e+00 0.0000000e+00 -4.0537903e+02 
0.0000000e+00 0.0000000e+00 1.4462080e+02 
0.0000000e+00 0.0000000e+00 7.9462061e+02 
0.0000000e+00 0.0000000e+00 1.5446206e+03 
0.0000000e+00 0.0000000e+00 2.3946206e+03 
0.0000000e+00 0.0000000e+00 2.9522036e+03 
CELL_DATA 20
FIELD FieldData 2
FORCE 3 20  float
6.1842141e+00 -9.4999990e+03 0.0000000e+00 
4.1485210e+01 -8.4999766e+03 0.0000000e+00 
8.0814827e+01 -7.4999399e+03 0.0000000e+00 
1.0606019e+02 -6.4999102e+03 0.0000000e+00 
1.1093919e+02 -5.4999043e+03 0.0000000e+00 
9.7173820e+01 -4.4999219e+03 0.0000000e+00 
7.1210205e+01 -3.4999507e+03 0.0000000e+00 
4.1485210e+01 -2.4999778e+03 0.0000000e+00 
1.6239843e+01 -1.4999940e+03 0.0000000e+00 
1.8792140e+00 -4.9999878e+02 0.0000000e+00 
1.8792140e+00 4.9999878e+02 0.0000000e+00 
1.6239843e+01 1.4999955e+03 0.0000000e+00 
4.1485210e+01 2.4999778e+03 0.0000000e+00 
7.1210205e+01 3.4999507e+03 0.0000000e+00 
9.7173820e+01 4.4999219e+03 0.0000000e+00 
1.1093919e+02 5.4999043e+03 0.0000000e+00 
1.0606019e+02 6.4999106e+03 0.0000000e+00 
8.0814827e+01 7.4999399e+03 0.0000000e+00 
4.1485210e+01 8.4999766e+03 0.0000000e+00 
6.1842141e+00 9.4999990e+03 0.0000000e+00 
MOMENT 3 20  float
0.0000000e+00 0.0000000e+00 2.8500000e+03 
0.0000000e+00 0.0000000e+00 1.9499999e+03 
0.0000000e+00 0.0000000e+00 1.1499999e+03 
0.0000000e+00 0.0000000e+00 4.4999997e+02 
0.0000000e+00 0.0000000e+00 -1.4999998e+02 
0.0000000e+00 0.0000000e+00 -6.4999994e+02 
0.0000000e+00 0.0000000e+00 -1.0499999e+03 
0.0000000e+00 0.0000000e+00 -1.3500000e+03 
0.0000000e+00 0.0000000e+00 -1.5500000e+03 
0.0000000e+00 0.0000000e+00 -1.6500000e+03 
0.0000000e+00 0.0000000e+00 -1.6500000e+03 
0.0000000e+00 0.0000000e+00 -1.5500000e+03 
0.0000000e+00 0.0000000e+00 -1.3500000e+03 
0.0000000e+00 0.0000000e+00 -1.0499999e+03 
0.0000000e+00 0.0000000e+00 -6.4999994e+02 
0.0000000e+00 0.0000000e+00 -1.4999998e+02 
0.0000000e+00 0.0000000e+00 4.4999997e+02 
0.0000000e+00 0.0000000e+00 1.1499999e+03 
0.0000000e+00 0.0000000e+00 1.9499999e+03 
0.0000000e+00 0.0000000e+00 2.8500000e+03 
