# vtk DataFile Version 4.0
vtk output
ASCII
DATASET UNSTRUCTURED_GRID
POINTS 30 float
0.0000000e+00 0.0000000e+00 0.0000000e+00 
0.0000000e+00 0.0000000e+00 8.0000001e-01 
0.0000000e+00 0.0000000e+00 1.6000000e+00 
0.0000000e+00 0.0000000e+00 2.4000001e+00 
0.0000000e+00 0.0000000e+00 3.2000000e+00 
0.0000000e+00 0.0000000e+00 4.0000000e+00 
0.0000000e+00 0.0000000e+00 4.8000002e+00 
0.0000000e+00 0.0000000e+00 5.5999999e+00 
0.0000000e+00 0.0000000e+00 6.4000001e+00 
0.0000000e+00 0.0000000e+00 7.1999998e+00 
0.0000000e+00 0.0000000e+00 8.0000000e+00 
1.0000000e+01 0.0000000e+00 0.0000000e+00 
1.0000000e+01 0.0000000e+00 8.0000001e-01 
1.0000000e+01 0.0000000e+00 1.6000000e+00 
1.0000000e+01 0.0000000e+00 2.4000001e+00 
1.0000000e+01 0.0000000e+00 3.2000000e+00 
1.0000000e+01 0.0000000e+00 4.0000000e+00 
1.0000000e+01 0.0000000e+00 4.8000002e+00 
1.0000000e+01 0.0000000e+00 5.5999999e+00 
1.0000000e+01 0.0000000e+00 6.4000001e+00 
1.0000000e+01 0.0000000e+00 7.1999998e+00 
1.0000000e+01 0.0000000e+00 8.0000000e+00 
2.0000000e+00 0.0000000e+00 4.0000000e+00 
4.0000000e+00 0.0000000e+00 4.0000000e+00 
6.0000000e+00 0.0000000e+00 4.0000000e+00 
8.0000000e+00 0.0000000e+00 4.0000000e+00 
2.0000000e+00 0.0000000e+00 8.0000000e+00 
4.0000000e+00 0.0000000e+00 8.0000000e+00 
6.0000000e+00 0.0000000e+00 8.0000000e+00 
8.0000000e+00 0.0000000e+00 8.0000000e+00 

CELLS 30 90
2 0 1
2 1 2
2 2 3
2 3 4
2 4 5
2 5 6
2 6 7
2 7 8
2 8 9
2 9 10
2 11 12
2 12 13
2 13 14
2 14 15
2 15 16
2 16 17
2 17 18
2 18 19
2 19 20
2 20 21
2 5 22
2 22 23
2 23 24
2 24 25
2 25 16
2 10 26
2 26 27
2 27 28
2 28 29
2 29 21

CELL_TYPES 30
3
3
3
3
3
3
3
3
3
3
3
3
3
3
3
3
3
3
3
3
3
3
3
3
3
3
3
3
3
3
POINT_DATA 30
FIELD FieldData 3
ADJOINT_DISPLACEMENT 3 30  float
0.0000000e+00 0.0000000e+00 0.0000000e+00 
-2.8698856e-01 0.0000000e+00 -6.3956619e-17 
-5.7950366e-01 0.0000000e+00 -1.2791324e-16 
-8.8307196e-01 0.0000000e+00 -1.9186986e-16 
-1.2032200e+00 0.0000000e+00 -2.5582648e-16 
-1.5454745e+00 0.0000000e+00 -3.1978310e-16 
-1.8653797e+00 0.0000000e+00 -1.6358282e-04 
-2.1190660e+00 0.0000000e+00 -3.2716565e-04 
-2.3129392e+00 0.0000000e+00 -4.9074850e-04 
-2.4534049e+00 0.0000000e+00 -6.5433129e-04 
-2.5468688e+00 0.0000000e+00 -8.1791414e-04 
0.0000000e+00 0.0000000e+00 0.0000000e+00 
-3.3125275e-01 0.0000000e+00 1.8360359e-16 
-6.5697891e-01 0.0000000e+00 3.6804622e-16 
-9.7165191e-01 0.0000000e+00 5.5813055e-16 
-1.2697451e+00 0.0000000e+00 7.4249124e-16 
-1.5457320e+00 0.0000000e+00 9.2391622e-16 
-1.8004460e+00 0.0000000e+00 1.6358282e-04 
-2.0341349e+00 0.0000000e+00 3.2716565e-04 
-2.2403924e+00 0.0000000e+00 4.9074850e-04 
-2.4128134e+00 0.0000000e+00 6.5433129e-04 
-2.5449922e+00 0.0000000e+00 8.1791414e-04 
-1.5455260e+00 0.0000000e+00 -8.1699693e-01 
-1.5455775e+00 0.0000000e+00 -1.1164402e+00 
-1.5456290e+00 0.0000000e+00 -1.0073850e+00 
-1.5456805e+00 0.0000000e+00 -5.9888649e-01 
-2.5464935e+00 0.0000000e+00 7.0740402e-02 
-2.5461180e+00 0.0000000e+00 -2.3720788e-03 
-2.5457428e+00 0.0000000e+00 -1.1110013e-01 
-2.5453675e+00 0.0000000e+00 -1.4638855e-01 
ADJOINT_ROTATION 3 30  float
0.0000000e+00 -3.5758430e-01 0.0000000e+00 
0.0000000e+00 -3.6103842e-01 0.0000000e+00 
0.0000000e+00 -3.7140077e-01 0.0000000e+00 
0.0000000e+00 -3.8867137e-01 0.0000000e+00 
0.0000000e+00 -4.1285020e-01 0.0000000e+00 
0.0000000e+00 -4.4393724e-01 0.0000000e+00 
0.0000000e+00 -3.5716018e-01 0.0000000e+00 
0.0000000e+00 -2.7839020e-01 0.0000000e+00 
0.0000000e+00 -2.0762730e-01 0.0000000e+00 
0.0000000e+00 -1.4487147e-01 0.0000000e+00 
0.0000000e+00 -9.0122722e-02 0.0000000e+00 
0.0000000e+00 -4.1521731e-01 0.0000000e+00 
0.0000000e+00 -4.1176319e-01 0.0000000e+00 
0.0000000e+00 -4.0140083e-01 0.0000000e+00 
0.0000000e+00 -3.8413027e-01 0.0000000e+00 
0.0000000e+00 -3.5995144e-01 0.0000000e+00 
0.0000000e+00 -3.2886440e-01 0.0000000e+00 
0.0000000e+00 -3.0658624e-01 0.0000000e+00 
0.0000000e+00 -2.7630100e-01 0.0000000e+00 
0.0000000e+00 -2.3800868e-01 0.0000000e+00 
0.0000000e+00 -1.9170929e-01 0.0000000e+00 
0.0000000e+00 -1.3740282e-01 0.0000000e+00 
0.0000000e+00 2.7002209e-01 0.0000000e+00 
0.0000000e+00 3.8509071e-02 0.0000000e+00 
0.0000000e+00 -1.3847636e-01 0.0000000e+00 
0.0000000e+00 -2.6093417e-01 0.0000000e+00 
0.0000000e+00 9.4764763e-03 0.0000000e+00 
0.0000000e+00 5.4548066e-02 0.0000000e+00 
0.0000000e+00 4.5092050e-02 0.0000000e+00 
0.0000000e+00 -1.8891577e-02 0.0000000e+00 
SHAPE_SENSITIVITY 3 30  float
0.0000000e+00 0.0000000e+00 0.0000000e+00 
0.0000000e+00 0.0000000e+00 0.0000000e+00 
0.0000000e+00 0.0000000e+00 0.0000000e+00 
0.0000000e+00 0.0000000e+00 0.0000000e+00 
0.0000000e+00 0.0000000e+00 0.0000000e+00 
0.0000000e+00 0.0000000e+00 0.0000000e+00 
0.0000000e+00 0.0000000e+00 0.0000000e+00 
0.0000000e+00 0.0000000e+00 0.0000000e+00 
0.0000000e+00 0.0000000e+00 0.0000000e+00 
0.0000000e+00 0.0000000e+00 0.0000000e+00 
0.0000000e+00 0.0000000e+00 0.0000000e+00 
0.0000000e+00 0.0000000e+00 0.0000000e+00 
0.0000000e+00 0.0000000e+00 0.0000000e+00 
0.0000000e+00 0.0000000e+00 0.0000000e+00 
0.0000000e+00 0.0000000e+00 0.0000000e+00 
0.0000000e+00 0.0000000e+00 0.0000000e+00 
0.0000000e+00 0.0000000e+00 0.0000000e+00 
0.0000000e+00 0.0000000e+00 0.0000000e+00 
0.0000000e+00 0.0000000e+00 0.0000000e+00 
0.0000000e+00 0.0000000e+00 0.0000000e+00 
0.0000000e+00 0.0000000e+00 0.0000000e+00 
0.0000000e+00 0.0000000e+00 0.0000000e+00 
0.0000000e+00 0.0000000e+00 0.0000000e+00 
0.0000000e+00 0.0000000e+00 0.0000000e+00 
0.0000000e+00 0.0000000e+00 0.0000000e+00 
0.0000000e+00 0.0000000e+00 0.0000000e+00 
0.0000000e+00 0.0000000e+00 0.0000000e+00 
0.0000000e+00 0.0000000e+00 0.0000000e+00 
0.0000000e+00 0.0000000e+00 0.0000000e+00 
0.0000000e+00 0.0000000e+00 0.0000000e+00 
CELL_DATA 30
FIELD FieldData 1
I22_SENSITIVITY 1 30  float
-9.7318688e+04
-3.9254081e+05
-8.2820516e+04
1.2123628e+06
4.0615665e+06
5.3136165e+06
2.2066260e+06
-1.3860110e+06
-4.4155645e+06
-6.6323545e+06
-4.0441121e+04
-2.8308606e+05
-5.7057306e+05
-8.1375438e+05
-1.9046452e+06
9.1759706e+05
1.6974325e+05
-1.3131059e+06
-3.1350215e+06
-4.4759455e+06
5.2530120e+07
9.4317980e+06
-7.0445820e+06
-8.3727355e+06
-8.0587235e+06
-1.1381881e+07
-2.0646921e+06
-4.8595934e+05
-3.7293325e+06
-9.1454960e+06
