# vtk DataFile Version 4.0
vtk output
ASCII
DATASET UNSTRUCTURED_GRID
POINTS 212 float
0.0000000e+00 0.0000000e+00 0.0000000e+00 
0.0000000e+00 0.0000000e+00 2.5000000e-01 
0.0000000e+00 0.0000000e+00 5.0000000e-01 
0.0000000e+00 0.0000000e+00 7.5000000e-01 
0.0000000e+00 0.0000000e+00 1.0000000e+00 
0.0000000e+00 0.0000000e+00 1.2500000e+00 
0.0000000e+00 0.0000000e+00 1.5000000e+00 
0.0000000e+00 0.0000000e+00 1.7500000e+00 
0.0000000e+00 0.0000000e+00 2.0000000e+00 
0.0000000e+00 0.0000000e+00 2.2500000e+00 
0.0000000e+00 0.0000000e+00 2.5000000e+00 
0.0000000e+00 0.0000000e+00 2.7500000e+00 
0.0000000e+00 0.0000000e+00 3.0000000e+00 
0.0000000e+00 0.0000000e+00 3.2500000e+00 
0.0000000e+00 0.0000000e+00 3.5000000e+00 
0.0000000e+00 0.0000000e+00 3.7500000e+00 
0.0000000e+00 0.0000000e+00 4.0000000e+00 
0.0000000e+00 0.0000000e+00 4.2500000e+00 
0.0000000e+00 0.0000000e+00 4.5000000e+00 
0.0000000e+00 0.0000000e+00 4.7500000e+00 
0.0000000e+00 0.0000000e+00 5.0000000e+00 
0.0000000e+00 0.0000000e+00 5.2500000e+00 
0.0000000e+00 0.0000000e+00 5.5000000e+00 
0.0000000e+00 0.0000000e+00 5.7500000e+00 
0.0000000e+00 0.0000000e+00 6.0000000e+00 
0.0000000e+00 0.0000000e+00 6.2500000e+00 
0.0000000e+00 0.0000000e+00 6.5000000e+00 
0.0000000e+00 0.0000000e+00 6.7500000e+00 
0.0000000e+00 0.0000000e+00 7.0000000e+00 
0.0000000e+00 0.0000000e+00 7.2500000e+00 
0.0000000e+00 0.0000000e+00 7.5000000e+00 
0.0000000e+00 0.0000000e+00 7.7500000e+00 
0.0000000e+00 0.0000000e+00 8.0000000e+00 
0.0000000e+00 0.0000000e+00 8.2500000e+00 
0.0000000e+00 0.0000000e+00 8.5000000e+00 
0.0000000e+00 0.0000000e+00 8.7500000e+00 
0.0000000e+00 0.0000000e+00 9.0000000e+00 
0.0000000e+00 0.0000000e+00 9.2500000e+00 
0.0000000e+00 0.0000000e+00 9.5000000e+00 
0.0000000e+00 0.0000000e+00 9.7500000e+00 
0.0000000e+00 0.0000000e+00 1.0000000e+01 
0.0000000e+00 0.0000000e+00 1.0250000e+01 
0.0000000e+00 0.0000000e+00 1.0500000e+01 
0.0000000e+00 0.0000000e+00 1.0750000e+01 
0.0000000e+00 0.0000000e+00 1.1000000e+01 
0.0000000e+00 0.0000000e+00 1.1250000e+01 
0.0000000e+00 0.0000000e+00 1.1500000e+01 
0.0000000e+00 0.0000000e+00 1.1750000e+01 
0.0000000e+00 0.0000000e+00 1.2000000e+01 
0.0000000e+00 0.0000000e+00 1.2250000e+01 
0.0000000e+00 0.0000000e+00 1.2500000e+01 
0.0000000e+00 0.0000000e+00 1.2750000e+01 
0.0000000e+00 0.0000000e+00 1.3000000e+01 
0.0000000e+00 0.0000000e+00 1.3250000e+01 
0.0000000e+00 0.0000000e+00 1.3500000e+01 
0.0000000e+00 0.0000000e+00 1.3750000e+01 
0.0000000e+00 0.0000000e+00 1.4000000e+01 
0.0000000e+00 0.0000000e+00 1.4250000e+01 
0.0000000e+00 0.0000000e+00 1.4500000e+01 
0.0000000e+00 0.0000000e+00 1.4750000e+01 
0.0000000e+00 0.0000000e+00 1.5000000e+01 
0.0000000e+00 0.0000000e+00 1.5250000e+01 
0.0000000e+00 0.0000000e+00 1.5500000e+01 
0.0000000e+00 0.0000000e+00 1.5750000e+01 
0.0000000e+00 0.0000000e+00 1.6000000e+01 
0.0000000e+00 0.0000000e+00 1.6250000e+01 
0.0000000e+00 0.0000000e+00 1.6500000e+01 
0.0000000e+00 0.0000000e+00 1.6750000e+01 
0.0000000e+00 0.0000000e+00 1.7000000e+01 
0.0000000e+00 0.0000000e+00 1.7250000e+01 
0.0000000e+00 0.0000000e+00 1.7500000e+01 
0.0000000e+00 0.0000000e+00 1.7750000e+01 
0.0000000e+00 0.0000000e+00 1.8000000e+01 
5.0000000e-01 0.0000000e+00 3.0000000e+00 
5.0000000e-01 0.0000000e+00 6.0000000e+00 
5.0000000e-01 0.0000000e+00 9.0000000e+00 
5.0000000e-01 0.0000000e+00 1.2000000e+01 
5.0000000e-01 0.0000000e+00 1.5000000e+01 
5.0000000e-01 0.0000000e+00 1.8000000e+01 
1.0000000e+00 0.0000000e+00 3.0000000e+00 
1.0000000e+00 0.0000000e+00 6.0000000e+00 
1.0000000e+00 0.0000000e+00 9.0000000e+00 
1.0000000e+00 0.0000000e+00 1.2000000e+01 
1.0000000e+00 0.0000000e+00 1.5000000e+01 
1.0000000e+00 0.0000000e+00 1.8000000e+01 
1.5000000e+00 0.0000000e+00 3.0000000e+00 
1.5000000e+00 0.0000000e+00 6.0000000e+00 
1.5000000e+00 0.0000000e+00 9.0000000e+00 
1.5000000e+00 0.0000000e+00 1.2000000e+01 
1.5000000e+00 0.0000000e+00 1.5000000e+01 
1.5000000e+00 0.0000000e+00 1.8000000e+01 
2.0000000e+00 0.0000000e+00 3.0000000e+00 
2.0000000e+00 0.0000000e+00 6.0000000e+00 
2.0000000e+00 0.0000000e+00 9.0000000e+00 
2.0000000e+00 0.0000000e+00 1.2000000e+01 
2.0000000e+00 0.0000000e+00 1.5000000e+01 
2.0000000e+00 0.0000000e+00 1.8000000e+01 
2.5000000e+00 0.0000000e+00 3.0000000e+00 
2.5000000e+00 0.0000000e+00 6.0000000e+00 
2.5000000e+00 0.0000000e+00 9.0000000e+00 
2.5000000e+00 0.0000000e+00 1.2000000e+01 
2.5000000e+00 0.0000000e+00 1.5000000e+01 
2.5000000e+00 0.0000000e+00 1.8000000e+01 
3.0000000e+00 0.0000000e+00 3.0000000e+00 
3.0000000e+00 0.0000000e+00 6.0000000e+00 
3.0000000e+00 0.0000000e+00 9.0000000e+00 
3.0000000e+00 0.0000000e+00 1.2000000e+01 
3.0000000e+00 0.0000000e+00 1.5000000e+01 
3.0000000e+00 0.0000000e+00 1.8000000e+01 
3.5000000e+00 0.0000000e+00 3.0000000e+00 
3.5000000e+00 0.0000000e+00 6.0000000e+00 
3.5000000e+00 0.0000000e+00 9.0000000e+00 
3.5000000e+00 0.0000000e+00 1.2000000e+01 
3.5000000e+00 0.0000000e+00 1.5000000e+01 
3.5000000e+00 0.0000000e+00 1.8000000e+01 
4.0000000e+00 0.0000000e+00 3.0000000e+00 
4.0000000e+00 0.0000000e+00 6.0000000e+00 
4.0000000e+00 0.0000000e+00 9.0000000e+00 
4.0000000e+00 0.0000000e+00 1.2000000e+01 
4.0000000e+00 0.0000000e+00 1.5000000e+01 
4.0000000e+00 0.0000000e+00 1.8000000e+01 
4.5000000e+00 0.0000000e+00 3.0000000e+00 
4.5000000e+00 0.0000000e+00 6.0000000e+00 
4.5000000e+00 0.0000000e+00 9.0000000e+00 
4.5000000e+00 0.0000000e+00 1.2000000e+01 
4.5000000e+00 0.0000000e+00 1.5000000e+01 
4.5000000e+00 0.0000000e+00 1.8000000e+01 
5.0000000e+00 0.0000000e+00 3.0000000e+00 
5.0000000e+00 0.0000000e+00 6.0000000e+00 
5.0000000e+00 0.0000000e+00 9.0000000e+00 
5.0000000e+00 0.0000000e+00 1.2000000e+01 
5.0000000e+00 0.0000000e+00 1.5000000e+01 
5.0000000e+00 0.0000000e+00 1.8000000e+01 
5.5000000e+00 0.0000000e+00 3.0000000e+00 
5.5000000e+00 0.0000000e+00 6.0000000e+00 
5.5000000e+00 0.0000000e+00 9.0000000e+00 
5.5000000e+00 0.0000000e+00 1.2000000e+01 
5.5000000e+00 0.0000000e+00 1.5000000e+01 
5.5000000e+00 0.0000000e+00 1.8000000e+01 
6.0000000e+00 0.0000000e+00 0.0000000e+00 
6.0000000e+00 0.0000000e+00 2.5000000e-01 
6.0000000e+00 0.0000000e+00 5.0000000e-01 
6.0000000e+00 0.0000000e+00 7.5000000e-01 
6.0000000e+00 0.0000000e+00 1.0000000e+00 
6.0000000e+00 0.0000000e+00 1.2500000e+00 
6.0000000e+00 0.0000000e+00 1.5000000e+00 
6.0000000e+00 0.0000000e+00 1.7500000e+00 
6.0000000e+00 0.0000000e+00 2.0000000e+00 
6.0000000e+00 0.0000000e+00 2.2500000e+00 
6.0000000e+00 0.0000000e+00 2.5000000e+00 
6.0000000e+00 0.0000000e+00 2.7500000e+00 
6.0000000e+00 0.0000000e+00 3.0000000e+00 
6.0000000e+00 0.0000000e+00 3.2500000e+00 
6.0000000e+00 0.0000000e+00 3.5000000e+00 
6.0000000e+00 0.0000000e+00 3.7500000e+00 
6.0000000e+00 0.0000000e+00 4.0000000e+00 
6.0000000e+00 0.0000000e+00 4.2500000e+00 
6.0000000e+00 0.0000000e+00 4.5000000e+00 
6.0000000e+00 0.0000000e+00 4.7500000e+00 
6.0000000e+00 0.0000000e+00 5.0000000e+00 
6.0000000e+00 0.0000000e+00 5.2500000e+00 
6.0000000e+00 0.0000000e+00 5.5000000e+00 
6.0000000e+00 0.0000000e+00 5.7500000e+00 
6.0000000e+00 0.0000000e+00 6.0000000e+00 
6.0000000e+00 0.0000000e+00 6.2500000e+00 
6.0000000e+00 0.0000000e+00 6.5000000e+00 
6.0000000e+00 0.0000000e+00 6.7500000e+00 
6.0000000e+00 0.0000000e+00 7.0000000e+00 
6.0000000e+00 0.0000000e+00 7.2500000e+00 
6.0000000e+00 0.0000000e+00 7.5000000e+00 
6.0000000e+00 0.0000000e+00 7.7500000e+00 
6.0000000e+00 0.0000000e+00 8.0000000e+00 
6.0000000e+00 0.0000000e+00 8.2500000e+00 
6.0000000e+00 0.0000000e+00 8.5000000e+00 
6.0000000e+00 0.0000000e+00 8.7500000e+00 
6.0000000e+00 0.0000000e+00 9.0000000e+00 
6.0000000e+00 0.0000000e+00 9.2500000e+00 
6.0000000e+00 0.0000000e+00 9.5000000e+00 
6.0000000e+00 0.0000000e+00 9.7500000e+00 
6.0000000e+00 0.0000000e+00 1.0000000e+01 
6.0000000e+00 0.0000000e+00 1.0250000e+01 
6.0000000e+00 0.0000000e+00 1.0500000e+01 
6.0000000e+00 0.0000000e+00 1.0750000e+01 
6.0000000e+00 0.0000000e+00 1.1000000e+01 
6.0000000e+00 0.0000000e+00 1.1250000e+01 
6.0000000e+00 0.0000000e+00 1.1500000e+01 
6.0000000e+00 0.0000000e+00 1.1750000e+01 
6.0000000e+00 0.0000000e+00 1.2000000e+01 
6.0000000e+00 0.0000000e+00 1.2250000e+01 
6.0000000e+00 0.0000000e+00 1.2500000e+01 
6.0000000e+00 0.0000000e+00 1.2750000e+01 
6.0000000e+00 0.0000000e+00 1.3000000e+01 
6.0000000e+00 0.0000000e+00 1.3250000e+01 
6.0000000e+00 0.0000000e+00 1.3500000e+01 
6.0000000e+00 0.0000000e+00 1.3750000e+01 
6.0000000e+00 0.0000000e+00 1.4000000e+01 
6.0000000e+00 0.0000000e+00 1.4250000e+01 
6.0000000e+00 0.0000000e+00 1.4500000e+01 
6.0000000e+00 0.0000000e+00 1.4750000e+01 
6.0000000e+00 0.0000000e+00 1.5000000e+01 
6.0000000e+00 0.0000000e+00 1.5250000e+01 
6.0000000e+00 0.0000000e+00 1.5500000e+01 
6.0000000e+00 0.0000000e+00 1.5750000e+01 
6.0000000e+00 0.0000000e+00 1.6000000e+01 
6.0000000e+00 0.0000000e+00 1.6250000e+01 
6.0000000e+00 0.0000000e+00 1.6500000e+01 
6.0000000e+00 0.0000000e+00 1.6750000e+01 
6.0000000e+00 0.0000000e+00 1.7000000e+01 
6.0000000e+00 0.0000000e+00 1.7250000e+01 
6.0000000e+00 0.0000000e+00 1.7500000e+01 
6.0000000e+00 0.0000000e+00 1.7750000e+01 
6.0000000e+00 0.0000000e+00 1.8000000e+01 

CELLS 216 648
2 0 1
2 1 2
2 2 3
2 3 4
2 4 5
2 5 6
2 6 7
2 7 8
2 8 9
2 9 10
2 10 11
2 11 12
2 12 13
2 13 14
2 14 15
2 15 16
2 16 17
2 17 18
2 18 19
2 19 20
2 20 21
2 21 22
2 22 23
2 23 24
2 24 25
2 25 26
2 26 27
2 27 28
2 28 29
2 29 30
2 30 31
2 31 32
2 32 33
2 33 34
2 34 35
2 35 36
2 36 37
2 37 38
2 38 39
2 39 40
2 40 41
2 41 42
2 42 43
2 43 44
2 44 45
2 45 46
2 46 47
2 47 48
2 48 49
2 49 50
2 50 51
2 51 52
2 52 53
2 53 54
2 54 55
2 55 56
2 56 57
2 57 58
2 58 59
2 59 60
2 60 61
2 61 62
2 62 63
2 63 64
2 64 65
2 65 66
2 66 67
2 67 68
2 68 69
2 69 70
2 70 71
2 71 72
2 139 140
2 140 141
2 141 142
2 142 143
2 143 144
2 144 145
2 145 146
2 146 147
2 147 148
2 148 149
2 149 150
2 150 151
2 151 152
2 152 153
2 153 154
2 154 155
2 155 156
2 156 157
2 157 158
2 158 159
2 159 160
2 160 161
2 161 162
2 162 163
2 163 164
2 164 165
2 165 166
2 166 167
2 167 168
2 168 169
2 169 170
2 170 171
2 171 172
2 172 173
2 173 174
2 174 175
2 175 176
2 176 177
2 177 178
2 178 179
2 179 180
2 180 181
2 181 182
2 182 183
2 183 184
2 184 185
2 185 186
2 186 187
2 187 188
2 188 189
2 189 190
2 190 191
2 191 192
2 192 193
2 193 194
2 194 195
2 195 196
2 196 197
2 197 198
2 198 199
2 199 200
2 200 201
2 201 202
2 202 203
2 203 204
2 204 205
2 205 206
2 206 207
2 207 208
2 208 209
2 209 210
2 210 211
2 12 73
2 73 79
2 79 85
2 85 91
2 91 97
2 97 103
2 103 109
2 109 115
2 115 121
2 121 127
2 127 133
2 133 151
2 24 74
2 74 80
2 80 86
2 86 92
2 92 98
2 98 104
2 104 110
2 110 116
2 116 122
2 122 128
2 128 134
2 134 163
2 36 75
2 75 81
2 81 87
2 87 93
2 93 99
2 99 105
2 105 111
2 111 117
2 117 123
2 123 129
2 129 135
2 135 175
2 48 76
2 76 82
2 82 88
2 88 94
2 94 100
2 100 106
2 106 112
2 112 118
2 118 124
2 124 130
2 130 136
2 136 187
2 60 77
2 77 83
2 83 89
2 89 95
2 95 101
2 101 107
2 107 113
2 113 119
2 119 125
2 125 131
2 131 137
2 137 199
2 72 78
2 78 84
2 84 90
2 90 96
2 96 102
2 102 108
2 108 114
2 114 120
2 120 126
2 126 132
2 132 138
2 138 211

CELL_TYPES 216
3
3
3
3
3
3
3
3
3
3
3
3
3
3
3
3
3
3
3
3
3
3
3
3
3
3
3
3
3
3
3
3
3
3
3
3
3
3
3
3
3
3
3
3
3
3
3
3
3
3
3
3
3
3
3
3
3
3
3
3
3
3
3
3
3
3
3
3
3
3
3
3
3
3
3
3
3
3
3
3
3
3
3
3
3
3
3
3
3
3
3
3
3
3
3
3
3
3
3
3
3
3
3
3
3
3
3
3
3
3
3
3
3
3
3
3
3
3
3
3
3
3
3
3
3
3
3
3
3
3
3
3
3
3
3
3
3
3
3
3
3
3
3
3
3
3
3
3
3
3
3
3
3
3
3
3
3
3
3
3
3
3
3
3
3
3
3
3
3
3
3
3
3
3
3
3
3
3
3
3
3
3
3
3
3
3
3
3
3
3
3
3
3
3
3
3
3
3
3
3
3
3
3
3
3
3
3
3
3
3
3
3
3
3
3
3
POINT_DATA 212
FIELD FieldData 3
ADJOINT_DISPLACEMENT 3 212  float
0.0000000e+00 0.0000000e+00 0.0000000e+00 
-6.3167163e-04 0.0000000e+00 4.3542472e-16 
-1.2851104e-03 0.0000000e+00 8.7084945e-16 
-1.9820833e-03 0.0000000e+00 1.3062742e-15 
-2.7443576e-03 0.0000000e+00 1.7416989e-15 
-3.5937000e-03 0.0000000e+00 2.1771235e-15 
-4.5518782e-03 0.0000000e+00 2.6125484e-15 
-5.6406590e-03 0.0000000e+00 3.0479731e-15 
-6.8818093e-03 0.0000000e+00 3.4833978e-15 
-8.2970960e-03 0.0000000e+00 3.9188225e-15 
-9.9082869e-03 0.0000000e+00 4.3542470e-15 
-1.1737149e-02 0.0000000e+00 4.7896719e-15 
-1.3805449e-02 0.0000000e+00 5.2250968e-15 
-1.6294815e-02 0.0000000e+00 2.3528726e-06 
-1.9282164e-02 0.0000000e+00 4.7057451e-06 
-2.2632198e-02 0.0000000e+00 7.0586179e-06 
-2.6209621e-02 0.0000000e+00 9.4114903e-06 
-2.9879130e-02 0.0000000e+00 1.1764363e-05 
-3.3505429e-02 0.0000000e+00 1.4117235e-05 
-3.6953222e-02 0.0000000e+00 1.6470109e-05 
-4.0087204e-02 0.0000000e+00 1.8822981e-05 
-4.2772084e-02 0.0000000e+00 2.1175852e-05 
-4.4872560e-02 0.0000000e+00 2.3528726e-05 
-4.6253335e-02 0.0000000e+00 2.5881598e-05 
-4.6779107e-02 0.0000000e+00 2.8234470e-05 
-4.6818659e-02 0.0000000e+00 4.0003713e-05 
-4.7233943e-02 0.0000000e+00 5.1772953e-05 
-4.8629422e-02 0.0000000e+00 6.3542197e-05 
-5.1609553e-02 0.0000000e+00 7.5311436e-05 
-5.6778803e-02 0.0000000e+00 8.7080676e-05 
-6.4741634e-02 0.0000000e+00 9.8849916e-05 
-7.6102503e-02 0.0000000e+00 1.1061916e-04 
-9.1465883e-02 0.0000000e+00 1.2238840e-04 
-1.1143623e-01 0.0000000e+00 1.3415764e-04 
-1.3661799e-01 0.0000000e+00 1.4592688e-04 
-1.6761565e-01 0.0000000e+00 1.5769612e-04 
-2.0503366e-01 0.0000000e+00 1.6946536e-04 
-2.5287595e-01 0.0000000e+00 2.2598309e-04 
-3.1474274e-01 0.0000000e+00 2.8250084e-04 
-3.9063293e-01 0.0000000e+00 3.3901856e-04 
-4.8054543e-01 0.0000000e+00 3.9553631e-04 
-5.8447915e-01 0.0000000e+00 4.5205402e-04 
-7.0243293e-01 0.0000000e+00 5.0857180e-04 
-5.8440572e-01 0.0000000e+00 5.6508952e-04 
-4.8039642e-01 0.0000000e+00 6.2160724e-04 
-3.9040393e-01 0.0000000e+00 6.7812495e-04 
-3.1442714e-01 0.0000000e+00 7.3464273e-04 
-2.5246495e-01 0.0000000e+00 7.9116045e-04 
-2.0451628e-01 0.0000000e+00 8.4767817e-04 
-1.6697875e-01 0.0000000e+00 8.5944741e-04 
-1.3585123e-01 0.0000000e+00 8.7121665e-04 
-1.1053447e-01 0.0000000e+00 8.8298589e-04 
-9.0429157e-02 0.0000000e+00 8.9475513e-04 
-7.4936025e-02 0.0000000e+00 9.0652436e-04 
-6.3455798e-02 0.0000000e+00 9.1829360e-04 
-5.5389192e-02 0.0000000e+00 9.3006284e-04 
-5.0136931e-02 0.0000000e+00 9.4183208e-04 
-4.7099736e-02 0.0000000e+00 9.5360132e-04 
-4.5678325e-02 0.0000000e+00 9.6537062e-04 
-4.5273423e-02 0.0000000e+00 9.7713980e-04 
-4.5285746e-02 0.0000000e+00 9.8890904e-04 
-4.4860642e-02 0.0000000e+00 9.9126191e-04 
-4.3618571e-02 0.0000000e+00 9.9361478e-04 
-4.1672919e-02 0.0000000e+00 9.9596765e-04 
-3.9137080e-02 0.0000000e+00 9.9832052e-04 
-3.6124442e-02 0.0000000e+00 1.0006734e-03 
-3.2748394e-02 0.0000000e+00 1.0030263e-03 
-2.9122332e-02 0.0000000e+00 1.0053791e-03 
-2.5359644e-02 0.0000000e+00 1.0077320e-03 
-2.1573719e-02 0.0000000e+00 1.0100849e-03 
-1.7877948e-02 0.0000000e+00 1.0124377e-03 
-1.4385723e-02 0.0000000e+00 1.0147907e-03 
-1.1210432e-02 0.0000000e+00 1.0171436e-03 
-1.3774187e-02 0.0000000e+00 3.6779190e-03 
-4.6926349e-02 0.0000000e+00 -1.2623968e-03 
-2.0491314e-01 0.0000000e+00 6.8426766e-02 
-2.0439722e-01 0.0000000e+00 -6.7630224e-02 
-4.5427598e-02 0.0000000e+00 2.4017256e-03 
-1.1187863e-02 0.0000000e+00 -4.1117794e-03 
-1.3742925e-02 0.0000000e+00 6.0566682e-03 
-4.7073592e-02 0.0000000e+00 -4.8423591e-03 
-2.0479260e-01 0.0000000e+00 1.1227806e-01 
-2.0427816e-01 0.0000000e+00 -1.1169283e-01 
-4.5569446e-02 0.0000000e+00 6.0508354e-03 
-1.1165293e-02 0.0000000e+00 -7.7085365e-03 
-1.3711662e-02 0.0000000e+00 7.3253848e-03 
-4.7220834e-02 0.0000000e+00 -9.9547124e-03 
-2.0467207e-01 0.0000000e+00 1.3532048e-01 
-2.0415910e-01 0.0000000e+00 -1.3493729e-01 
-4.5711298e-02 0.0000000e+00 1.1179297e-02 
-1.1142724e-02 0.0000000e+00 -9.9622644e-03 
-1.3680399e-02 0.0000000e+00 7.6732063e-03 
-4.7368076e-02 0.0000000e+00 -1.5842514e-02 
-2.0455153e-01 0.0000000e+00 1.4115117e-01 
-2.0404002e-01 0.0000000e+00 -1.4096071e-01 
-4.5853145e-02 0.0000000e+00 1.7030172e-02 
-1.1120155e-02 0.0000000e+00 -1.1062101e-02 
-1.3649138e-02 0.0000000e+00 7.2892690e-03 
-4.7515322e-02 0.0000000e+00 -2.1748826e-02 
-2.0443101e-01 0.0000000e+00 1.3336726e-01 
-2.0392096e-01 0.0000000e+00 -1.3336025e-01 
-4.5994997e-02 0.0000000e+00 2.2846516e-02 
-1.1097586e-02 0.0000000e+00 -1.1197182e-02 
-1.3617875e-02 0.0000000e+00 6.3627111e-03 
-4.7662564e-02 0.0000000e+00 -2.6916707e-02 
-2.0431048e-01 0.0000000e+00 1.1556589e-01 
-2.0380190e-01 0.0000000e+00 -1.1573305e-01 
-4.6136849e-02 0.0000000e+00 2.7871391e-02 
-1.1075016e-02 0.0000000e+00 -1.0556647e-02 
-1.3586612e-02 0.0000000e+00 5.0826692e-03 
-4.7809806e-02 0.0000000e+00 -3.0589214e-02 
-2.0418994e-01 0.0000000e+00 9.1344185e-02 
-2.0368284e-01 0.0000000e+00 -9.1676228e-02 
-4.6278697e-02 0.0000000e+00 3.1347856e-02 
-1.1052446e-02 0.0000000e+00 -9.3296301e-03 
-1.3555350e-02 0.0000000e+00 3.6382803e-03 
-4.7957048e-02 0.0000000e+00 -3.2009408e-02 
-2.0406941e-01 0.0000000e+00 6.4299293e-02 
-2.0356378e-01 0.0000000e+00 -6.4786926e-02 
-4.6420548e-02 0.0000000e+00 3.2518968e-02 
-1.1029878e-02 0.0000000e+00 -7.7052708e-03 
-1.3524088e-02 0.0000000e+00 2.2186819e-03 
-4.8104290e-02 0.0000000e+00 -3.0420346e-02 
-2.0394889e-01 0.0000000e+00 3.8028348e-02 
-2.0344472e-01 0.0000000e+00 -3.8662288e-02 
-4.6562396e-02 0.0000000e+00 3.0627789e-02 
-1.1007308e-02 0.0000000e+00 -5.8727050e-03 
-1.3492825e-02 0.0000000e+00 1.0130109e-03 
-4.8251532e-02 0.0000000e+00 -2.5065092e-02 
-2.0382835e-01 0.0000000e+00 1.6128480e-02 
-2.0332566e-01 0.0000000e+00 -1.6899442e-02 
-4.6704248e-02 0.0000000e+00 2.4917377e-02 
-1.0984739e-02 0.0000000e+00 -4.0210704e-03 
-1.3461563e-02 0.0000000e+00 2.1040451e-04 
-4.8398774e-02 0.0000000e+00 -1.5186701e-02 
-2.0370781e-01 0.0000000e+00 2.1968309e-03 
-2.0320660e-01 0.0000000e+00 -3.0955272e-03 
-4.6846099e-02 0.0000000e+00 1.4630791e-02 
-1.0962170e-02 0.0000000e+00 -2.3395044e-03 
0.0000000e+00 0.0000000e+00 0.0000000e+00 
-1.6379742e-03 0.0000000e+00 -3.8496427e-16 
-3.2541812e-03 0.0000000e+00 -7.6992886e-16 
-4.8268540e-03 0.0000000e+00 -1.1548908e-15 
-6.3342256e-03 0.0000000e+00 -1.5398578e-15 
-7.7545289e-03 0.0000000e+00 -1.9248244e-15 
-9.0659969e-03 0.0000000e+00 -2.3097921e-15 
-1.0246862e-02 0.0000000e+00 -2.6947633e-15 
-1.1275358e-02 0.0000000e+00 -3.0797364e-15 
-1.2129716e-02 0.0000000e+00 -3.4647366e-15 
-1.2788171e-02 0.0000000e+00 -3.8497088e-15 
-1.3228955e-02 0.0000000e+00 -4.2346874e-15 
-1.3430300e-02 0.0000000e+00 -4.6196711e-15 
-1.3494286e-02 0.0000000e+00 -2.3528726e-06 
-1.3627700e-02 0.0000000e+00 -4.7057451e-06 
-1.3965840e-02 0.0000000e+00 -7.0586175e-06 
-1.4644004e-02 0.0000000e+00 -9.4114903e-06 
-1.5797492e-02 0.0000000e+00 -1.1764363e-05 
-1.7561601e-02 0.0000000e+00 -1.4117235e-05 
-2.0071629e-02 0.0000000e+00 -1.6470109e-05 
-2.3462877e-02 0.0000000e+00 -1.8822981e-05 
-2.7870640e-02 0.0000000e+00 -2.1175852e-05 
-3.3430219e-02 0.0000000e+00 -2.3528726e-05 
-4.0276911e-02 0.0000000e+00 -2.5881598e-05 
-4.8546016e-02 0.0000000e+00 -2.8234470e-05 
-5.9004165e-02 0.0000000e+00 -4.0003713e-05 
-7.1924813e-02 0.0000000e+00 -5.1772953e-05 
-8.6703502e-02 0.0000000e+00 -6.3542197e-05 
-1.0273577e-01 0.0000000e+00 -7.5311436e-05 
-1.1941716e-01 0.0000000e+00 -8.7080676e-05 
-1.3614319e-01 0.0000000e+00 -9.8849916e-05 
-1.5230943e-01 0.0000000e+00 -1.1061916e-04 
-1.6731139e-01 0.0000000e+00 -1.2238840e-04 
-1.8054461e-01 0.0000000e+00 -1.3415764e-04 
-1.9140466e-01 0.0000000e+00 -1.4592688e-04 
-1.9928703e-01 0.0000000e+00 -1.5769612e-04 
-2.0358729e-01 0.0000000e+00 -1.6946536e-04 
-2.0569721e-01 0.0000000e+00 -2.2598309e-04 
-2.0741226e-01 0.0000000e+00 -2.8250084e-04 
-2.0873356e-01 0.0000000e+00 -3.3901856e-04 
-2.0966220e-01 0.0000000e+00 -3.9553631e-04 
-2.1019928e-01 0.0000000e+00 -4.5205402e-04 
-2.1034589e-01 0.0000000e+00 -5.0857180e-04 
-2.1010315e-01 0.0000000e+00 -5.6508952e-04 
-2.0947216e-01 0.0000000e+00 -6.2160724e-04 
-2.0845400e-01 0.0000000e+00 -6.7812495e-04 
-2.0704977e-01 0.0000000e+00 -7.3464273e-04 
-2.0526057e-01 0.0000000e+00 -7.9116045e-04 
-2.0308754e-01 0.0000000e+00 -8.4767817e-04 
-1.9873726e-01 0.0000000e+00 -8.5944741e-04 
-1.9081521e-01 0.0000000e+00 -8.7121665e-04 
-1.7992066e-01 0.0000000e+00 -8.8298589e-04 
-1.6665287e-01 0.0000000e+00 -8.9475513e-04 
-1.5161115e-01 0.0000000e+00 -9.0652436e-04 
-1.3539475e-01 0.0000000e+00 -9.1829360e-04 
-1.1860296e-01 0.0000000e+00 -9.3006284e-04 
-1.0183506e-01 0.0000000e+00 -9.4183208e-04 
-8.5690334e-02 0.0000000e+00 -9.5360132e-04 
-7.0768051e-02 0.0000000e+00 -9.6537062e-04 
-5.7667498e-02 0.0000000e+00 -9.7713980e-04 
-4.6987947e-02 0.0000000e+00 -9.8890904e-04 
-3.8448650e-02 0.0000000e+00 -9.9126191e-04 
-3.1293731e-02 0.0000000e+00 -9.9361478e-04 
-2.5409805e-02 0.0000000e+00 -9.9596765e-04 
-2.0683479e-02 0.0000000e+00 -9.9832052e-04 
-1.7001361e-02 0.0000000e+00 -1.0006734e-03 
-1.4250061e-02 0.0000000e+00 -1.0030263e-03 
-1.2316192e-02 0.0000000e+00 -1.0053791e-03 
-1.1086359e-02 0.0000000e+00 -1.0077320e-03 
-1.0447174e-02 0.0000000e+00 -1.0100849e-03 
-1.0285246e-02 0.0000000e+00 -1.0124377e-03 
-1.0487185e-02 0.0000000e+00 -1.0147907e-03 
-1.0939600e-02 0.0000000e+00 -1.0171436e-03 
ADJOINT_ROTATION 3 212  float
0.0000000e+00 -2.5121751e-03 0.0000000e+00 
0.0000000e+00 -2.5557093e-03 0.0000000e+00 
0.0000000e+00 -2.6863120e-03 0.0000000e+00 
0.0000000e+00 -2.9039828e-03 0.0000000e+00 
0.0000000e+00 -3.2087222e-03 0.0000000e+00 
0.0000000e+00 -3.6005299e-03 0.0000000e+00 
0.0000000e+00 -4.0794061e-03 0.0000000e+00 
0.0000000e+00 -4.6453509e-03 0.0000000e+00 
0.0000000e+00 -5.2983635e-03 0.0000000e+00 
0.0000000e+00 -6.0384450e-03 0.0000000e+00 
0.0000000e+00 -6.8655945e-03 0.0000000e+00 
0.0000000e+00 -7.7798124e-03 0.0000000e+00 
0.0000000e+00 -8.7810988e-03 0.0000000e+00 
0.0000000e+00 -1.1043630e-02 0.0000000e+00 
0.0000000e+00 -1.2764967e-02 0.0000000e+00 
0.0000000e+00 -1.3945111e-02 0.0000000e+00 
0.0000000e+00 -1.4584061e-02 0.0000000e+00 
0.0000000e+00 -1.4681818e-02 0.0000000e+00 
0.0000000e+00 -1.4238381e-02 0.0000000e+00 
0.0000000e+00 -1.3253750e-02 0.0000000e+00 
0.0000000e+00 -1.1727926e-02 0.0000000e+00 
0.0000000e+00 -9.6609090e-03 0.0000000e+00 
0.0000000e+00 -7.0526982e-03 0.0000000e+00 
0.0000000e+00 -3.9032937e-03 0.0000000e+00 
0.0000000e+00 -2.1269576e-04 0.0000000e+00 
0.0000000e+00 -5.0669711e-04 0.0000000e+00 
0.0000000e+00 -3.2185467e-03 0.0000000e+00 
0.0000000e+00 -8.3482452e-03 0.0000000e+00 
0.0000000e+00 -1.5895791e-02 0.0000000e+00 
0.0000000e+00 -2.5861185e-02 0.0000000e+00 
0.0000000e+00 -3.8244430e-02 0.0000000e+00 
0.0000000e+00 -5.3045519e-02 0.0000000e+00 
0.0000000e+00 -7.0264459e-02 0.0000000e+00 
0.0000000e+00 -8.9901246e-02 0.0000000e+00 
0.0000000e+00 -1.1195588e-01 0.0000000e+00 
0.0000000e+00 -1.3642837e-01 0.0000000e+00 
0.0000000e+00 -1.6331869e-01 0.0000000e+00 
0.0000000e+00 -2.1941890e-01 0.0000000e+00 
0.0000000e+00 -2.7551469e-01 0.0000000e+00 
0.0000000e+00 -3.3160612e-01 0.0000000e+00 
0.0000000e+00 -3.8769311e-01 0.0000000e+00 
0.0000000e+00 -4.4377571e-01 0.0000000e+00 
0.0000000e+00 -4.9985394e-01 0.0000000e+00 
0.0000000e+00 4.4407228e-01 0.0000000e+00 
0.0000000e+00 3.8800284e-01 0.0000000e+00 
0.0000000e+00 3.3193785e-01 0.0000000e+00 
0.0000000e+00 2.7587721e-01 0.0000000e+00 
0.0000000e+00 2.1982101e-01 0.0000000e+00 
0.0000000e+00 1.6376919e-01 0.0000000e+00 
0.0000000e+00 1.3693056e-01 0.0000000e+00 
0.0000000e+00 1.1248904e-01 0.0000000e+00 
0.0000000e+00 9.0444647e-02 0.0000000e+00 
0.0000000e+00 7.0797361e-02 0.0000000e+00 
0.0000000e+00 5.3547196e-02 0.0000000e+00 
0.0000000e+00 3.8694147e-02 0.0000000e+00 
0.0000000e+00 2.6238212e-02 0.0000000e+00 
0.0000000e+00 1.6179394e-02 0.0000000e+00 
0.0000000e+00 8.5176937e-03 0.0000000e+00 
0.0000000e+00 3.2531086e-03 0.0000000e+00 
0.0000000e+00 3.8563969e-04 0.0000000e+00 
0.0000000e+00 -8.4712927e-05 0.0000000e+00 
0.0000000e+00 3.4099454e-03 0.0000000e+00 
0.0000000e+00 6.4510419e-03 0.0000000e+00 
0.0000000e+00 9.0385769e-03 0.0000000e+00 
0.0000000e+00 1.1172550e-02 0.0000000e+00 
0.0000000e+00 1.2852960e-02 0.0000000e+00 
0.0000000e+00 1.4079809e-02 0.0000000e+00 
0.0000000e+00 1.4853097e-02 0.0000000e+00 
0.0000000e+00 1.5172821e-02 0.0000000e+00 
0.0000000e+00 1.5038985e-02 0.0000000e+00 
0.0000000e+00 1.4451587e-02 0.0000000e+00 
0.0000000e+00 1.3410626e-02 0.0000000e+00 
0.0000000e+00 1.1916104e-02 0.0000000e+00 
0.0000000e+00 -5.9936224e-03 0.0000000e+00 
0.0000000e+00 5.1229075e-03 0.0000000e+00 
0.0000000e+00 -1.1090955e-01 0.0000000e+00 
0.0000000e+00 1.1134146e-01 0.0000000e+00 
0.0000000e+00 -5.3142398e-03 0.0000000e+00 
0.0000000e+00 8.6626345e-03 0.0000000e+00 
0.0000000e+00 -3.5844203e-03 0.0000000e+00 
0.0000000e+00 8.9446288e-03 0.0000000e+00 
0.0000000e+00 -6.5694675e-02 0.0000000e+00 
0.0000000e+00 6.6108011e-02 0.0000000e+00 
0.0000000e+00 -9.0298858e-03 0.0000000e+00 
0.0000000e+00 5.7874392e-03 0.0000000e+00 
0.0000000e+00 -1.5534923e-03 0.0000000e+00 
0.0000000e+00 1.1252469e-02 0.0000000e+00 
0.0000000e+00 -2.7674066e-02 0.0000000e+00 
0.0000000e+00 2.8068833e-02 0.0000000e+00 
0.0000000e+00 -1.1231650e-02 0.0000000e+00 
0.0000000e+00 3.2905187e-03 0.0000000e+00 
0.0000000e+00 9.9161407e-05 0.0000000e+00 
0.0000000e+00 1.2046427e-02 0.0000000e+00 
0.0000000e+00 3.1522682e-03 0.0000000e+00 
0.0000000e+00 -2.7760738e-03 0.0000000e+00 
0.0000000e+00 -1.1919532e-02 0.0000000e+00 
0.0000000e+00 1.1718720e-03 0.0000000e+00 
0.0000000e+00 1.3735407e-03 0.0000000e+00 
0.0000000e+00 1.1326505e-02 0.0000000e+00 
0.0000000e+00 2.6784331e-02 0.0000000e+00 
0.0000000e+00 -2.6426708e-02 0.0000000e+00 
0.0000000e+00 -1.1093533e-02 0.0000000e+00 
0.0000000e+00 -5.6850008e-04 0.0000000e+00 
0.0000000e+00 2.2696459e-03 0.0000000e+00 
0.0000000e+00 9.0927007e-03 0.0000000e+00 
0.0000000e+00 4.3222122e-02 0.0000000e+00 
0.0000000e+00 -4.2883072e-02 0.0000000e+00 
0.0000000e+00 -8.7536527e-03 0.0000000e+00 
0.0000000e+00 -1.9305979e-03 0.0000000e+00 
0.0000000e+00 2.7874766e-03 0.0000000e+00 
0.0000000e+00 5.3450149e-03 0.0000000e+00 
0.0000000e+00 5.2465640e-02 0.0000000e+00 
0.0000000e+00 -5.2145164e-02 0.0000000e+00 
0.0000000e+00 -4.8998906e-03 0.0000000e+00 
0.0000000e+00 -2.9144215e-03 0.0000000e+00 
0.0000000e+00 2.9270330e-03 0.0000000e+00 
0.0000000e+00 8.3447238e-05 0.0000000e+00 
0.0000000e+00 5.4514885e-02 0.0000000e+00 
0.0000000e+00 -5.4212984e-02 0.0000000e+00 
0.0000000e+00 4.6775278e-04 0.0000000e+00 
0.0000000e+00 -3.5199707e-03 0.0000000e+00 
0.0000000e+00 2.6883152e-03 0.0000000e+00 
0.0000000e+00 -6.6920016e-03 0.0000000e+00 
0.0000000e+00 4.9369860e-02 0.0000000e+00 
0.0000000e+00 -4.9086530e-02 0.0000000e+00 
0.0000000e+00 7.3492778e-03 0.0000000e+00 
0.0000000e+00 -3.7472458e-03 0.0000000e+00 
0.0000000e+00 2.0713231e-03 0.0000000e+00 
0.0000000e+00 -1.4981332e-02 0.0000000e+00 
0.0000000e+00 3.7030563e-02 0.0000000e+00 
0.0000000e+00 -3.6765806e-02 0.0000000e+00 
0.0000000e+00 1.5744684e-02 0.0000000e+00 
0.0000000e+00 -3.5962465e-03 0.0000000e+00 
0.0000000e+00 1.0760565e-03 0.0000000e+00 
0.0000000e+00 -2.4784544e-02 0.0000000e+00 
0.0000000e+00 1.7496992e-02 0.0000000e+00 
0.0000000e+00 -1.7250810e-02 0.0000000e+00 
0.0000000e+00 2.5653971e-02 0.0000000e+00 
0.0000000e+00 -3.0669728e-03 0.0000000e+00 
0.0000000e+00 -6.5664081e-03 0.0000000e+00 
0.0000000e+00 -6.5228739e-03 0.0000000e+00 
0.0000000e+00 -6.3922713e-03 0.0000000e+00 
0.0000000e+00 -6.1746002e-03 0.0000000e+00 
0.0000000e+00 -5.8698612e-03 0.0000000e+00 
0.0000000e+00 -5.4780534e-03 0.0000000e+00 
0.0000000e+00 -4.9991771e-03 0.0000000e+00 
0.0000000e+00 -4.4332328e-03 0.0000000e+00 
0.0000000e+00 -3.7802197e-03 0.0000000e+00 
0.0000000e+00 -3.0401384e-03 0.0000000e+00 
0.0000000e+00 -2.2129887e-03 0.0000000e+00 
0.0000000e+00 -1.2987707e-03 0.0000000e+00 
0.0000000e+00 -2.9748422e-04 0.0000000e+00 
0.0000000e+00 -3.0459929e-04 0.0000000e+00 
0.0000000e+00 -8.5290789e-04 0.0000000e+00 
0.0000000e+00 -1.9424100e-03 0.0000000e+00 
0.0000000e+00 -3.5731057e-03 0.0000000e+00 
0.0000000e+00 -5.7449946e-03 0.0000000e+00 
0.0000000e+00 -8.4580770e-03 0.0000000e+00 
0.0000000e+00 -1.1712354e-02 0.0000000e+00 
0.0000000e+00 -1.5507823e-02 0.0000000e+00 
0.0000000e+00 -1.9844487e-02 0.0000000e+00 
0.0000000e+00 -2.4722343e-02 0.0000000e+00 
0.0000000e+00 -3.0141393e-02 0.0000000e+00 
0.0000000e+00 -3.6101636e-02 0.0000000e+00 
0.0000000e+00 -4.7160570e-02 0.0000000e+00 
0.0000000e+00 -5.5801656e-02 0.0000000e+00 
0.0000000e+00 -6.2024891e-02 0.0000000e+00 
0.0000000e+00 -6.5830283e-02 0.0000000e+00 
0.0000000e+00 -6.7217819e-02 0.0000000e+00 
0.0000000e+00 -6.6187516e-02 0.0000000e+00 
0.0000000e+00 -6.2739357e-02 0.0000000e+00 
0.0000000e+00 -5.6873351e-02 0.0000000e+00 
0.0000000e+00 -4.8589498e-02 0.0000000e+00 
0.0000000e+00 -3.7887797e-02 0.0000000e+00 
0.0000000e+00 -2.4768248e-02 0.0000000e+00 
0.0000000e+00 -9.2308512e-03 0.0000000e+00 
0.0000000e+00 -7.6492168e-03 0.0000000e+00 
0.0000000e+00 -6.0719815e-03 0.0000000e+00 
0.0000000e+00 -4.4991444e-03 0.0000000e+00 
0.0000000e+00 -2.9307059e-03 0.0000000e+00 
0.0000000e+00 -1.3666659e-03 0.0000000e+00 
0.0000000e+00 1.9297581e-04 0.0000000e+00 
0.0000000e+00 1.7482190e-03 0.0000000e+00 
0.0000000e+00 3.2990638e-03 0.0000000e+00 
0.0000000e+00 4.8455102e-03 0.0000000e+00 
0.0000000e+00 6.3875583e-03 0.0000000e+00 
0.0000000e+00 7.9252077e-03 0.0000000e+00 
0.0000000e+00 9.4584590e-03 0.0000000e+00 
0.0000000e+00 2.4944155e-02 0.0000000e+00 
0.0000000e+00 3.8032733e-02 0.0000000e+00 
0.0000000e+00 4.8724197e-02 0.0000000e+00 
0.0000000e+00 5.7018545e-02 0.0000000e+00 
0.0000000e+00 6.2915780e-02 0.0000000e+00 
0.0000000e+00 6.6415891e-02 0.0000000e+00 
0.0000000e+00 6.7518890e-02 0.0000000e+00 
0.0000000e+00 6.6224776e-02 0.0000000e+00 
0.0000000e+00 6.2533543e-02 0.0000000e+00 
0.0000000e+00 5.6445189e-02 0.0000000e+00 
0.0000000e+00 4.7959723e-02 0.0000000e+00 
0.0000000e+00 3.7077140e-02 0.0000000e+00 
0.0000000e+00 3.1312838e-02 0.0000000e+00 
0.0000000e+00 2.6002096e-02 0.0000000e+00 
0.0000000e+00 2.1144915e-02 0.0000000e+00 