# vtk DataFile Version 4.0
vtk output
ASCII
DATASET UNSTRUCTURED_GRID
POINTS 212 float
0.0000000e+00 0.0000000e+00 0.0000000e+00 
0.0000000e+00 0.0000000e+00 2.5000000e-01 
0.0000000e+00 0.0000000e+00 5.0000000e-01 
0.0000000e+00 0.0000000e+00 7.5000000e-01 
0.0000000e+00 0.0000000e+00 1.0000000e+00 
0.0000000e+00 0.0000000e+00 1.2500000e+00 
0.0000000e+00 0.0000000e+00 1.5000000e+00 
0.0000000e+00 0.0000000e+00 1.7500000e+00 
0.0000000e+00 0.0000000e+00 2.0000000e+00 
0.0000000e+00 0.0000000e+00 2.2500000e+00 
0.0000000e+00 0.0000000e+00 2.5000000e+00 
0.0000000e+00 0.0000000e+00 2.7500000e+00 
0.0000000e+00 0.0000000e+00 3.0000000e+00 
0.0000000e+00 0.0000000e+00 3.2500000e+00 
0.0000000e+00 0.0000000e+00 3.5000000e+00 
0.0000000e+00 0.0000000e+00 3.7500000e+00 
0.0000000e+00 0.0000000e+00 4.0000000e+00 
0.0000000e+00 0.0000000e+00 4.2500000e+00 
0.0000000e+00 0.0000000e+00 4.5000000e+00 
0.0000000e+00 0.0000000e+00 4.7500000e+00 
0.0000000e+00 0.0000000e+00 5.0000000e+00 
0.0000000e+00 0.0000000e+00 5.2500000e+00 
0.0000000e+00 0.0000000e+00 5.5000000e+00 
0.0000000e+00 0.0000000e+00 5.7500000e+00 
0.0000000e+00 0.0000000e+00 6.0000000e+00 
0.0000000e+00 0.0000000e+00 6.2500000e+00 
0.0000000e+00 0.0000000e+00 6.5000000e+00 
0.0000000e+00 0.0000000e+00 6.7500000e+00 
0.0000000e+00 0.0000000e+00 7.0000000e+00 
0.0000000e+00 0.0000000e+00 7.2500000e+00 
0.0000000e+00 0.0000000e+00 7.5000000e+00 
0.0000000e+00 0.0000000e+00 7.7500000e+00 
0.0000000e+00 0.0000000e+00 8.0000000e+00 
0.0000000e+00 0.0000000e+00 8.2500000e+00 
0.0000000e+00 0.0000000e+00 8.5000000e+00 
0.0000000e+00 0.0000000e+00 8.7500000e+00 
0.0000000e+00 0.0000000e+00 9.0000000e+00 
0.0000000e+00 0.0000000e+00 9.2500000e+00 
0.0000000e+00 0.0000000e+00 9.5000000e+00 
0.0000000e+00 0.0000000e+00 9.7500000e+00 
0.0000000e+00 0.0000000e+00 1.0000000e+01 
0.0000000e+00 0.0000000e+00 1.0250000e+01 
0.0000000e+00 0.0000000e+00 1.0500000e+01 
0.0000000e+00 0.0000000e+00 1.0750000e+01 
0.0000000e+00 0.0000000e+00 1.1000000e+01 
0.0000000e+00 0.0000000e+00 1.1250000e+01 
0.0000000e+00 0.0000000e+00 1.1500000e+01 
0.0000000e+00 0.0000000e+00 1.1750000e+01 
0.0000000e+00 0.0000000e+00 1.2000000e+01 
0.0000000e+00 0.0000000e+00 1.2250000e+01 
0.0000000e+00 0.0000000e+00 1.2500000e+01 
0.0000000e+00 0.0000000e+00 1.2750000e+01 
0.0000000e+00 0.0000000e+00 1.3000000e+01 
0.0000000e+00 0.0000000e+00 1.3250000e+01 
0.0000000e+00 0.0000000e+00 1.3500000e+01 
0.0000000e+00 0.0000000e+00 1.3750000e+01 
0.0000000e+00 0.0000000e+00 1.4000000e+01 
0.0000000e+00 0.0000000e+00 1.4250000e+01 
0.0000000e+00 0.0000000e+00 1.4500000e+01 
0.0000000e+00 0.0000000e+00 1.4750000e+01 
0.0000000e+00 0.0000000e+00 1.5000000e+01 
0.0000000e+00 0.0000000e+00 1.5250000e+01 
0.0000000e+00 0.0000000e+00 1.5500000e+01 
0.0000000e+00 0.0000000e+00 1.5750000e+01 
0.0000000e+00 0.0000000e+00 1.6000000e+01 
0.0000000e+00 0.0000000e+00 1.6250000e+01 
0.0000000e+00 0.0000000e+00 1.6500000e+01 
0.0000000e+00 0.0000000e+00 1.6750000e+01 
0.0000000e+00 0.0000000e+00 1.7000000e+01 
0.0000000e+00 0.0000000e+00 1.7250000e+01 
0.0000000e+00 0.0000000e+00 1.7500000e+01 
0.0000000e+00 0.0000000e+00 1.7750000e+01 
0.0000000e+00 0.0000000e+00 1.8000000e+01 
5.0000000e-01 0.0000000e+00 3.0000000e+00 
5.0000000e-01 0.0000000e+00 6.0000000e+00 
5.0000000e-01 0.0000000e+00 9.0000000e+00 
5.0000000e-01 0.0000000e+00 1.2000000e+01 
5.0000000e-01 0.0000000e+00 1.5000000e+01 
5.0000000e-01 0.0000000e+00 1.8000000e+01 
1.0000000e+00 0.0000000e+00 3.0000000e+00 
1.0000000e+00 0.0000000e+00 6.0000000e+00 
1.0000000e+00 0.0000000e+00 9.0000000e+00 
1.0000000e+00 0.0000000e+00 1.2000000e+01 
1.0000000e+00 0.0000000e+00 1.5000000e+01 
1.0000000e+00 0.0000000e+00 1.8000000e+01 
1.5000000e+00 0.0000000e+00 3.0000000e+00 
1.5000000e+00 0.0000000e+00 6.0000000e+00 
1.5000000e+00 0.0000000e+00 9.0000000e+00 
1.5000000e+00 0.0000000e+00 1.2000000e+01 
1.5000000e+00 0.0000000e+00 1.5000000e+01 
1.5000000e+00 0.0000000e+00 1.8000000e+01 
2.0000000e+00 0.0000000e+00 3.0000000e+00 
2.0000000e+00 0.0000000e+00 6.0000000e+00 
2.0000000e+00 0.0000000e+00 9.0000000e+00 
2.0000000e+00 0.0000000e+00 1.2000000e+01 
2.0000000e+00 0.0000000e+00 1.5000000e+01 
2.0000000e+00 0.0000000e+00 1.8000000e+01 
2.5000000e+00 0.0000000e+00 3.0000000e+00 
2.5000000e+00 0.0000000e+00 6.0000000e+00 
2.5000000e+00 0.0000000e+00 9.0000000e+00 
2.5000000e+00 0.0000000e+00 1.2000000e+01 
2.5000000e+00 0.0000000e+00 1.5000000e+01 
2.5000000e+00 0.0000000e+00 1.8000000e+01 
3.0000000e+00 0.0000000e+00 3.0000000e+00 
3.0000000e+00 0.0000000e+00 6.0000000e+00 
3.0000000e+00 0.0000000e+00 9.0000000e+00 
3.0000000e+00 0.0000000e+00 1.2000000e+01 
3.0000000e+00 0.0000000e+00 1.5000000e+01 
3.0000000e+00 0.0000000e+00 1.8000000e+01 
3.5000000e+00 0.0000000e+00 3.0000000e+00 
3.5000000e+00 0.0000000e+00 6.0000000e+00 
3.5000000e+00 0.0000000e+00 9.0000000e+00 
3.5000000e+00 0.0000000e+00 1.2000000e+01 
3.5000000e+00 0.0000000e+00 1.5000000e+01 
3.5000000e+00 0.0000000e+00 1.8000000e+01 
4.0000000e+00 0.0000000e+00 3.0000000e+00 
4.0000000e+00 0.0000000e+00 6.0000000e+00 
4.0000000e+00 0.0000000e+00 9.0000000e+00 
4.0000000e+00 0.0000000e+00 1.2000000e+01 
4.0000000e+00 0.0000000e+00 1.5000000e+01 
4.0000000e+00 0.0000000e+00 1.8000000e+01 
4.5000000e+00 0.0000000e+00 3.0000000e+00 
4.5000000e+00 0.0000000e+00 6.0000000e+00 
4.5000000e+00 0.0000000e+00 9.0000000e+00 
4.5000000e+00 0.0000000e+00 1.2000000e+01 
4.5000000e+00 0.0000000e+00 1.5000000e+01 
4.5000000e+00 0.0000000e+00 1.8000000e+01 
5.0000000e+00 0.0000000e+00 3.0000000e+00 
5.0000000e+00 0.0000000e+00 6.0000000e+00 
5.0000000e+00 0.0000000e+00 9.0000000e+00 
5.0000000e+00 0.0000000e+00 1.2000000e+01 
5.0000000e+00 0.0000000e+00 1.5000000e+01 
5.0000000e+00 0.0000000e+00 1.8000000e+01 
5.5000000e+00 0.0000000e+00 3.0000000e+00 
5.5000000e+00 0.0000000e+00 6.0000000e+00 
5.5000000e+00 0.0000000e+00 9.0000000e+00 
5.5000000e+00 0.0000000e+00 1.2000000e+01 
5.5000000e+00 0.0000000e+00 1.5000000e+01 
5.5000000e+00 0.0000000e+00 1.8000000e+01 
6.0000000e+00 0.0000000e+00 0.0000000e+00 
6.0000000e+00 0.0000000e+00 2.5000000e-01 
6.0000000e+00 0.0000000e+00 5.0000000e-01 
6.0000000e+00 0.0000000e+00 7.5000000e-01 
6.0000000e+00 0.0000000e+00 1.0000000e+00 
6.0000000e+00 0.0000000e+00 1.2500000e+00 
6.0000000e+00 0.0000000e+00 1.5000000e+00 
6.0000000e+00 0.0000000e+00 1.7500000e+00 
6.0000000e+00 0.0000000e+00 2.0000000e+00 
6.0000000e+00 0.0000000e+00 2.2500000e+00 
6.0000000e+00 0.0000000e+00 2.5000000e+00 
6.0000000e+00 0.0000000e+00 2.7500000e+00 
6.0000000e+00 0.0000000e+00 3.0000000e+00 
6.0000000e+00 0.0000000e+00 3.2500000e+00 
6.0000000e+00 0.0000000e+00 3.5000000e+00 
6.0000000e+00 0.0000000e+00 3.7500000e+00 
6.0000000e+00 0.0000000e+00 4.0000000e+00 
6.0000000e+00 0.0000000e+00 4.2500000e+00 
6.0000000e+00 0.0000000e+00 4.5000000e+00 
6.0000000e+00 0.0000000e+00 4.7500000e+00 
6.0000000e+00 0.0000000e+00 5.0000000e+00 
6.0000000e+00 0.0000000e+00 5.2500000e+00 
6.0000000e+00 0.0000000e+00 5.5000000e+00 
6.0000000e+00 0.0000000e+00 5.7500000e+00 
6.0000000e+00 0.0000000e+00 6.0000000e+00 
6.0000000e+00 0.0000000e+00 6.2500000e+00 
6.0000000e+00 0.0000000e+00 6.5000000e+00 
6.0000000e+00 0.0000000e+00 6.7500000e+00 
6.0000000e+00 0.0000000e+00 7.0000000e+00 
6.0000000e+00 0.0000000e+00 7.2500000e+00 
6.0000000e+00 0.0000000e+00 7.5000000e+00 
6.0000000e+00 0.0000000e+00 7.7500000e+00 
6.0000000e+00 0.0000000e+00 8.0000000e+00 
6.0000000e+00 0.0000000e+00 8.2500000e+00 
6.0000000e+00 0.0000000e+00 8.5000000e+00 
6.0000000e+00 0.0000000e+00 8.7500000e+00 
6.0000000e+00 0.0000000e+00 9.0000000e+00 
6.0000000e+00 0.0000000e+00 9.2500000e+00 
6.0000000e+00 0.0000000e+00 9.5000000e+00 
6.0000000e+00 0.0000000e+00 9.7500000e+00 
6.0000000e+00 0.0000000e+00 1.0000000e+01 
6.0000000e+00 0.0000000e+00 1.0250000e+01 
6.0000000e+00 0.0000000e+00 1.0500000e+01 
6.0000000e+00 0.0000000e+00 1.0750000e+01 
6.0000000e+00 0.0000000e+00 1.1000000e+01 
6.0000000e+00 0.0000000e+00 1.1250000e+01 
6.0000000e+00 0.0000000e+00 1.1500000e+01 
6.0000000e+00 0.0000000e+00 1.1750000e+01 
6.0000000e+00 0.0000000e+00 1.2000000e+01 
6.0000000e+00 0.0000000e+00 1.2250000e+01 
6.0000000e+00 0.0000000e+00 1.2500000e+01 
6.0000000e+00 0.0000000e+00 1.2750000e+01 
6.0000000e+00 0.0000000e+00 1.3000000e+01 
6.0000000e+00 0.0000000e+00 1.3250000e+01 
6.0000000e+00 0.0000000e+00 1.3500000e+01 
6.0000000e+00 0.0000000e+00 1.3750000e+01 
6.0000000e+00 0.0000000e+00 1.4000000e+01 
6.0000000e+00 0.0000000e+00 1.4250000e+01 
6.0000000e+00 0.0000000e+00 1.4500000e+01 
6.0000000e+00 0.0000000e+00 1.4750000e+01 
6.0000000e+00 0.0000000e+00 1.5000000e+01 
6.0000000e+00 0.0000000e+00 1.5250000e+01 
6.0000000e+00 0.0000000e+00 1.5500000e+01 
6.0000000e+00 0.0000000e+00 1.5750000e+01 
6.0000000e+00 0.0000000e+00 1.6000000e+01 
6.0000000e+00 0.0000000e+00 1.6250000e+01 
6.0000000e+00 0.0000000e+00 1.6500000e+01 
6.0000000e+00 0.0000000e+00 1.6750000e+01 
6.0000000e+00 0.0000000e+00 1.7000000e+01 
6.0000000e+00 0.0000000e+00 1.7250000e+01 
6.0000000e+00 0.0000000e+00 1.7500000e+01 
6.0000000e+00 0.0000000e+00 1.7750000e+01 
6.0000000e+00 0.0000000e+00 1.8000000e+01 

CELLS 216 648
2 0 1
2 1 2
2 2 3
2 3 4
2 4 5
2 5 6
2 6 7
2 7 8
2 8 9
2 9 10
2 10 11
2 11 12
2 12 13
2 13 14
2 14 15
2 15 16
2 16 17
2 17 18
2 18 19
2 19 20
2 20 21
2 21 22
2 22 23
2 23 24
2 24 25
2 25 26
2 26 27
2 27 28
2 28 29
2 29 30
2 30 31
2 31 32
2 32 33
2 33 34
2 34 35
2 35 36
2 36 37
2 37 38
2 38 39
2 39 40
2 40 41
2 41 42
2 42 43
2 43 44
2 44 45
2 45 46
2 46 47
2 47 48
2 48 49
2 49 50
2 50 51
2 51 52
2 52 53
2 53 54
2 54 55
2 55 56
2 56 57
2 57 58
2 58 59
2 59 60
2 60 61
2 61 62
2 62 63
2 63 64
2 64 65
2 65 66
2 66 67
2 67 68
2 68 69
2 69 70
2 70 71
2 71 72
2 139 140
2 140 141
2 141 142
2 142 143
2 143 144
2 144 145
2 145 146
2 146 147
2 147 148
2 148 149
2 149 150
2 150 151
2 151 152
2 152 153
2 153 154
2 154 155
2 155 156
2 156 157
2 157 158
2 158 159
2 159 160
2 160 161
2 161 162
2 162 163
2 163 164
2 164 165
2 165 166
2 166 167
2 167 168
2 168 169
2 169 170
2 170 171
2 171 172
2 172 173
2 173 174
2 174 175
2 175 176
2 176 177
2 177 178
2 178 179
2 179 180
2 180 181
2 181 182
2 182 183
2 183 184
2 184 185
2 185 186
2 186 187
2 187 188
2 188 189
2 189 190
2 190 191
2 191 192
2 192 193
2 193 194
2 194 195
2 195 196
2 196 197
2 197 198
2 198 199
2 199 200
2 200 201
2 201 202
2 202 203
2 203 204
2 204 205
2 205 206
2 206 207
2 207 208
2 208 209
2 209 210
2 210 211
2 12 73
2 73 79
2 79 85
2 85 91
2 91 97
2 97 103
2 103 109
2 109 115
2 115 121
2 121 127
2 127 133
2 133 151
2 24 74
2 74 80
2 80 86
2 86 92
2 92 98
2 98 104
2 104 110
2 110 116
2 116 122
2 122 128
2 128 134
2 134 163
2 36 75
2 75 81
2 81 87
2 87 93
2 93 99
2 99 105
2 105 111
2 111 117
2 117 123
2 123 129
2 129 135
2 135 175
2 48 76
2 76 82
2 82 88
2 88 94
2 94 100
2 100 106
2 106 112
2 112 118
2 118 124
2 124 130
2 130 136
2 136 187
2 60 77
2 77 83
2 83 89
2 89 95
2 95 101
2 101 107
2 107 113
2 113 119
2 119 125
2 125 131
2 131 137
2 137 199
2 72 78
2 78 84
2 84 90
2 90 96
2 96 102
2 102 108
2 108 114
2 114 120
2 120 126
2 126 132
2 132 138
2 138 211

CELL_TYPES 216
3
3
3
3
3
3
3
3
3
3
3
3
3
3
3
3
3
3
3
3
3
3
3
3
3
3
3
3
3
3
3
3
3
3
3
3
3
3
3
3
3
3
3
3
3
3
3
3
3
3
3
3
3
3
3
3
3
3
3
3
3
3
3
3
3
3
3
3
3
3
3
3
3
3
3
3
3
3
3
3
3
3
3
3
3
3
3
3
3
3
3
3
3
3
3
3
3
3
3
3
3
3
3
3
3
3
3
3
3
3
3
3
3
3
3
3
3
3
3
3
3
3
3
3
3
3
3
3
3
3
3
3
3
3
3
3
3
3
3
3
3
3
3
3
3
3
3
3
3
3
3
3
3
3
3
3
3
3
3
3
3
3
3
3
3
3
3
3
3
3
3
3
3
3
3
3
3
3
3
3
3
3
3
3
3
3
3
3
3
3
3
3
3
3
3
3
3
3
3
3
3
3
3
3
3
3
3
3
3
3
3
3
3
3
3
3
POINT_DATA 212
FIELD FieldData 3
ADJOINT_DISPLACEMENT 3 212  float
0.0000000e+00 0.0000000e+00 0.0000000e+00 
2.4462001e-05 0.0000000e+00 -2.2463160e-16 
-6.8007489e-07 0.0000000e+00 -4.4926320e-16 
-1.2503030e-04 0.0000000e+00 -6.7389486e-16 
-3.9819276e-04 0.0000000e+00 -8.9852641e-16 
-8.6977152e-04 0.0000000e+00 -1.1231581e-15 
-1.5893707e-03 0.0000000e+00 -1.3477897e-15 
-2.6065942e-03 0.0000000e+00 -1.5724213e-15 
-3.9710463e-03 0.0000000e+00 -1.7970528e-15 
-5.7323310e-03 0.0000000e+00 -2.0216845e-15 
-7.9400521e-03 0.0000000e+00 -2.2463161e-15 
-1.0643815e-02 0.0000000e+00 -2.4709478e-15 
-1.3893222e-02 0.0000000e+00 -2.6955794e-15 
-1.7920956e-02 0.0000000e+00 1.4960485e-06 
-2.2723755e-02 0.0000000e+00 2.9920971e-06 
-2.7997306e-02 0.0000000e+00 4.4881454e-06 
-3.3437300e-02 0.0000000e+00 5.9841941e-06 
-3.8739424e-02 0.0000000e+00 7.4802424e-06 
-4.3599367e-02 0.0000000e+00 8.9762907e-06 
-4.7712818e-02 0.0000000e+00 1.0472339e-05 
-5.0775465e-02 0.0000000e+00 1.1968388e-05 
-5.2482996e-02 0.0000000e+00 1.3464436e-05 
-5.2531101e-02 0.0000000e+00 1.4960485e-05 
-5.0615463e-02 0.0000000e+00 1.6456534e-05 
-4.6431780e-02 0.0000000e+00 1.7952581e-05 
-4.0104032e-02 0.0000000e+00 2.5434796e-05 
-3.2858018e-02 0.0000000e+00 3.2917011e-05 
-2.6042124e-02 0.0000000e+00 4.0399224e-05 
-2.1004749e-02 0.0000000e+00 4.7881436e-05 
-1.9094281e-02 0.0000000e+00 5.5363649e-05 
-2.1659112e-02 0.0000000e+00 6.2845866e-05 
-3.0047635e-02 0.0000000e+00 7.0328075e-05 
-4.5608241e-02 0.0000000e+00 7.7810291e-05 
-6.9689326e-02 0.0000000e+00 8.5292508e-05 
-1.0363927e-01 0.0000000e+00 9.2774717e-05 
-1.4880650e-01 0.0000000e+00 1.0025693e-04 
-2.0653936e-01 0.0000000e+00 1.0773915e-04 
-2.8220084e-01 0.0000000e+00 1.4366403e-04 
-3.7927133e-01 0.0000000e+00 1.7958891e-04 
-2.4627522e-01 0.0000000e+00 2.1551379e-04 
-1.3173701e-01 0.0000000e+00 2.5143867e-04 
-3.4181163e-02 0.0000000e+00 2.8736354e-04 
4.7867876e-02 0.0000000e+00 3.2328843e-04 
1.1588565e-01 0.0000000e+00 3.5921330e-04 
1.7134768e-01 0.0000000e+00 3.9513820e-04 
2.1572953e-01 0.0000000e+00 4.3106306e-04 
2.5050673e-01 0.0000000e+00 4.6698793e-04 
2.7715483e-01 0.0000000e+00 5.0291279e-04 
2.9714936e-01 0.0000000e+00 5.3883769e-04 
3.1420943e-01 0.0000000e+00 5.4631993e-04 
3.3098057e-01 0.0000000e+00 5.5380212e-04 
3.4732810e-01 0.0000000e+00 5.6128437e-04 
3.6311728e-01 0.0000000e+00 5.6876655e-04 
3.7821335e-01 0.0000000e+00 5.7624874e-04 
3.9248163e-01 0.0000000e+00 5.8373099e-04 
4.0578738e-01 0.0000000e+00 5.9121317e-04 
4.1799584e-01 0.0000000e+00 5.9869542e-04 
4.2897233e-01 0.0000000e+00 6.0617761e-04 
4.3858209e-01 0.0000000e+00 6.1365985e-04 
4.4669041e-01 0.0000000e+00 6.2114204e-04 
4.5316255e-01 0.0000000e+00 6.2862429e-04 
4.5850050e-01 0.0000000e+00 6.3012034e-04 
4.6331275e-01 0.0000000e+00 6.3161633e-04 
4.6762425e-01 0.0000000e+00 6.3311239e-04 
4.7145993e-01 0.0000000e+00 6.3460844e-04 
4.7484475e-01 0.0000000e+00 6.3610449e-04 
4.7780368e-01 0.0000000e+00 6.3760055e-04 
4.8036167e-01 0.0000000e+00 6.3909660e-04 
4.8254365e-01 0.0000000e+00 6.4059265e-04 
4.8437461e-01 0.0000000e+00 6.4208871e-04 
4.8587948e-01 0.0000000e+00 6.4358476e-04 
4.8708320e-01 0.0000000e+00 6.4508081e-04 
4.8801076e-01 0.0000000e+00 6.4657687e-04 
-1.3848453e-02 0.0000000e+00 6.1408114e-03 
-4.6640839e-02 0.0000000e+00 -1.1305551e-02 
-2.0618214e-01 0.0000000e+00 1.1169671e-01 
2.9694566e-01 0.0000000e+00 -2.4332253e-02 
4.5318273e-01 0.0000000e+00 -8.2753804e-03 
4.8800761e-01 0.0000000e+00 -4.7809593e-04 
-1.3803684e-02 0.0000000e+00 1.0534342e-02 
-4.6849899e-02 0.0000000e+00 -2.3094686e-02 
-2.0582493e-01 0.0000000e+00 1.9100143e-01 
2.9674199e-01 0.0000000e+00 -3.2705564e-02 
4.5320293e-01 0.0000000e+00 -1.3055616e-02 
4.8800445e-01 0.0000000e+00 -7.8710698e-04 
-1.3758915e-02 0.0000000e+00 1.3369824e-02 
-4.7058955e-02 0.0000000e+00 -3.4592282e-02 
-2.0546772e-01 0.0000000e+00 2.4161950e-01 
2.9653829e-01 0.0000000e+00 -2.8178724e-02 
4.5322314e-01 0.0000000e+00 -1.4469258e-02 
4.8800132e-01 0.0000000e+00 -4.6968710e-04 
-1.3714147e-02 0.0000000e+00 1.4836486e-02 
-4.7268014e-02 0.0000000e+00 -4.5041166e-02 
-2.0511051e-01 0.0000000e+00 2.6714858e-01 
2.9633459e-01 0.0000000e+00 -1.4349357e-02 
4.5324335e-01 0.0000000e+00 -1.3273475e-02 
4.8799816e-01 0.0000000e+00 2.8493314e-04 
-1.3669378e-02 0.0000000e+00 1.5123562e-02 
-4.7477074e-02 0.0000000e+00 -5.3684164e-02 
-2.0475329e-01 0.0000000e+00 2.7118626e-01 
2.9613090e-01 0.0000000e+00 5.1849061e-03 
4.5326352e-01 0.0000000e+00 -1.0225441e-02 
4.8799500e-01 0.0000000e+00 1.2875230e-03 
-1.3624609e-02 0.0000000e+00 1.4420279e-02 
-4.7686134e-02 0.0000000e+00 -5.9764110e-02 
-2.0439607e-01 0.0000000e+00 2.5733021e-01 
2.9592723e-01 0.0000000e+00 2.6826439e-02 
4.5328373e-01 0.0000000e+00 -6.0823285e-03 
4.8799184e-01 0.0000000e+00 2.3488516e-03 
-1.3579841e-02 0.0000000e+00 1.2915870e-02 
-4.7895193e-02 0.0000000e+00 -6.2523827e-02 
-2.0403886e-01 0.0000000e+00 2.2917804e-01 
2.9572353e-01 0.0000000e+00 4.6977613e-02 
4.5330393e-01 0.0000000e+00 -1.6013084e-03 
4.8798868e-01 0.0000000e+00 3.2796888e-03 
-1.3535072e-02 0.0000000e+00 1.0799565e-02 
-4.8104253e-02 0.0000000e+00 -6.1206140e-02 
-2.0368165e-01 0.0000000e+00 1.9032736e-01 
2.9551983e-01 0.0000000e+00 6.2040806e-02 
4.5332414e-01 0.0000000e+00 2.4604469e-03 
4.8798552e-01 0.0000000e+00 3.8908033e-03 
-1.3490303e-02 0.0000000e+00 8.2605956e-03 
-4.8313312e-02 0.0000000e+00 -5.5053882e-02 
-2.0332444e-01 0.0000000e+00 1.4437582e-01 
2.9531613e-01 0.0000000e+00 6.8418384e-02 
4.5334432e-01 0.0000000e+00 5.3457650e-03 
4.8798236e-01 0.0000000e+00 3.9929645e-03 
-1.3445535e-02 0.0000000e+00 5.4881903e-03 
-4.8522372e-02 0.0000000e+00 -4.3309879e-02 
-2.0296721e-01 0.0000000e+00 9.4921038e-02 
2.9511246e-01 0.0000000e+00 6.2512718e-02 
4.5336452e-01 0.0000000e+00 6.2974738e-03 
4.8797920e-01 0.0000000e+00 3.3969423e-03 
-1.3400766e-02 0.0000000e+00 2.6715819e-03 
-4.8731428e-02 0.0000000e+00 -2.5216959e-02 
-2.0261000e-01 0.0000000e+00 4.5560643e-02 
2.9490876e-01 0.0000000e+00 4.0726189e-02 
4.5338473e-01 0.0000000e+00 4.5584016e-03 
4.8797604e-01 0.0000000e+00 1.9135053e-03 
0.0000000e+00 0.0000000e+00 0.0000000e+00 
-2.2952303e-03 0.0000000e+00 2.3239553e-16 
-4.5408565e-03 0.0000000e+00 4.6479128e-16 
-6.6872747e-03 0.0000000e+00 6.9718345e-16 
-8.6848801e-03 0.0000000e+00 9.2957440e-16 
-1.0484070e-02 0.0000000e+00 1.1619658e-15 
-1.2035239e-02 0.0000000e+00 1.3943558e-15 
-1.3288784e-02 0.0000000e+00 1.6267468e-15 
-1.4195099e-02 0.0000000e+00 1.8591386e-15 
-1.4704583e-02 0.0000000e+00 2.0915230e-15 
-1.4767630e-02 0.0000000e+00 2.3239092e-15 
-1.4334637e-02 0.0000000e+00 2.5562925e-15 
-1.3355997e-02 0.0000000e+00 2.7886821e-15 
-1.1882879e-02 0.0000000e+00 -1.4960485e-06 
-1.0202386e-02 0.0000000e+00 -2.9920971e-06 
-8.6188326e-03 0.0000000e+00 -4.4881454e-06 
-7.4365283e-03 0.0000000e+00 -5.9841941e-06 
-6.9597862e-03 0.0000000e+00 -7.4802424e-06 
-7.4929176e-03 0.0000000e+00 -8.9762907e-06 
-9.3402332e-03 0.0000000e+00 -1.0472339e-05 
-1.2806046e-02 0.0000000e+00 -1.1968388e-05 
-1.8194666e-02 0.0000000e+00 -1.3464436e-05 
-2.5810406e-02 0.0000000e+00 -1.4960485e-05 
-3.5957575e-02 0.0000000e+00 -1.6456534e-05 
-4.8940487e-02 0.0000000e+00 -1.7952581e-05 
-6.5770909e-02 0.0000000e+00 -2.5434796e-05 
-8.6358815e-02 0.0000000e+00 -3.2917011e-05 
-1.0935580e-01 0.0000000e+00 -4.0399224e-05 
-1.3341348e-01 0.0000000e+00 -4.7881436e-05 
-1.5718345e-01 0.0000000e+00 -5.5363649e-05 
-1.7931734e-01 0.0000000e+00 -6.2845866e-05 
-1.9846675e-01 0.0000000e+00 -7.0328075e-05 
-2.1328327e-01 0.0000000e+00 -7.7810291e-05 
-2.2241853e-01 0.0000000e+00 -8.5292508e-05 
-2.2452414e-01 0.0000000e+00 -9.2774717e-05 
-2.1825169e-01 0.0000000e+00 -1.0025693e-04 
-2.0225279e-01 0.0000000e+00 -1.0773915e-04 
-1.7656092e-01 0.0000000e+00 -1.4366403e-04 
-1.4309216e-01 0.0000000e+00 -1.7958891e-04 
-1.0332206e-01 0.0000000e+00 -2.1551379e-04 
-5.8726154e-02 0.0000000e+00 -2.5143867e-04 
-1.0779986e-02 0.0000000e+00 -2.8736354e-04 
3.9040901e-02 0.0000000e+00 -3.2328843e-04 
8.9260966e-02 0.0000000e+00 -3.5921330e-04 
1.3840468e-01 0.0000000e+00 -3.9513820e-04 
1.8499649e-01 0.0000000e+00 -4.3106306e-04 
2.2756083e-01 0.0000000e+00 -4.6698793e-04 
2.6462221e-01 0.0000000e+00 -5.0291279e-04 
2.9470506e-01 0.0000000e+00 -5.3883769e-04 
3.1948674e-01 0.0000000e+00 -5.4631993e-04 
3.4171811e-01 0.0000000e+00 -5.5380212e-04 
3.6153391e-01 0.0000000e+00 -5.6128437e-04 
3.7906885e-01 0.0000000e+00 -5.6876655e-04 
3.9445764e-01 0.0000000e+00 -5.7624874e-04 
4.0783507e-01 0.0000000e+00 -5.8373099e-04 
4.1933581e-01 0.0000000e+00 -5.9121317e-04 
4.2909461e-01 0.0000000e+00 -5.9869542e-04 
4.3724620e-01 0.0000000e+00 -6.0617761e-04 
4.4392529e-01 0.0000000e+00 -6.1365985e-04 
4.4926661e-01 0.0000000e+00 -6.2114204e-04 
4.5340493e-01 0.0000000e+00 -6.2862429e-04 
4.5697394e-01 0.0000000e+00 -6.3012034e-04 
4.6050099e-01 0.0000000e+00 -6.3161633e-04 
4.6396112e-01 0.0000000e+00 -6.3311239e-04 
4.6732935e-01 0.0000000e+00 -6.3460844e-04 
4.7058076e-01 0.0000000e+00 -6.3610449e-04 
4.7369033e-01 0.0000000e+00 -6.3760055e-04 
4.7663319e-01 0.0000000e+00 -6.3909660e-04 
4.7938436e-01 0.0000000e+00 -6.4059265e-04 
4.8191884e-01 0.0000000e+00 -6.4208871e-04 
4.8421174e-01 0.0000000e+00 -6.4358476e-04 
4.8623806e-01 0.0000000e+00 -6.4508081e-04 
4.8797289e-01 0.0000000e+00 -6.4657687e-04 
ADJOINT_ROTATION 3 212  float
0.0000000e+00 1.3091738e-04 0.0000000e+00 
0.0000000e+00 3.1709234e-05 0.0000000e+00 
0.0000000e+00 -2.6591521e-04 0.0000000e+00 
0.0000000e+00 -7.6195598e-04 0.0000000e+00 
0.0000000e+00 -1.4564131e-03 0.0000000e+00 
0.0000000e+00 -2.3492863e-03 0.0000000e+00 
0.0000000e+00 -3.4405759e-03 0.0000000e+00 
0.0000000e+00 -4.7302819e-03 0.0000000e+00 
0.0000000e+00 -6.2184040e-03 0.0000000e+00 
0.0000000e+00 -7.9049431e-03 0.0000000e+00 
0.0000000e+00 -9.7898971e-03 0.0000000e+00 
0.0000000e+00 -1.1873269e-02 0.0000000e+00 
0.0000000e+00 -1.4155056e-02 0.0000000e+00 
0.0000000e+00 -1.7863939e-02 0.0000000e+00 
0.0000000e+00 -2.0355577e-02 0.0000000e+00 
0.0000000e+00 -2.1629967e-02 0.0000000e+00 
0.0000000e+00 -2.1687113e-02 0.0000000e+00 
0.0000000e+00 -2.0527011e-02 0.0000000e+00 
0.0000000e+00 -1.8149663e-02 0.0000000e+00 
0.0000000e+00 -1.4555070e-02 0.0000000e+00 
0.0000000e+00 -9.7432295e-03 0.0000000e+00 
0.0000000e+00 -3.7141428e-03 0.0000000e+00 
0.0000000e+00 3.5321894e-03 0.0000000e+00 
0.0000000e+00 1.1995768e-02 0.0000000e+00 
0.0000000e+00 2.1676593e-02 0.0000000e+00 
0.0000000e+00 2.8046452e-02 0.0000000e+00 
0.0000000e+00 2.9022742e-02 0.0000000e+00 
0.0000000e+00 2.4605464e-02 0.0000000e+00 
0.0000000e+00 1.4794618e-02 0.0000000e+00 
0.0000000e+00 -4.0979715e-04 0.0000000e+00 
0.0000000e+00 -2.1007782e-02 0.0000000e+00 
0.0000000e+00 -4.6999335e-02 0.0000000e+00 
0.0000000e+00 -7.8384452e-02 0.0000000e+00 
0.0000000e+00 -1.1516315e-01 0.0000000e+00 
0.0000000e+00 -1.5733540e-01 0.0000000e+00 
0.0000000e+00 -2.0490123e-01 0.0000000e+00 
0.0000000e+00 -2.5786063e-01 0.0000000e+00 
0.0000000e+00 -3.4644762e-01 0.0000000e+00 
0.0000000e+00 -4.2913243e-01 0.0000000e+00 
0.0000000e+00 4.9408489e-01 0.0000000e+00 
0.0000000e+00 4.2320442e-01 0.0000000e+00 
0.0000000e+00 3.5822609e-01 0.0000000e+00 
0.0000000e+00 2.9914993e-01 0.0000000e+00 
0.0000000e+00 2.4597593e-01 0.0000000e+00 
0.0000000e+00 1.9870408e-01 0.0000000e+00 
0.0000000e+00 1.5733442e-01 0.0000000e+00 
0.0000000e+00 1.2186690e-01 0.0000000e+00 
0.0000000e+00 9.2301562e-02 0.0000000e+00 
0.0000000e+00 6.8638377e-02 0.0000000e+00 
0.0000000e+00 6.7752235e-02 0.0000000e+00 
0.0000000e+00 6.6327177e-02 0.0000000e+00 
0.0000000e+00 6.4363211e-02 0.0000000e+00 
0.0000000e+00 6.1860338e-02 0.0000000e+00 
0.0000000e+00 5.8818549e-02 0.0000000e+00 
0.0000000e+00 5.5237852e-02 0.0000000e+00 
0.0000000e+00 5.1118247e-02 0.0000000e+00 
0.0000000e+00 4.6459731e-02 0.0000000e+00 
0.0000000e+00 4.1262303e-02 0.0000000e+00 
0.0000000e+00 3.5525963e-02 0.0000000e+00 
0.0000000e+00 2.9250715e-02 0.0000000e+00 
0.0000000e+00 2.2436557e-02 0.0000000e+00 
0.0000000e+00 2.0283792e-02 0.0000000e+00 
0.0000000e+00 1.8230841e-02 0.0000000e+00 
0.0000000e+00 1.6277704e-02 0.0000000e+00 
0.0000000e+00 1.4424384e-02 0.0000000e+00 
0.0000000e+00 1.2670877e-02 0.0000000e+00 
0.0000000e+00 1.1017187e-02 0.0000000e+00 
0.0000000e+00 9.4633121e-03 0.0000000e+00 
0.0000000e+00 8.0092512e-03 0.0000000e+00 
0.0000000e+00 6.6550062e-03 0.0000000e+00 
0.0000000e+00 5.4005762e-03 0.0000000e+00 
0.0000000e+00 4.2459611e-03 0.0000000e+00 
0.0000000e+00 3.1911610e-03 0.0000000e+00 
0.0000000e+00 -1.0471266e-02 0.0000000e+00 
0.0000000e+00 2.3365030e-02 0.0000000e+00 
0.0000000e+00 -1.8969448e-01 0.0000000e+00 
0.0000000e+00 3.2045193e-02 0.0000000e+00 
0.0000000e+00 1.3431850e-02 0.0000000e+00 
0.0000000e+00 1.3706069e-03 0.0000000e+00 
0.0000000e+00 -7.1659358e-03 0.0000000e+00 
0.0000000e+00 2.3539122e-02 0.0000000e+00 
0.0000000e+00 -1.2872358e-01 0.0000000e+00 
0.0000000e+00 2.6472609e-03 0.0000000e+00 
0.0000000e+00 5.9414869e-03 0.0000000e+00 
0.0000000e+00 -7.1485723e-05 0.0000000e+00 
0.0000000e+00 -4.2390679e-03 0.0000000e+00 
0.0000000e+00 2.2198871e-02 0.0000000e+00 
0.0000000e+00 -7.4947946e-02 0.0000000e+00 
0.0000000e+00 -1.9555416e-02 0.0000000e+00 
0.0000000e+00 -3.4532066e-05 0.0000000e+00 
0.0000000e+00 -1.1351170e-03 0.0000000e+00 
0.0000000e+00 -1.6906611e-03 0.0000000e+00 
0.0000000e+00 1.9344274e-02 0.0000000e+00 
0.0000000e+00 -2.8367560e-02 0.0000000e+00 
0.0000000e+00 -3.4562837e-02 0.0000000e+00 
0.0000000e+00 -4.4962070e-03 0.0000000e+00 
0.0000000e+00 -1.8202870e-03 0.0000000e+00 
0.0000000e+00 4.7928430e-04 0.0000000e+00 
0.0000000e+00 1.4975334e-02 0.0000000e+00 
0.0000000e+00 1.1017569e-02 0.0000000e+00 
0.0000000e+00 -4.2375006e-02 0.0000000e+00 
0.0000000e+00 -7.4435375e-03 0.0000000e+00 
0.0000000e+00 -2.1269955e-03 0.0000000e+00 
0.0000000e+00 2.2707682e-03 0.0000000e+00 
0.0000000e+00 9.0920497e-03 0.0000000e+00 
0.0000000e+00 4.3207444e-02 0.0000000e+00 
0.0000000e+00 -4.2991918e-02 0.0000000e+00 
0.0000000e+00 -8.8765239e-03 0.0000000e+00 
0.0000000e+00 -2.0552427e-03 0.0000000e+00 
0.0000000e+00 3.6837908e-03 0.0000000e+00 
0.0000000e+00 1.6944208e-03 0.0000000e+00 
0.0000000e+00 6.8202063e-02 0.0000000e+00 
0.0000000e+00 -3.6413573e-02 0.0000000e+00 
0.0000000e+00 -8.7951664e-03 0.0000000e+00 
0.0000000e+00 -1.6050284e-03 0.0000000e+00 
0.0000000e+00 4.7183521e-03 0.0000000e+00 
0.0000000e+00 -7.2175520e-03 0.0000000e+00 
0.0000000e+00 8.6001426e-02 0.0000000e+00 
0.0000000e+00 -2.2639977e-02 0.0000000e+00 
0.0000000e+00 -7.1994639e-03 0.0000000e+00 
0.0000000e+00 -7.7635283e-04 0.0000000e+00 
0.0000000e+00 5.3744521e-03 0.0000000e+00 
0.0000000e+00 -1.7643869e-02 0.0000000e+00 
0.0000000e+00 9.6605532e-02 0.0000000e+00 
0.0000000e+00 -1.6711237e-03 0.0000000e+00 
0.0000000e+00 -4.0894179e-03 0.0000000e+00 
0.0000000e+00 4.3078413e-04 0.0000000e+00 
0.0000000e+00 5.6520905e-03 0.0000000e+00 
0.0000000e+00 -2.9584531e-02 0.0000000e+00 
0.0000000e+00 1.0001439e-01 0.0000000e+00 
0.0000000e+00 2.6492985e-02 0.0000000e+00 
0.0000000e+00 5.3497276e-04 0.0000000e+00 
0.0000000e+00 2.0163825e-03 0.0000000e+00 
0.0000000e+00 5.5512674e-03 0.0000000e+00 
0.0000000e+00 -4.3039534e-02 0.0000000e+00 
0.0000000e+00 9.6227989e-02 0.0000000e+00 
0.0000000e+00 6.1852347e-02 0.0000000e+00 
0.0000000e+00 6.6737072e-03 0.0000000e+00 
0.0000000e+00 3.9804424e-03 0.0000000e+00 
0.0000000e+00 -9.2139905e-03 0.0000000e+00 
0.0000000e+00 -9.1147823e-03 0.0000000e+00 
0.0000000e+00 -8.8171577e-03 0.0000000e+00 
0.0000000e+00 -8.3211167e-03 0.0000000e+00 
0.0000000e+00 -7.6266602e-03 0.0000000e+00 
0.0000000e+00 -6.7337868e-03 0.0000000e+00 
0.0000000e+00 -5.6424970e-03 0.0000000e+00 
0.0000000e+00 -4.3527912e-03 0.0000000e+00 
0.0000000e+00 -2.8646688e-03 0.0000000e+00 
0.0000000e+00 -1.1781304e-03 0.0000000e+00 
0.0000000e+00 7.0682453e-04 0.0000000e+00 
0.0000000e+00 2.7901956e-03 0.0000000e+00 
0.0000000e+00 5.0719832e-03 0.0000000e+00 
0.0000000e+00 6.5100980e-03 0.0000000e+00 
0.0000000e+00 6.7309667e-03 0.0000000e+00 
0.0000000e+00 5.7345894e-03 0.0000000e+00 
0.0000000e+00 3.5209660e-03 0.0000000e+00 
0.0000000e+00 9.0096233e-05 0.0000000e+00 
0.0000000e+00 -4.5580198e-03 0.0000000e+00 
0.0000000e+00 -1.0423382e-02 0.0000000e+00 
0.0000000e+00 -1.7505990e-02 0.0000000e+00 
0.0000000e+00 -2.5805844e-02 0.0000000e+00 
0.0000000e+00 -3.5322946e-02 0.0000000e+00 
0.0000000e+00 -4.6057291e-02 0.0000000e+00 
0.0000000e+00 -5.8008887e-02 0.0000000e+00 
0.0000000e+00 -7.5735576e-02 0.0000000e+00 
0.0000000e+00 -8.8068701e-02 0.0000000e+00 
0.0000000e+00 -9.5008254e-02 0.0000000e+00 
0.0000000e+00 -9.6554242e-02 0.0000000e+00 
0.0000000e+00 -9.2706665e-02 0.0000000e+00 
0.0000000e+00 -8.3465509e-02 0.0000000e+00 
0.0000000e+00 -6.8830796e-02 0.0000000e+00 
0.0000000e+00 -4.8802506e-02 0.0000000e+00 
0.0000000e+00 -2.3380648e-02 0.0000000e+00 
0.0000000e+00 7.4347761e-03 0.0000000e+00 
0.0000000e+00 4.3643769e-02 0.0000000e+00 
0.0000000e+00 8.5246332e-02 0.0000000e+00 
0.0000000e+00 1.1930496e-01 0.0000000e+00 
0.0000000e+00 1.4746141e-01 0.0000000e+00 
0.0000000e+00 1.6971570e-01 0.0000000e+00 
0.0000000e+00 1.8606783e-01 0.0000000e+00 
0.0000000e+00 1.9651780e-01 0.0000000e+00 
0.0000000e+00 2.0106560e-01 0.0000000e+00 
0.0000000e+00 1.9971125e-01 0.0000000e+00 
0.0000000e+00 1.9245471e-01 0.0000000e+00 
0.0000000e+00 1.7929602e-01 0.0000000e+00 
0.0000000e+00 1.6023517e-01 0.0000000e+00 
0.0000000e+00 1.3527215e-01 0.0000000e+00 
0.0000000e+00 1.0440697e-01 0.0000000e+00 
0.0000000e+00 9.3936279e-02 0.0000000e+00 
0.0000000e+00 8.4004499e-02 0.0000000e+00 
0.0000000e+00 7.4611634e-02 0.0000000e+00 
0.0000000e+00 6.5757677e-02 0.0000000e+00 
0.0000000e+00 5.7442628e-02 0.0000000e+00 
0.0000000e+00 4.9666490e-02 0.0000000e+00 
0.0000000e+00 4.2429265e-02 0.0000000e+00 
0.0000000e+00 3.5730947e-02 0.0000000e+00 
0.0000000e+00 2.9571543e-02 0.0000000e+00 
0.0000000e+00 2.3951046e-02 0.0000000e+00 
0.0000000e+00 1.8869461e-02 0.0000000e+00 
0.0000000e+00 1.4326787e-02 0.0000000e+00 
0.0000000e+00 1.4208784e-02 0.0000000e+00 
0.0000000e+00 1.3990967e-02 0.0000000e+00 
0.0000000e+00 1.3673334e-02 0.0000000e+00 
0.0000000e+00 1.3255887e-02 0.0000000e+00 
0.0000000e+00 1.2738625e-02 0.0000000e+00 
0.0000000e+00 1.2121547e-02 0.0000000e+00 