# vtk DataFile Version 4.0
vtk output
ASCII
DATASET UNSTRUCTURED_GRID
POINTS 212 float
0.0000000e+00 0.0000000e+00 0.0000000e+00 
0.0000000e+00 0.0000000e+00 2.5000000e-01 
0.0000000e+00 0.0000000e+00 5.0000000e-01 
0.0000000e+00 0.0000000e+00 7.5000000e-01 
0.0000000e+00 0.0000000e+00 1.0000000e+00 
0.0000000e+00 0.0000000e+00 1.2500000e+00 
0.0000000e+00 0.0000000e+00 1.5000000e+00 
0.0000000e+00 0.0000000e+00 1.7500000e+00 
0.0000000e+00 0.0000000e+00 2.0000000e+00 
0.0000000e+00 0.0000000e+00 2.2500000e+00 
0.0000000e+00 0.0000000e+00 2.5000000e+00 
0.0000000e+00 0.0000000e+00 2.7500000e+00 
0.0000000e+00 0.0000000e+00 3.0000000e+00 
0.0000000e+00 0.0000000e+00 3.2500000e+00 
0.0000000e+00 0.0000000e+00 3.5000000e+00 
0.0000000e+00 0.0000000e+00 3.7500000e+00 
0.0000000e+00 0.0000000e+00 4.0000000e+00 
0.0000000e+00 0.0000000e+00 4.2500000e+00 
0.0000000e+00 0.0000000e+00 4.5000000e+00 
0.0000000e+00 0.0000000e+00 4.7500000e+00 
0.0000000e+00 0.0000000e+00 5.0000000e+00 
0.0000000e+00 0.0000000e+00 5.2500000e+00 
0.0000000e+00 0.0000000e+00 5.5000000e+00 
0.0000000e+00 0.0000000e+00 5.7500000e+00 
0.0000000e+00 0.0000000e+00 6.0000000e+00 
0.0000000e+00 0.0000000e+00 6.2500000e+00 
0.0000000e+00 0.0000000e+00 6.5000000e+00 
0.0000000e+00 0.0000000e+00 6.7500000e+00 
0.0000000e+00 0.0000000e+00 7.0000000e+00 
0.0000000e+00 0.0000000e+00 7.2500000e+00 
0.0000000e+00 0.0000000e+00 7.5000000e+00 
0.0000000e+00 0.0000000e+00 7.7500000e+00 
0.0000000e+00 0.0000000e+00 8.0000000e+00 
0.0000000e+00 0.0000000e+00 8.2500000e+00 
0.0000000e+00 0.0000000e+00 8.5000000e+00 
0.0000000e+00 0.0000000e+00 8.7500000e+00 
0.0000000e+00 0.0000000e+00 9.0000000e+00 
0.0000000e+00 0.0000000e+00 9.2500000e+00 
0.0000000e+00 0.0000000e+00 9.5000000e+00 
0.0000000e+00 0.0000000e+00 9.7500000e+00 
0.0000000e+00 0.0000000e+00 1.0000000e+01 
0.0000000e+00 0.0000000e+00 1.0250000e+01 
0.0000000e+00 0.0000000e+00 1.0500000e+01 
0.0000000e+00 0.0000000e+00 1.0750000e+01 
0.0000000e+00 0.0000000e+00 1.1000000e+01 
0.0000000e+00 0.0000000e+00 1.1250000e+01 
0.0000000e+00 0.0000000e+00 1.1500000e+01 
0.0000000e+00 0.0000000e+00 1.1750000e+01 
0.0000000e+00 0.0000000e+00 1.2000000e+01 
0.0000000e+00 0.0000000e+00 1.2250000e+01 
0.0000000e+00 0.0000000e+00 1.2500000e+01 
0.0000000e+00 0.0000000e+00 1.2750000e+01 
0.0000000e+00 0.0000000e+00 1.3000000e+01 
0.0000000e+00 0.0000000e+00 1.3250000e+01 
0.0000000e+00 0.0000000e+00 1.3500000e+01 
0.0000000e+00 0.0000000e+00 1.3750000e+01 
0.0000000e+00 0.0000000e+00 1.4000000e+01 
0.0000000e+00 0.0000000e+00 1.4250000e+01 
0.0000000e+00 0.0000000e+00 1.4500000e+01 
0.0000000e+00 0.0000000e+00 1.4750000e+01 
0.0000000e+00 0.0000000e+00 1.5000000e+01 
0.0000000e+00 0.0000000e+00 1.5250000e+01 
0.0000000e+00 0.0000000e+00 1.5500000e+01 
0.0000000e+00 0.0000000e+00 1.5750000e+01 
0.0000000e+00 0.0000000e+00 1.6000000e+01 
0.0000000e+00 0.0000000e+00 1.6250000e+01 
0.0000000e+00 0.0000000e+00 1.6500000e+01 
0.0000000e+00 0.0000000e+00 1.6750000e+01 
0.0000000e+00 0.0000000e+00 1.7000000e+01 
0.0000000e+00 0.0000000e+00 1.7250000e+01 
0.0000000e+00 0.0000000e+00 1.7500000e+01 
0.0000000e+00 0.0000000e+00 1.7750000e+01 
0.0000000e+00 0.0000000e+00 1.8000000e+01 
5.0000000e-01 0.0000000e+00 3.0000000e+00 
5.0000000e-01 0.0000000e+00 6.0000000e+00 
5.0000000e-01 0.0000000e+00 9.0000000e+00 
5.0000000e-01 0.0000000e+00 1.2000000e+01 
5.0000000e-01 0.0000000e+00 1.5000000e+01 
5.0000000e-01 0.0000000e+00 1.8000000e+01 
1.0000000e+00 0.0000000e+00 3.0000000e+00 
1.0000000e+00 0.0000000e+00 6.0000000e+00 
1.0000000e+00 0.0000000e+00 9.0000000e+00 
1.0000000e+00 0.0000000e+00 1.2000000e+01 
1.0000000e+00 0.0000000e+00 1.5000000e+01 
1.0000000e+00 0.0000000e+00 1.8000000e+01 
1.5000000e+00 0.0000000e+00 3.0000000e+00 
1.5000000e+00 0.0000000e+00 6.0000000e+00 
1.5000000e+00 0.0000000e+00 9.0000000e+00 
1.5000000e+00 0.0000000e+00 1.2000000e+01 
1.5000000e+00 0.0000000e+00 1.5000000e+01 
1.5000000e+00 0.0000000e+00 1.8000000e+01 
2.0000000e+00 0.0000000e+00 3.0000000e+00 
2.0000000e+00 0.0000000e+00 6.0000000e+00 
2.0000000e+00 0.0000000e+00 9.0000000e+00 
2.0000000e+00 0.0000000e+00 1.2000000e+01 
2.0000000e+00 0.0000000e+00 1.5000000e+01 
2.0000000e+00 0.0000000e+00 1.8000000e+01 
2.5000000e+00 0.0000000e+00 3.0000000e+00 
2.5000000e+00 0.0000000e+00 6.0000000e+00 
2.5000000e+00 0.0000000e+00 9.0000000e+00 
2.5000000e+00 0.0000000e+00 1.2000000e+01 
2.5000000e+00 0.0000000e+00 1.5000000e+01 
2.5000000e+00 0.0000000e+00 1.8000000e+01 
3.0000000e+00 0.0000000e+00 3.0000000e+00 
3.0000000e+00 0.0000000e+00 6.0000000e+00 
3.0000000e+00 0.0000000e+00 9.0000000e+00 
3.0000000e+00 0.0000000e+00 1.2000000e+01 
3.0000000e+00 0.0000000e+00 1.5000000e+01 
3.0000000e+00 0.0000000e+00 1.8000000e+01 
3.5000000e+00 0.0000000e+00 3.0000000e+00 
3.5000000e+00 0.0000000e+00 6.0000000e+00 
3.5000000e+00 0.0000000e+00 9.0000000e+00 
3.5000000e+00 0.0000000e+00 1.2000000e+01 
3.5000000e+00 0.0000000e+00 1.5000000e+01 
3.5000000e+00 0.0000000e+00 1.8000000e+01 
4.0000000e+00 0.0000000e+00 3.0000000e+00 
4.0000000e+00 0.0000000e+00 6.0000000e+00 
4.0000000e+00 0.0000000e+00 9.0000000e+00 
4.0000000e+00 0.0000000e+00 1.2000000e+01 
4.0000000e+00 0.0000000e+00 1.5000000e+01 
4.0000000e+00 0.0000000e+00 1.8000000e+01 
4.5000000e+00 0.0000000e+00 3.0000000e+00 
4.5000000e+00 0.0000000e+00 6.0000000e+00 
4.5000000e+00 0.0000000e+00 9.0000000e+00 
4.5000000e+00 0.0000000e+00 1.2000000e+01 
4.5000000e+00 0.0000000e+00 1.5000000e+01 
4.5000000e+00 0.0000000e+00 1.8000000e+01 
5.0000000e+00 0.0000000e+00 3.0000000e+00 
5.0000000e+00 0.0000000e+00 6.0000000e+00 
5.0000000e+00 0.0000000e+00 9.0000000e+00 
5.0000000e+00 0.0000000e+00 1.2000000e+01 
5.0000000e+00 0.0000000e+00 1.5000000e+01 
5.0000000e+00 0.0000000e+00 1.8000000e+01 
5.5000000e+00 0.0000000e+00 3.0000000e+00 
5.5000000e+00 0.0000000e+00 6.0000000e+00 
5.5000000e+00 0.0000000e+00 9.0000000e+00 
5.5000000e+00 0.0000000e+00 1.2000000e+01 
5.5000000e+00 0.0000000e+00 1.5000000e+01 
5.5000000e+00 0.0000000e+00 1.8000000e+01 
6.0000000e+00 0.0000000e+00 0.0000000e+00 
6.0000000e+00 0.0000000e+00 2.5000000e-01 
6.0000000e+00 0.0000000e+00 5.0000000e-01 
6.0000000e+00 0.0000000e+00 7.5000000e-01 
6.0000000e+00 0.0000000e+00 1.0000000e+00 
6.0000000e+00 0.0000000e+00 1.2500000e+00 
6.0000000e+00 0.0000000e+00 1.5000000e+00 
6.0000000e+00 0.0000000e+00 1.7500000e+00 
6.0000000e+00 0.0000000e+00 2.0000000e+00 
6.0000000e+00 0.0000000e+00 2.2500000e+00 
6.0000000e+00 0.0000000e+00 2.5000000e+00 
6.0000000e+00 0.0000000e+00 2.7500000e+00 
6.0000000e+00 0.0000000e+00 3.0000000e+00 
6.0000000e+00 0.0000000e+00 3.2500000e+00 
6.0000000e+00 0.0000000e+00 3.5000000e+00 
6.0000000e+00 0.0000000e+00 3.7500000e+00 
6.0000000e+00 0.0000000e+00 4.0000000e+00 
6.0000000e+00 0.0000000e+00 4.2500000e+00 
6.0000000e+00 0.0000000e+00 4.5000000e+00 
6.0000000e+00 0.0000000e+00 4.7500000e+00 
6.0000000e+00 0.0000000e+00 5.0000000e+00 
6.0000000e+00 0.0000000e+00 5.2500000e+00 
6.0000000e+00 0.0000000e+00 5.5000000e+00 
6.0000000e+00 0.0000000e+00 5.7500000e+00 
6.0000000e+00 0.0000000e+00 6.0000000e+00 
6.0000000e+00 0.0000000e+00 6.2500000e+00 
6.0000000e+00 0.0000000e+00 6.5000000e+00 
6.0000000e+00 0.0000000e+00 6.7500000e+00 
6.0000000e+00 0.0000000e+00 7.0000000e+00 
6.0000000e+00 0.0000000e+00 7.2500000e+00 
6.0000000e+00 0.0000000e+00 7.5000000e+00 
6.0000000e+00 0.0000000e+00 7.7500000e+00 
6.0000000e+00 0.0000000e+00 8.0000000e+00 
6.0000000e+00 0.0000000e+00 8.2500000e+00 
6.0000000e+00 0.0000000e+00 8.5000000e+00 
6.0000000e+00 0.0000000e+00 8.7500000e+00 
6.0000000e+00 0.0000000e+00 9.0000000e+00 
6.0000000e+00 0.0000000e+00 9.2500000e+00 
6.0000000e+00 0.0000000e+00 9.5000000e+00 
6.0000000e+00 0.0000000e+00 9.7500000e+00 
6.0000000e+00 0.0000000e+00 1.0000000e+01 
6.0000000e+00 0.0000000e+00 1.0250000e+01 
6.0000000e+00 0.0000000e+00 1.0500000e+01 
6.0000000e+00 0.0000000e+00 1.0750000e+01 
6.0000000e+00 0.0000000e+00 1.1000000e+01 
6.0000000e+00 0.0000000e+00 1.1250000e+01 
6.0000000e+00 0.0000000e+00 1.1500000e+01 
6.0000000e+00 0.0000000e+00 1.1750000e+01 
6.0000000e+00 0.0000000e+00 1.2000000e+01 
6.0000000e+00 0.0000000e+00 1.2250000e+01 
6.0000000e+00 0.0000000e+00 1.2500000e+01 
6.0000000e+00 0.0000000e+00 1.2750000e+01 
6.0000000e+00 0.0000000e+00 1.3000000e+01 
6.0000000e+00 0.0000000e+00 1.3250000e+01 
6.0000000e+00 0.0000000e+00 1.3500000e+01 
6.0000000e+00 0.0000000e+00 1.3750000e+01 
6.0000000e+00 0.0000000e+00 1.4000000e+01 
6.0000000e+00 0.0000000e+00 1.4250000e+01 
6.0000000e+00 0.0000000e+00 1.4500000e+01 
6.0000000e+00 0.0000000e+00 1.4750000e+01 
6.0000000e+00 0.0000000e+00 1.5000000e+01 
6.0000000e+00 0.0000000e+00 1.5250000e+01 
6.0000000e+00 0.0000000e+00 1.5500000e+01 
6.0000000e+00 0.0000000e+00 1.5750000e+01 
6.0000000e+00 0.0000000e+00 1.6000000e+01 
6.0000000e+00 0.0000000e+00 1.6250000e+01 
6.0000000e+00 0.0000000e+00 1.6500000e+01 
6.0000000e+00 0.0000000e+00 1.6750000e+01 
6.0000000e+00 0.0000000e+00 1.7000000e+01 
6.0000000e+00 0.0000000e+00 1.7250000e+01 
6.0000000e+00 0.0000000e+00 1.7500000e+01 
6.0000000e+00 0.0000000e+00 1.7750000e+01 
6.0000000e+00 0.0000000e+00 1.8000000e+01 

CELLS 216 648
2 0 1
2 1 2
2 2 3
2 3 4
2 4 5
2 5 6
2 6 7
2 7 8
2 8 9
2 9 10
2 10 11
2 11 12
2 12 13
2 13 14
2 14 15
2 15 16
2 16 17
2 17 18
2 18 19
2 19 20
2 20 21
2 21 22
2 22 23
2 23 24
2 24 25
2 25 26
2 26 27
2 27 28
2 28 29
2 29 30
2 30 31
2 31 32
2 32 33
2 33 34
2 34 35
2 35 36
2 36 37
2 37 38
2 38 39
2 39 40
2 40 41
2 41 42
2 42 43
2 43 44
2 44 45
2 45 46
2 46 47
2 47 48
2 48 49
2 49 50
2 50 51
2 51 52
2 52 53
2 53 54
2 54 55
2 55 56
2 56 57
2 57 58
2 58 59
2 59 60
2 60 61
2 61 62
2 62 63
2 63 64
2 64 65
2 65 66
2 66 67
2 67 68
2 68 69
2 69 70
2 70 71
2 71 72
2 139 140
2 140 141
2 141 142
2 142 143
2 143 144
2 144 145
2 145 146
2 146 147
2 147 148
2 148 149
2 149 150
2 150 151
2 151 152
2 152 153
2 153 154
2 154 155
2 155 156
2 156 157
2 157 158
2 158 159
2 159 160
2 160 161
2 161 162
2 162 163
2 163 164
2 164 165
2 165 166
2 166 167
2 167 168
2 168 169
2 169 170
2 170 171
2 171 172
2 172 173
2 173 174
2 174 175
2 175 176
2 176 177
2 177 178
2 178 179
2 179 180
2 180 181
2 181 182
2 182 183
2 183 184
2 184 185
2 185 186
2 186 187
2 187 188
2 188 189
2 189 190
2 190 191
2 191 192
2 192 193
2 193 194
2 194 195
2 195 196
2 196 197
2 197 198
2 198 199
2 199 200
2 200 201
2 201 202
2 202 203
2 203 204
2 204 205
2 205 206
2 206 207
2 207 208
2 208 209
2 209 210
2 210 211
2 12 73
2 73 79
2 79 85
2 85 91
2 91 97
2 97 103
2 103 109
2 109 115
2 115 121
2 121 127
2 127 133
2 133 151
2 24 74
2 74 80
2 80 86
2 86 92
2 92 98
2 98 104
2 104 110
2 110 116
2 116 122
2 122 128
2 128 134
2 134 163
2 36 75
2 75 81
2 81 87
2 87 93
2 93 99
2 99 105
2 105 111
2 111 117
2 117 123
2 123 129
2 129 135
2 135 175
2 48 76
2 76 82
2 82 88
2 88 94
2 94 100
2 100 106
2 106 112
2 112 118
2 118 124
2 124 130
2 130 136
2 136 187
2 60 77
2 77 83
2 83 89
2 89 95
2 95 101
2 101 107
2 107 113
2 113 119
2 119 125
2 125 131
2 131 137
2 137 199
2 72 78
2 78 84
2 84 90
2 90 96
2 96 102
2 102 108
2 108 114
2 114 120
2 120 126
2 126 132
2 132 138
2 138 211

CELL_TYPES 216
3
3
3
3
3
3
3
3
3
3
3
3
3
3
3
3
3
3
3
3
3
3
3
3
3
3
3
3
3
3
3
3
3
3
3
3
3
3
3
3
3
3
3
3
3
3
3
3
3
3
3
3
3
3
3
3
3
3
3
3
3
3
3
3
3
3
3
3
3
3
3
3
3
3
3
3
3
3
3
3
3
3
3
3
3
3
3
3
3
3
3
3
3
3
3
3
3
3
3
3
3
3
3
3
3
3
3
3
3
3
3
3
3
3
3
3
3
3
3
3
3
3
3
3
3
3
3
3
3
3
3
3
3
3
3
3
3
3
3
3
3
3
3
3
3
3
3
3
3
3
3
3
3
3
3
3
3
3
3
3
3
3
3
3
3
3
3
3
3
3
3
3
3
3
3
3
3
3
3
3
3
3
3
3
3
3
3
3
3
3
3
3
3
3
3
3
3
3
3
3
3
3
3
3
3
3
3
3
3
3
3
3
3
3
3
3
POINT_DATA 212
FIELD FieldData 8
DISPLACEMENT 3 212  float
0.0000000e+00 0.0000000e+00 0.0000000e+00 
-1.1330912e-05 0.0000000e+00 -1.1052357e-05 
-2.2195882e-05 0.0000000e+00 -2.2028284e-05 
-3.2128974e-05 0.0000000e+00 -3.2927779e-05 
-4.0664239e-05 0.0000000e+00 -4.3750842e-05 
-4.7335743e-05 0.0000000e+00 -5.4497476e-05 
-5.1677547e-05 0.0000000e+00 -6.5167682e-05 
-5.3223703e-05 0.0000000e+00 -7.5761454e-05 
-5.1508276e-05 0.0000000e+00 -8.6278793e-05 
-4.6065321e-05 0.0000000e+00 -9.6719705e-05 
-3.6428904e-05 0.0000000e+00 -1.0708418e-04 
-2.2133077e-05 0.0000000e+00 -1.1737223e-04 
-2.7119031e-06 0.0000000e+00 -1.2758384e-04 
1.4849921e-05 0.0000000e+00 -1.3678777e-04 
2.4259063e-05 0.0000000e+00 -1.4591527e-04 
2.7018510e-05 0.0000000e+00 -1.5496634e-04 
2.4631248e-05 0.0000000e+00 -1.6394097e-04 
1.8600267e-05 0.0000000e+00 -1.7283918e-04 
1.0428551e-05 0.0000000e+00 -1.8166096e-04 
1.6190882e-06 0.0000000e+00 -1.9040630e-04 
-6.3251346e-06 0.0000000e+00 -1.9907521e-04 
-1.1901130e-05 0.0000000e+00 -2.0766769e-04 
-1.3605912e-05 0.0000000e+00 -2.1618375e-04 
-9.9364925e-06 0.0000000e+00 -2.2462336e-04 
6.1011559e-07 0.0000000e+00 -2.3298655e-04 
1.1555661e-05 0.0000000e+00 -2.4034205e-04 
1.6266353e-05 0.0000000e+00 -2.4762112e-04 
1.6011867e-05 0.0000000e+00 -2.5482377e-04 
1.2061880e-05 0.0000000e+00 -2.6194996e-04 
5.6860649e-06 0.0000000e+00 -2.6899975e-04 
-1.8459012e-06 0.0000000e+00 -2.7597309e-04 
-9.2643431e-06 0.0000000e+00 -2.8286999e-04 
-1.5299585e-05 0.0000000e+00 -2.8969048e-04 
-1.8681952e-05 0.0000000e+00 -2.9643453e-04 
-1.8141767e-05 0.0000000e+00 -3.0310216e-04 
-1.2409358e-05 0.0000000e+00 -3.0969337e-04 
-2.1504452e-07 0.0000000e+00 -3.1620811e-04 
1.1838962e-05 0.0000000e+00 -3.2171520e-04 
1.7205275e-05 0.0000000e+00 -3.2714583e-04 
1.7235805e-05 0.0000000e+00 -3.3250003e-04 
1.3282462e-05 0.0000000e+00 -3.3777780e-04 
6.6971552e-06 0.0000000e+00 -3.4297915e-04 
-1.1682052e-06 0.0000000e+00 -3.4810408e-04 
-8.9617097e-06 0.0000000e+00 -3.5315257e-04 
-1.5331449e-05 0.0000000e+00 -3.5812461e-04 
-1.8925512e-05 0.0000000e+00 -3.6302023e-04 
-1.8391989e-05 0.0000000e+00 -3.6783944e-04 
-1.2378973e-05 0.0000000e+00 -3.7258220e-04 
4.6544793e-07 0.0000000e+00 -3.7724854e-04 
1.3613857e-05 0.0000000e+00 -3.8090718e-04 
2.0420175e-05 0.0000000e+00 -3.8448939e-04 
2.2058324e-05 0.0000000e+00 -3.8799515e-04 
1.9702224e-05 0.0000000e+00 -3.9142452e-04 
1.4525793e-05 0.0000000e+00 -3.9477742e-04 
7.7029517e-06 0.0000000e+00 -3.9805390e-04 
4.0762052e-07 0.0000000e+00 -4.0125399e-04 
-6.1862806e-06 0.0000000e+00 -4.0437761e-04 
-1.0904831e-05 0.0000000e+00 -4.0742478e-04 
-1.2574113e-05 0.0000000e+00 -4.1039556e-04 
-1.0020204e-05 0.0000000e+00 -4.1328990e-04 
-2.0691864e-06 0.0000000e+00 -4.1610780e-04 
4.4988324e-06 0.0000000e+00 -4.1791803e-04 
3.4312545e-06 0.0000000e+00 -4.1965180e-04 
-3.3067317e-06 0.0000000e+00 -4.2130915e-04 
-1.3749938e-05 0.0000000e+00 -4.2289007e-04 
-2.5933177e-05 0.0000000e+00 -4.2439456e-04 
-3.7891263e-05 0.0000000e+00 -4.2582263e-04 
-4.7659003e-05 0.0000000e+00 -4.2717424e-04 
-5.3271215e-05 0.0000000e+00 -4.2844945e-04 
-5.2762705e-05 0.0000000e+00 -4.2964821e-04 
-4.4168290e-05 0.0000000e+00 -4.3077054e-04 
-2.5522777e-05 0.0000000e+00 -4.3181644e-04 
5.1390175e-06 0.0000000e+00 -4.3278592e-04 
-2.2599193e-06 0.0000000e+00 -1.9689920e-04 
5.0842965e-07 0.0000000e+00 -2.8827146e-04 
-1.7920377e-07 0.0000000e+00 -3.7399057e-04 
3.8787326e-07 0.0000000e+00 -4.3661179e-04 
-1.7243220e-06 0.0000000e+00 -4.6507630e-04 
4.2825145e-06 0.0000000e+00 -5.2994199e-04 
-1.8079355e-06 0.0000000e+00 -2.9634597e-04 
4.0674374e-07 0.0000000e+00 -3.7623878e-04 
-1.4336301e-07 0.0000000e+00 -4.6400132e-04 
3.1029862e-07 0.0000000e+00 -5.2791595e-04 
-1.3794576e-06 0.0000000e+00 -5.4787565e-04 
3.4260117e-06 0.0000000e+00 -6.5216748e-04 
-1.3559516e-06 0.0000000e+00 -4.0028361e-04 
3.0505780e-07 0.0000000e+00 -4.7124800e-04 
-1.0752226e-07 0.0000000e+00 -5.6059984e-04 
2.3272396e-07 0.0000000e+00 -6.2552048e-04 
-1.0345932e-06 0.0000000e+00 -6.3886528e-04 
2.5695088e-06 0.0000000e+00 -7.7382196e-04 
-9.0396776e-07 0.0000000e+00 -4.8876955e-04 
2.0337187e-07 0.0000000e+00 -5.5335643e-04 
-7.1681505e-08 0.0000000e+00 -6.4384355e-04 
1.5514931e-07 0.0000000e+00 -7.0948276e-04 
-6.8972878e-07 0.0000000e+00 -7.1810267e-04 
1.7130059e-06 0.0000000e+00 -8.7496272e-04 
-4.5198388e-07 0.0000000e+00 -5.4755900e-04 
1.0168593e-07 0.0000000e+00 -6.0831942e-04 
-3.5840753e-08 0.0000000e+00 -6.9948763e-04 
7.7574654e-08 0.0000000e+00 -7.6555798e-04 
-3.4486439e-07 0.0000000e+00 -7.7134295e-04 
8.5650294e-07 0.0000000e+00 -9.4134512e-04 
6.1196548e-16 0.0000000e+00 -5.6810514e-04 
1.0040325e-15 0.0000000e+00 -6.2759005e-04 
1.3481625e-15 0.0000000e+00 -7.1898533e-04 
1.6365163e-15 0.0000000e+00 -7.8519940e-04 
1.8243084e-15 0.0000000e+00 -7.9003937e-04 
1.9186918e-15 0.0000000e+00 -9.6442219e-04 
4.5198388e-07 0.0000000e+00 -5.4755900e-04 
-1.0168593e-07 0.0000000e+00 -6.0831942e-04 
3.5840756e-08 0.0000000e+00 -6.9948763e-04 
-7.7574647e-08 0.0000000e+00 -7.6555798e-04 
3.4486439e-07 0.0000000e+00 -7.7134295e-04 
-8.5650294e-07 0.0000000e+00 -9.4134512e-04 
9.0396776e-07 0.0000000e+00 -4.8876955e-04 
-2.0337187e-07 0.0000000e+00 -5.5335643e-04 
7.1681512e-08 0.0000000e+00 -6.4384355e-04 
-1.5514931e-07 0.0000000e+00 -7.0948276e-04 
6.8972878e-07 0.0000000e+00 -7.1810267e-04 
-1.7130059e-06 0.0000000e+00 -8.7496272e-04 
1.3559516e-06 0.0000000e+00 -4.0028361e-04 
-3.0505780e-07 0.0000000e+00 -4.7124800e-04 
1.0752227e-07 0.0000000e+00 -5.6059984e-04 
-2.3272395e-07 0.0000000e+00 -6.2552048e-04 
1.0345932e-06 0.0000000e+00 -6.3886528e-04 
-2.5695088e-06 0.0000000e+00 -7.7382196e-04 
1.8079355e-06 0.0000000e+00 -2.9634597e-04 
-4.0674374e-07 0.0000000e+00 -3.7623878e-04 
1.4336302e-07 0.0000000e+00 -4.6400132e-04 
-3.1029862e-07 0.0000000e+00 -5.2791595e-04 
1.3794576e-06 0.0000000e+00 -5.4787565e-04 
-3.4260117e-06 0.0000000e+00 -6.5216748e-04 
2.2599193e-06 0.0000000e+00 -1.9689920e-04 
-5.0842965e-07 0.0000000e+00 -2.8827146e-04 
1.7920378e-07 0.0000000e+00 -3.7399057e-04 
-3.8787326e-07 0.0000000e+00 -4.3661179e-04 
1.7243220e-06 0.0000000e+00 -4.6507630e-04 
-4.2825145e-06 0.0000000e+00 -5.2994199e-04 
0.0000000e+00 0.0000000e+00 0.0000000e+00 
1.1330912e-05 0.0000000e+00 -1.1052357e-05 
2.2195882e-05 0.0000000e+00 -2.2028284e-05 
3.2128974e-05 0.0000000e+00 -3.2927779e-05 
4.0664239e-05 0.0000000e+00 -4.3750842e-05 
4.7335743e-05 0.0000000e+00 -5.4497476e-05 
5.1677547e-05 0.0000000e+00 -6.5167682e-05 
5.3223703e-05 0.0000000e+00 -7.5761454e-05 
5.1508276e-05 0.0000000e+00 -8.6278793e-05 
4.6065321e-05 0.0000000e+00 -9.6719705e-05 
3.6428904e-05 0.0000000e+00 -1.0708418e-04 
2.2133077e-05 0.0000000e+00 -1.1737223e-04 
2.7119031e-06 0.0000000e+00 -1.2758384e-04 
-1.4849921e-05 0.0000000e+00 -1.3678777e-04 
-2.4259063e-05 0.0000000e+00 -1.4591527e-04 
-2.7018510e-05 0.0000000e+00 -1.5496634e-04 
-2.4631248e-05 0.0000000e+00 -1.6394097e-04 
-1.8600267e-05 0.0000000e+00 -1.7283918e-04 
-1.0428551e-05 0.0000000e+00 -1.8166096e-04 
-1.6190882e-06 0.0000000e+00 -1.9040630e-04 
6.3251346e-06 0.0000000e+00 -1.9907521e-04 
1.1901130e-05 0.0000000e+00 -2.0766769e-04 
1.3605912e-05 0.0000000e+00 -2.1618375e-04 
9.9364925e-06 0.0000000e+00 -2.2462336e-04 
-6.1011559e-07 0.0000000e+00 -2.3298655e-04 
-1.1555661e-05 0.0000000e+00 -2.4034205e-04 
-1.6266353e-05 0.0000000e+00 -2.4762112e-04 
-1.6011867e-05 0.0000000e+00 -2.5482377e-04 
-1.2061880e-05 0.0000000e+00 -2.6194996e-04 
-5.6860649e-06 0.0000000e+00 -2.6899975e-04 
1.8459012e-06 0.0000000e+00 -2.7597309e-04 
9.2643431e-06 0.0000000e+00 -2.8286999e-04 
1.5299585e-05 0.0000000e+00 -2.8969048e-04 
1.8681952e-05 0.0000000e+00 -2.9643453e-04 
1.8141767e-05 0.0000000e+00 -3.0310216e-04 
1.2409358e-05 0.0000000e+00 -3.0969337e-04 
2.1504452e-07 0.0000000e+00 -3.1620811e-04 
-1.1838962e-05 0.0000000e+00 -3.2171520e-04 
-1.7205275e-05 0.0000000e+00 -3.2714583e-04 
-1.7235805e-05 0.0000000e+00 -3.3250003e-04 
-1.3282462e-05 0.0000000e+00 -3.3777780e-04 
-6.6971552e-06 0.0000000e+00 -3.4297915e-04 
1.1682052e-06 0.0000000e+00 -3.4810408e-04 
8.9617097e-06 0.0000000e+00 -3.5315257e-04 
1.5331449e-05 0.0000000e+00 -3.5812461e-04 
1.8925512e-05 0.0000000e+00 -3.6302023e-04 
1.8391989e-05 0.0000000e+00 -3.6783944e-04 
1.2378973e-05 0.0000000e+00 -3.7258220e-04 
-4.6544790e-07 0.0000000e+00 -3.7724854e-04 
-1.3613857e-05 0.0000000e+00 -3.8090718e-04 
-2.0420175e-05 0.0000000e+00 -3.8448939e-04 
-2.2058324e-05 0.0000000e+00 -3.8799515e-04 
-1.9702224e-05 0.0000000e+00 -3.9142452e-04 
-1.4525793e-05 0.0000000e+00 -3.9477742e-04 
-7.7029517e-06 0.0000000e+00 -3.9805390e-04 
-4.0762052e-07 0.0000000e+00 -4.0125399e-04 
6.1862806e-06 0.0000000e+00 -4.0437761e-04 
1.0904831e-05 0.0000000e+00 -4.0742478e-04 
1.2574113e-05 0.0000000e+00 -4.1039556e-04 
1.0020204e-05 0.0000000e+00 -4.1328990e-04 
2.0691864e-06 0.0000000e+00 -4.1610780e-04 
-4.4988324e-06 0.0000000e+00 -4.1791803e-04 
-3.4312545e-06 0.0000000e+00 -4.1965180e-04 
3.3067317e-06 0.0000000e+00 -4.2130915e-04 
1.3749938e-05 0.0000000e+00 -4.2289007e-04 
2.5933177e-05 0.0000000e+00 -4.2439456e-04 
3.7891263e-05 0.0000000e+00 -4.2582263e-04 
4.7659003e-05 0.0000000e+00 -4.2717424e-04 
5.3271215e-05 0.0000000e+00 -4.2844945e-04 
5.2762705e-05 0.0000000e+00 -4.2964821e-04 
4.4168290e-05 0.0000000e+00 -4.3077054e-04 
2.5522777e-05 0.0000000e+00 -4.3181644e-04 
-5.1390175e-06 0.0000000e+00 -4.3278592e-04 
ROTATION 3 212  float
0.0000000e+00 -4.5634275e-05 0.0000000e+00 
0.0000000e+00 -4.4702392e-05 0.0000000e+00 
0.0000000e+00 -4.1906747e-05 0.0000000e+00 
0.0000000e+00 -3.7247341e-05 0.0000000e+00 
0.0000000e+00 -3.0724172e-05 0.0000000e+00 
0.0000000e+00 -2.2337239e-05 0.0000000e+00 
0.0000000e+00 -1.2086544e-05 0.0000000e+00 
0.0000000e+00 2.7913636e-08 0.0000000e+00 
0.0000000e+00 1.4006134e-05 0.0000000e+00 
0.0000000e+00 2.9848117e-05 0.0000000e+00 
0.0000000e+00 4.7553862e-05 0.0000000e+00 
0.0000000e+00 6.7123372e-05 0.0000000e+00 
0.0000000e+00 8.8556641e-05 0.0000000e+00 
0.0000000e+00 5.2939940e-05 0.0000000e+00 
0.0000000e+00 2.3335188e-05 0.0000000e+00 
0.0000000e+00 -2.5761932e-07 0.0000000e+00 
0.0000000e+00 -1.7838478e-05 0.0000000e+00 
0.0000000e+00 -2.9407387e-05 0.0000000e+00 
0.0000000e+00 -3.4964349e-05 0.0000000e+00 
0.0000000e+00 -3.4509361e-05 0.0000000e+00 
0.0000000e+00 -2.8042428e-05 0.0000000e+00 
0.0000000e+00 -1.5563546e-05 0.0000000e+00 
0.0000000e+00 2.9272849e-06 0.0000000e+00 
0.0000000e+00 2.7430064e-05 0.0000000e+00 
0.0000000e+00 5.7944791e-05 0.0000000e+00 
0.0000000e+00 3.0466026e-05 0.0000000e+00 
0.0000000e+00 8.0659629e-06 0.0000000e+00 
0.0000000e+00 -9.2553983e-06 0.0000000e+00 
0.0000000e+00 -2.1498056e-05 0.0000000e+00 
0.0000000e+00 -2.8662012e-05 0.0000000e+00 
0.0000000e+00 -3.0747266e-05 0.0000000e+00 
0.0000000e+00 -2.7753818e-05 0.0000000e+00 
0.0000000e+00 -1.9681667e-05 0.0000000e+00 
0.0000000e+00 -6.5308154e-06 0.0000000e+00 
0.0000000e+00 1.1698739e-05 0.0000000e+00 
0.0000000e+00 3.5006997e-05 0.0000000e+00 
0.0000000e+00 6.3393956e-05 0.0000000e+00 
0.0000000e+00 3.3939366e-05 0.0000000e+00 
0.0000000e+00 9.8924138e-06 0.0000000e+00 
0.0000000e+00 -8.7468989e-06 0.0000000e+00 
0.0000000e+00 -2.1978572e-05 0.0000000e+00 
0.0000000e+00 -2.9802608e-05 0.0000000e+00 
0.0000000e+00 -3.2219003e-05 0.0000000e+00 
0.0000000e+00 -2.9227760e-05 0.0000000e+00 
0.0000000e+00 -2.0828877e-05 0.0000000e+00 
0.0000000e+00 -7.0223564e-06 0.0000000e+00 
0.0000000e+00 1.2191804e-05 0.0000000e+00 
0.0000000e+00 3.6813602e-05 0.0000000e+00 
0.0000000e+00 6.6843044e-05 0.0000000e+00 
0.0000000e+00 3.9126840e-05 0.0000000e+00 
0.0000000e+00 1.6106322e-05 0.0000000e+00 
0.0000000e+00 -2.2185175e-06 0.0000000e+00 
0.0000000e+00 -1.5847678e-05 0.0000000e+00 
0.0000000e+00 -2.4781157e-05 0.0000000e+00 
0.0000000e+00 -2.9018956e-05 0.0000000e+00 
0.0000000e+00 -2.8561077e-05 0.0000000e+00 
0.0000000e+00 -2.3407518e-05 0.0000000e+00 
0.0000000e+00 -1.3558279e-05 0.0000000e+00 
0.0000000e+00 9.8664088e-07 0.0000000e+00 
0.0000000e+00 2.0227240e-05 0.0000000e+00 
0.0000000e+00 4.4163520e-05 0.0000000e+00 
0.0000000e+00 9.6907570e-06 0.0000000e+00 
0.0000000e+00 -1.6921253e-05 0.0000000e+00 
0.0000000e+00 -3.5672510e-05 0.0000000e+00 
0.0000000e+00 -4.6563018e-05 0.0000000e+00 
0.0000000e+00 -4.9592774e-05 0.0000000e+00 
0.0000000e+00 -4.4761775e-05 0.0000000e+00 
0.0000000e+00 -3.2070027e-05 0.0000000e+00 
0.0000000e+00 -1.1517526e-05 0.0000000e+00 
0.0000000e+00 1.6895725e-05 0.0000000e+00 
0.0000000e+00 5.3169730e-05 0.0000000e+00 
0.0000000e+00 9.7304488e-05 0.0000000e+00 
0.0000000e+00 1.4929999e-04 0.0000000e+00 
0.0000000e+00 1.7825860e-04 0.0000000e+00 
0.0000000e+00 1.5274872e-04 0.0000000e+00 
0.0000000e+00 1.5728969e-04 0.0000000e+00 
0.0000000e+00 1.6016394e-04 0.0000000e+00 
0.0000000e+00 1.4126433e-04 0.0000000e+00 
0.0000000e+00 2.2887805e-04 0.0000000e+00 
0.0000000e+00 2.1098161e-04 0.0000000e+00 
0.0000000e+00 1.9057372e-04 0.0000000e+00 
0.0000000e+00 1.9420648e-04 0.0000000e+00 
0.0000000e+00 1.9650588e-04 0.0000000e+00 
0.0000000e+00 1.8138620e-04 0.0000000e+00 
0.0000000e+00 2.5147718e-04 0.0000000e+00 
0.0000000e+00 1.9812147e-04 0.0000000e+00 
0.0000000e+00 1.8281555e-04 0.0000000e+00 
0.0000000e+00 1.8554012e-04 0.0000000e+00 
0.0000000e+00 1.8726467e-04 0.0000000e+00 
0.0000000e+00 1.7592491e-04 0.0000000e+00 
0.0000000e+00 2.2849314e-04 0.0000000e+00 
0.0000000e+00 1.5107397e-04 0.0000000e+00 
0.0000000e+00 1.4087000e-04 0.0000000e+00 
0.0000000e+00 1.4268640e-04 0.0000000e+00 
0.0000000e+00 1.4383609e-04 0.0000000e+00 
0.0000000e+00 1.3627626e-04 0.0000000e+00 
0.0000000e+00 1.7132175e-04 0.0000000e+00 
0.0000000e+00 8.1234874e-05 0.0000000e+00 
0.0000000e+00 7.6132899e-05 0.0000000e+00 
0.0000000e+00 7.7041092e-05 0.0000000e+00 
0.0000000e+00 7.7615943e-05 0.0000000e+00 
0.0000000e+00 7.3836025e-05 0.0000000e+00 
0.0000000e+00 9.1358765e-05 0.0000000e+00 
0.0000000e+00 -5.4583280e-17 0.0000000e+00 
0.0000000e+00 -3.9179410e-17 0.0000000e+00 
0.0000000e+00 -3.7505074e-17 0.0000000e+00 
0.0000000e+00 -1.5403870e-17 0.0000000e+00 
0.0000000e+00 -2.6789340e-18 0.0000000e+00 
0.0000000e+00 1.1882481e-17 0.0000000e+00 
0.0000000e+00 -8.1234874e-05 0.0000000e+00 
0.0000000e+00 -7.6132899e-05 0.0000000e+00 
0.0000000e+00 -7.7041092e-05 0.0000000e+00 
0.0000000e+00 -7.7615943e-05 0.0000000e+00 
0.0000000e+00 -7.3836025e-05 0.0000000e+00 
0.0000000e+00 -9.1358765e-05 0.0000000e+00 
0.0000000e+00 -1.5107397e-04 0.0000000e+00 
0.0000000e+00 -1.4087000e-04 0.0000000e+00 
0.0000000e+00 -1.4268640e-04 0.0000000e+00 
0.0000000e+00 -1.4383609e-04 0.0000000e+00 
0.0000000e+00 -1.3627626e-04 0.0000000e+00 
0.0000000e+00 -1.7132175e-04 0.0000000e+00 
0.0000000e+00 -1.9812147e-04 0.0000000e+00 
0.0000000e+00 -1.8281555e-04 0.0000000e+00 
0.0000000e+00 -1.8554012e-04 0.0000000e+00 
0.0000000e+00 -1.8726467e-04 0.0000000e+00 
0.0000000e+00 -1.7592491e-04 0.0000000e+00 
0.0000000e+00 -2.2849314e-04 0.0000000e+00 
0.0000000e+00 -2.1098161e-04 0.0000000e+00 
0.0000000e+00 -1.9057372e-04 0.0000000e+00 
0.0000000e+00 -1.9420648e-04 0.0000000e+00 
0.0000000e+00 -1.9650588e-04 0.0000000e+00 
0.0000000e+00 -1.8138620e-04 0.0000000e+00 
0.0000000e+00 -2.5147718e-04 0.0000000e+00 
0.0000000e+00 -1.7825860e-04 0.0000000e+00 
0.0000000e+00 -1.5274872e-04 0.0000000e+00 
0.0000000e+00 -1.5728969e-04 0.0000000e+00 
0.0000000e+00 -1.6016394e-04 0.0000000e+00 
0.0000000e+00 -1.4126433e-04 0.0000000e+00 
0.0000000e+00 -2.2887805e-04 0.0000000e+00 
0.0000000e+00 4.5634275e-05 0.0000000e+00 
0.0000000e+00 4.4702392e-05 0.0000000e+00 
0.0000000e+00 4.1906747e-05 0.0000000e+00 
0.0000000e+00 3.7247341e-05 0.0000000e+00 
0.0000000e+00 3.0724172e-05 0.0000000e+00 
0.0000000e+00 2.2337239e-05 0.0000000e+00 
0.0000000e+00 1.2086544e-05 0.0000000e+00 
0.0000000e+00 -2.7913636e-08 0.0000000e+00 
0.0000000e+00 -1.4006134e-05 0.0000000e+00 
0.0000000e+00 -2.9848117e-05 0.0000000e+00 
0.0000000e+00 -4.7553862e-05 0.0000000e+00 
0.0000000e+00 -6.7123372e-05 0.0000000e+00 
0.0000000e+00 -8.8556641e-05 0.0000000e+00 
0.0000000e+00 -5.2939940e-05 0.0000000e+00 
0.0000000e+00 -2.3335188e-05 0.0000000e+00 
0.0000000e+00 2.5761932e-07 0.0000000e+00 
0.0000000e+00 1.7838478e-05 0.0000000e+00 
0.0000000e+00 2.9407387e-05 0.0000000e+00 
0.0000000e+00 3.4964349e-05 0.0000000e+00 
0.0000000e+00 3.4509361e-05 0.0000000e+00 
0.0000000e+00 2.8042428e-05 0.0000000e+00 
0.0000000e+00 1.5563546e-05 0.0000000e+00 
0.0000000e+00 -2.9272849e-06 0.0000000e+00 
0.0000000e+00 -2.7430064e-05 0.0000000e+00 
0.0000000e+00 -5.7944791e-05 0.0000000e+00 
0.0000000e+00 -3.0466026e-05 0.0000000e+00 
0.0000000e+00 -8.0659629e-06 0.0000000e+00 
0.0000000e+00 9.2553983e-06 0.0000000e+00 
0.0000000e+00 2.1498056e-05 0.0000000e+00 
0.0000000e+00 2.8662012e-05 0.0000000e+00 
0.0000000e+00 3.0747266e-05 0.0000000e+00 
0.0000000e+00 2.7753818e-05 0.0000000e+00 
0.0000000e+00 1.9681667e-05 0.0000000e+00 
0.0000000e+00 6.5308154e-06 0.0000000e+00 
0.0000000e+00 -1.1698739e-05 0.0000000e+00 
0.0000000e+00 -3.5006997e-05 0.0000000e+00 
0.0000000e+00 -6.3393956e-05 0.0000000e+00 
0.0000000e+00 -3.3939366e-05 0.0000000e+00 
0.0000000e+00 -9.8924138e-06 0.0000000e+00 
0.0000000e+00 8.7468989e-06 0.0000000e+00 
0.0000000e+00 2.1978572e-05 0.0000000e+00 
0.0000000e+00 2.9802608e-05 0.0000000e+00 
0.0000000e+00 3.2219003e-05 0.0000000e+00 
0.0000000e+00 2.9227760e-05 0.0000000e+00 
0.0000000e+00 2.0828877e-05 0.0000000e+00 
0.0000000e+00 7.0223564e-06 0.0000000e+00 
0.0000000e+00 -1.2191804e-05 0.0000000e+00 
0.0000000e+00 -3.6813602e-05 0.0000000e+00 
0.0000000e+00 -6.6843044e-05 0.0000000e+00 
0.0000000e+00 -3.9126840e-05 0.0000000e+00 
0.0000000e+00 -1.6106322e-05 0.0000000e+00 
0.0000000e+00 2.2185175e-06 0.0000000e+00 
0.0000000e+00 1.5847678e-05 0.0000000e+00 
0.0000000e+00 2.4781157e-05 0.0000000e+00 
0.0000000e+00 2.9018956e-05 0.0000000e+00 
0.0000000e+00 2.8561077e-05 0.0000000e+00 
0.0000000e+00 2.3407518e-05 0.0000000e+00 
0.0000000e+00 1.3558279e-05 0.0000000e+00 
0.0000000e+00 -9.8664088e-07 0.0000000e+00 
0.0000000e+00 -2.0227240e-05 0.0000000e+00 
0.0000000e+00 -4.4163520e-05 0.0000000e+00 
0.0000000e+00 -9.6907570e-06 0.0000000e+00 
0.0000000e+00 1.6921253e-05 0.0000000e+00 
0.0000000e+00 3.5672510e-05 0.0000000e+00 
0.0000000e+00 4.6563018e-05 0.0000000e+00 