# vtk DataFile Version 4.0
vtk output
ASCII
DATASET UNSTRUCTURED_GRID
POINTS 86 float
0.0000000e+00 0.0000000e+00 0.0000000e+00 
0.0000000e+00 0.0000000e+00 6.0000002e-01 
0.0000000e+00 0.0000000e+00 1.2000000e+00 
0.0000000e+00 0.0000000e+00 1.8000000e+00 
0.0000000e+00 0.0000000e+00 2.4000001e+00 
0.0000000e+00 0.0000000e+00 3.0000000e+00 
0.0000000e+00 0.0000000e+00 3.5999999e+00 
0.0000000e+00 0.0000000e+00 4.1999998e+00 
0.0000000e+00 0.0000000e+00 4.8000002e+00 
0.0000000e+00 0.0000000e+00 5.4000001e+00 
0.0000000e+00 0.0000000e+00 6.0000000e+00 
0.0000000e+00 0.0000000e+00 6.5999999e+00 
0.0000000e+00 0.0000000e+00 7.1999998e+00 
0.0000000e+00 0.0000000e+00 7.8000002e+00 
0.0000000e+00 0.0000000e+00 8.3999996e+00 
0.0000000e+00 0.0000000e+00 9.0000000e+00 
0.0000000e+00 0.0000000e+00 9.6000004e+00 
0.0000000e+00 0.0000000e+00 1.0200000e+01 
0.0000000e+00 0.0000000e+00 1.0800000e+01 
0.0000000e+00 0.0000000e+00 1.1400000e+01 
0.0000000e+00 0.0000000e+00 1.2000000e+01 
0.0000000e+00 0.0000000e+00 1.2600000e+01 
0.0000000e+00 0.0000000e+00 1.3200000e+01 
0.0000000e+00 0.0000000e+00 1.3800000e+01 
0.0000000e+00 0.0000000e+00 1.4400000e+01 
0.0000000e+00 0.0000000e+00 1.5000000e+01 
0.0000000e+00 0.0000000e+00 1.5600000e+01 
0.0000000e+00 0.0000000e+00 1.6200001e+01 
0.0000000e+00 0.0000000e+00 1.6799999e+01 
0.0000000e+00 0.0000000e+00 1.7400000e+01 
0.0000000e+00 0.0000000e+00 1.8000000e+01 
6.0000000e+00 0.0000000e+00 0.0000000e+00 
6.0000000e+00 0.0000000e+00 6.0000002e-01 
6.0000000e+00 0.0000000e+00 1.2000000e+00 
6.0000000e+00 0.0000000e+00 1.8000000e+00 
6.0000000e+00 0.0000000e+00 2.4000001e+00 
6.0000000e+00 0.0000000e+00 3.0000000e+00 
6.0000000e+00 0.0000000e+00 3.5999999e+00 
6.0000000e+00 0.0000000e+00 4.1999998e+00 
6.0000000e+00 0.0000000e+00 4.8000002e+00 
6.0000000e+00 0.0000000e+00 5.4000001e+00 
6.0000000e+00 0.0000000e+00 6.0000000e+00 
6.0000000e+00 0.0000000e+00 6.5999999e+00 
6.0000000e+00 0.0000000e+00 7.1999998e+00 
6.0000000e+00 0.0000000e+00 7.8000002e+00 
6.0000000e+00 0.0000000e+00 8.3999996e+00 
6.0000000e+00 0.0000000e+00 9.0000000e+00 
6.0000000e+00 0.0000000e+00 9.6000004e+00 
6.0000000e+00 0.0000000e+00 1.0200000e+01 
6.0000000e+00 0.0000000e+00 1.0800000e+01 
6.0000000e+00 0.0000000e+00 1.1400000e+01 
6.0000000e+00 0.0000000e+00 1.2000000e+01 
6.0000000e+00 0.0000000e+00 1.2600000e+01 
6.0000000e+00 0.0000000e+00 1.3200000e+01 
6.0000000e+00 0.0000000e+00 1.3800000e+01 
6.0000000e+00 0.0000000e+00 1.4400000e+01 
6.0000000e+00 0.0000000e+00 1.5000000e+01 
6.0000000e+00 0.0000000e+00 1.5600000e+01 
6.0000000e+00 0.0000000e+00 1.6200001e+01 
6.0000000e+00 0.0000000e+00 1.6799999e+01 
6.0000000e+00 0.0000000e+00 1.7400000e+01 
6.0000000e+00 0.0000000e+00 1.8000000e+01 
1.2000000e+00 0.0000000e+00 3.0000000e+00 
2.4000001e+00 0.0000000e+00 3.0000000e+00 
3.5999999e+00 0.0000000e+00 3.0000000e+00 
4.8000002e+00 0.0000000e+00 3.0000000e+00 
1.2000000e+00 0.0000000e+00 6.0000000e+00 
2.4000001e+00 0.0000000e+00 6.0000000e+00 
3.5999999e+00 0.0000000e+00 6.0000000e+00 
4.8000002e+00 0.0000000e+00 6.0000000e+00 
1.2000000e+00 0.0000000e+00 9.0000000e+00 
2.4000001e+00 0.0000000e+00 9.0000000e+00 
3.5999999e+00 0.0000000e+00 9.0000000e+00 
4.8000002e+00 0.0000000e+00 9.0000000e+00 
1.2000000e+00 0.0000000e+00 1.2000000e+01 
2.4000001e+00 0.0000000e+00 1.2000000e+01 
3.5999999e+00 0.0000000e+00 1.2000000e+01 
4.8000002e+00 0.0000000e+00 1.2000000e+01 
1.2000000e+00 0.0000000e+00 1.5000000e+01 
2.4000001e+00 0.0000000e+00 1.5000000e+01 
3.5999999e+00 0.0000000e+00 1.5000000e+01 
4.8000002e+00 0.0000000e+00 1.5000000e+01 
1.2000000e+00 0.0000000e+00 1.8000000e+01 
2.4000001e+00 0.0000000e+00 1.8000000e+01 
3.5999999e+00 0.0000000e+00 1.8000000e+01 
4.8000002e+00 0.0000000e+00 1.8000000e+01 

CELLS 90 270
2 0 1
2 1 2
2 2 3
2 3 4
2 4 5
2 5 6
2 6 7
2 7 8
2 8 9
2 9 10
2 10 11
2 11 12
2 12 13
2 13 14
2 14 15
2 15 16
2 16 17
2 17 18
2 18 19
2 19 20
2 20 21
2 21 22
2 22 23
2 23 24
2 24 25
2 25 26
2 26 27
2 27 28
2 28 29
2 29 30
2 31 32
2 32 33
2 33 34
2 34 35
2 35 36
2 36 37
2 37 38
2 38 39
2 39 40
2 40 41
2 41 42
2 42 43
2 43 44
2 44 45
2 45 46
2 46 47
2 47 48
2 48 49
2 49 50
2 50 51
2 51 52
2 52 53
2 53 54
2 54 55
2 55 56
2 56 57
2 57 58
2 58 59
2 59 60
2 60 61
2 5 62
2 62 63
2 63 64
2 64 65
2 65 36
2 10 66
2 66 67
2 67 68
2 68 69
2 69 41
2 15 70
2 70 71
2 71 72
2 72 73
2 73 46
2 20 74
2 74 75
2 75 76
2 76 77
2 77 51
2 25 78
2 78 79
2 79 80
2 80 81
2 81 56
2 30 82
2 82 83
2 83 84
2 84 85
2 85 61

CELL_TYPES 90
3
3
3
3
3
3
3
3
3
3
3
3
3
3
3
3
3
3
3
3
3
3
3
3
3
3
3
3
3
3
3
3
3
3
3
3
3
3
3
3
3
3
3
3
3
3
3
3
3
3
3
3
3
3
3
3
3
3
3
3
3
3
3
3
3
3
3
3
3
3
3
3
3
3
3
3
3
3
3
3
3
3
3
3
3
3
3
3
3
3
POINT_DATA 86
FIELD FieldData 3
ADJOINT_DISPLACEMENT 3 86  float
0.0000000e+00 0.0000000e+00 0.0000000e+00 
-2.5979802e-03 0.0000000e+00 4.5174787e-15 
-5.1572742e-03 0.0000000e+00 9.0349574e-15 
-7.6391953e-03 0.0000000e+00 1.3552437e-14 
-1.0005059e-02 0.0000000e+00 1.8069915e-14 
-1.2216176e-02 0.0000000e+00 2.2587394e-14 
-1.5114921e-02 0.0000000e+00 8.8954752e-05 
-2.0084642e-02 0.0000000e+00 1.7790950e-04 
-2.7898120e-02 0.0000000e+00 2.6686426e-04 
-3.9328132e-02 0.0000000e+00 3.5581901e-04 
-5.5147462e-02 0.0000000e+00 4.4477376e-04 
-7.9104096e-02 0.0000000e+00 8.9251267e-04 
-1.1089186e-01 0.0000000e+00 1.3402516e-03 
-1.4520223e-01 0.0000000e+00 1.7879906e-03 
-1.7672673e-01 0.0000000e+00 2.2357295e-03 
-2.0015687e-01 0.0000000e+00 2.6834684e-03 
-2.2237973e-01 0.0000000e+00 4.8481328e-03 
-2.5059846e-01 0.0000000e+00 7.0127975e-03 
-2.7997869e-01 0.0000000e+00 9.1774622e-03 
-3.0568603e-01 0.0000000e+00 1.1342126e-02 
-3.2288611e-01 0.0000000e+00 1.3506791e-02 
-3.2022667e-01 0.0000000e+00 1.3954530e-02 
-2.9587594e-01 0.0000000e+00 1.4402268e-02 
-2.5928003e-01 0.0000000e+00 1.4850007e-02 
-2.1988517e-01 0.0000000e+00 1.5297746e-02 
-1.8713750e-01 0.0000000e+00 1.5745485e-02 
-1.6425130e-01 0.0000000e+00 1.5834440e-02 
-1.4737441e-01 0.0000000e+00 1.5923394e-02 
-1.3535343e-01 0.0000000e+00 1.6012350e-02 
-1.2703496e-01 0.0000000e+00 1.6101304e-02 
-1.2126561e-01 0.0000000e+00 1.6190259e-02 
0.0000000e+00 0.0000000e+00 0.0000000e+00 
-2.7393049e-03 0.0000000e+00 -4.5054377e-15 
-5.5172960e-03 0.0000000e+00 -9.0108542e-15 
-8.3726598e-03 0.0000000e+00 -1.3516312e-14 
-1.1344082e-02 0.0000000e+00 -1.8021712e-14 
-1.4470249e-02 0.0000000e+00 -2.2526975e-14 
-1.8509975e-02 0.0000000e+00 -8.8954752e-05 
-2.3681097e-02 0.0000000e+00 -1.7790950e-04 
-2.9210832e-02 0.0000000e+00 -2.6686426e-04 
-3.4326404e-02 0.0000000e+00 -3.5581901e-04 
-3.8255028e-02 0.0000000e+00 -4.4477376e-04 
-4.3706831e-02 0.0000000e+00 -8.9251267e-04 
-5.7446118e-02 0.0000000e+00 -1.3402516e-03 
-8.4781386e-02 0.0000000e+00 -1.7879906e-03 
-1.3102113e-01 0.0000000e+00 -2.2357295e-03 
-2.0147383e-01 0.0000000e+00 -2.6834684e-03 
-3.2015708e-01 0.0000000e+00 -4.8481328e-03 
-5.1077241e-01 0.0000000e+00 -7.0127975e-03 
-7.7815408e-01 0.0000000e+00 -9.1774622e-03 
-5.2713662e-01 0.0000000e+00 -1.1342126e-02 
-3.6255434e-01 0.0000000e+00 -1.3506791e-02 
-2.6485482e-01 0.0000000e+00 -1.3954530e-02 
-2.0496522e-01 0.0000000e+00 -1.4402268e-02 
-1.7343937e-01 0.0000000e+00 -1.4850007e-02 
-1.6083109e-01 0.0000000e+00 -1.5297746e-02 
-1.5769422e-01 0.0000000e+00 -1.5745485e-02 
-1.5435636e-01 0.0000000e+00 -1.5834440e-02 
-1.4821157e-01 0.0000000e+00 -1.5923394e-02 
-1.4041322e-01 0.0000000e+00 -1.6012350e-02 
-1.3211474e-01 0.0000000e+00 -1.6101304e-02 
-1.2446952e-01 0.0000000e+00 -1.6190259e-02 
-1.2666991e-02 0.0000000e+00 1.6854290e-03 
-1.3117805e-02 0.0000000e+00 -3.3753302e-05 
-1.3568620e-02 0.0000000e+00 -2.5956503e-03 
-1.4019434e-02 0.0000000e+00 -3.4383647e-03 
-5.1768973e-02 0.0000000e+00 2.2755064e-02 
-4.8390489e-02 0.0000000e+00 2.3488272e-02 
-4.5012001e-02 0.0000000e+00 1.2977378e-02 
-4.1633517e-02 0.0000000e+00 1.5553682e-03 
-2.0042026e-01 0.0000000e+00 -2.3146593e-03 
-2.0068365e-01 0.0000000e+00 -5.4797873e-02 
-2.0094705e-01 0.0000000e+00 -1.0531872e-01 
-2.0121044e-01 0.0000000e+00 -1.0442974e-01 
-3.3081976e-01 0.0000000e+00 6.3527167e-02 
-3.3875340e-01 0.0000000e+00 1.3528346e-01 
-3.4668705e-01 0.0000000e+00 1.7932819e-01 
-3.5462070e-01 0.0000000e+00 1.4621393e-01 
-1.8124884e-01 0.0000000e+00 -2.0666037e-02 
-1.7536019e-01 0.0000000e+00 -3.1687912e-02 
-1.6947153e-01 0.0000000e+00 -2.7653120e-02 
-1.6358288e-01 0.0000000e+00 -1.8894650e-02 
-1.2190639e-01 0.0000000e+00 8.7961359e-03 
-1.2254717e-01 0.0000000e+00 4.4229194e-03 
-1.2318795e-01 0.0000000e+00 5.0871266e-04 
-1.2382874e-01 0.0000000e+00 -5.5083814e-03 
ADJOINT_ROTATION 3 86  float
0.0000000e+00 -4.3407129e-03 0.0000000e+00 
0.0000000e+00 -4.3084747e-03 0.0000000e+00 
0.0000000e+00 -4.2117592e-03 0.0000000e+00 
0.0000000e+00 -4.0505663e-03 0.0000000e+00 
0.0000000e+00 -3.8248969e-03 0.0000000e+00 
0.0000000e+00 -3.5347503e-03 0.0000000e+00 
0.0000000e+00 -6.3423938e-03 0.0000000e+00 
0.0000000e+00 -1.0438004e-02 0.0000000e+00 
0.0000000e+00 -1.5821580e-02 0.0000000e+00 
0.0000000e+00 -2.2493124e-02 0.0000000e+00 
0.0000000e+00 -3.0452633e-02 0.0000000e+00 
0.0000000e+00 -4.7928244e-02 0.0000000e+00 
0.0000000e+00 -5.6556359e-02 0.0000000e+00 
0.0000000e+00 -5.6336984e-02 0.0000000e+00 
0.0000000e+00 -4.7270112e-02 0.0000000e+00 
0.0000000e+00 -2.9355749e-02 0.0000000e+00 
0.0000000e+00 -4.3377545e-02 0.0000000e+00 
0.0000000e+00 -4.9342029e-02 0.0000000e+00 
0.0000000e+00 -4.7249202e-02 0.0000000e+00 
0.0000000e+00 -3.7099063e-02 0.0000000e+00 
0.0000000e+00 -1.8891612e-02 0.0000000e+00 
0.0000000e+00 2.5132414e-02 0.0000000e+00 
0.0000000e+00 5.3412814e-02 0.0000000e+00 
0.0000000e+00 6.5949582e-02 0.0000000e+00 
0.0000000e+00 6.2742718e-02 0.0000000e+00 
0.0000000e+00 4.3792229e-02 0.0000000e+00 
0.0000000e+00 3.2815523e-02 0.0000000e+00 
0.0000000e+00 2.3761159e-02 0.0000000e+00 
0.0000000e+00 1.6629137e-02 0.0000000e+00 
0.0000000e+00 1.1419457e-02 0.0000000e+00 
0.0000000e+00 8.1321187e-03 0.0000000e+00 
0.0000000e+00 -4.5547620e-03 0.0000000e+00 
0.0000000e+00 -4.5870007e-03 0.0000000e+00 
0.0000000e+00 -4.6837162e-03 0.0000000e+00 
0.0000000e+00 -4.8449086e-03 0.0000000e+00 
0.0000000e+00 -5.0705783e-03 0.0000000e+00 
0.0000000e+00 -5.3607249e-03 0.0000000e+00 
0.0000000e+00 -7.8903669e-03 0.0000000e+00 
0.0000000e+00 -9.1320416e-03 0.0000000e+00 
0.0000000e+00 -9.0857502e-03 0.0000000e+00 
0.0000000e+00 -7.7514919e-03 0.0000000e+00 
0.0000000e+00 -5.1292665e-03 0.0000000e+00 
0.0000000e+00 -1.4517993e-02 0.0000000e+00 
0.0000000e+00 -3.2754213e-02 0.0000000e+00 
0.0000000e+00 -5.9837922e-02 0.0000000e+00 
0.0000000e+00 -9.5769130e-02 0.0000000e+00 
0.0000000e+00 -1.4054783e-01 0.0000000e+00 
0.0000000e+00 -2.5640589e-01 0.0000000e+00 
0.0000000e+00 -3.8032129e-01 0.0000000e+00 
0.0000000e+00 -5.1229399e-01 0.0000000e+00 
0.0000000e+00 3.4767601e-01 0.0000000e+00 
0.0000000e+00 1.9958870e-01 0.0000000e+00 
0.0000000e+00 1.2870033e-01 0.0000000e+00 
0.0000000e+00 7.3555604e-02 0.0000000e+00 
0.0000000e+00 3.4154497e-02 0.0000000e+00 
0.0000000e+00 1.0497023e-02 0.0000000e+00 
0.0000000e+00 2.5831792e-03 0.0000000e+00 
0.0000000e+00 8.2225986e-03 0.0000000e+00 
0.0000000e+00 1.1939677e-02 0.0000000e+00 
0.0000000e+00 1.3734414e-02 0.0000000e+00 
0.0000000e+00 1.3606809e-02 0.0000000e+00 
0.0000000e+00 1.1556863e-02 0.0000000e+00 
0.0000000e+00 3.6988288e-04 0.0000000e+00 
0.0000000e+00 2.1396021e-03 0.0000000e+00 
0.0000000e+00 1.7744071e-03 0.0000000e+00 
0.0000000e+00 -7.2570192e-04 0.0000000e+00 
0.0000000e+00 -8.1663206e-03 0.0000000e+00 
0.0000000e+00 5.5091730e-03 0.0000000e+00 
0.0000000e+00 1.0573846e-02 0.0000000e+00 
0.0000000e+00 7.0276996e-03 0.0000000e+00 
0.0000000e+00 3.0818261e-02 0.0000000e+00 
0.0000000e+00 4.9786057e-02 0.0000000e+00 
0.0000000e+00 2.7547644e-02 0.0000000e+00 
0.0000000e+00 -3.5896983e-02 0.0000000e+00 
0.0000000e+00 -5.7607979e-02 0.0000000e+00 
0.0000000e+00 -5.5118129e-02 0.0000000e+00 
0.0000000e+00 -1.1422068e-02 0.0000000e+00 
0.0000000e+00 7.3480204e-02 0.0000000e+00 
0.0000000e+00 1.8328778e-02 0.0000000e+00 
0.0000000e+00 1.4761483e-03 0.0000000e+00 
0.0000000e+00 -6.7656613e-03 0.0000000e+00 
0.0000000e+00 -6.3966513e-03 0.0000000e+00 
0.0000000e+00 4.5472393e-03 0.0000000e+00 
0.0000000e+00 3.0972741e-03 0.0000000e+00 
0.0000000e+00 3.7822230e-03 0.0000000e+00 
0.0000000e+00 6.6020857e-03 0.0000000e+00 
SHAPE_SENSITIVITY 3 86  float
0.0000000e+00 0.0000000e+00 0.0000000e+00 
0.0000000e+00 0.0000000e+00 0.0000000e+00 
0.0000000e+00 0.0000000e+00 0.0000000e+00 
0.0000000e+00 0.0000000e+00 0.0000000e+00 
0.0000000e+00 0.0000000e+00 0.0000000e+00 
0.0000000e+00 0.0000000e+00 0.0000000e+00 
0.0000000e+00 0.0000000e+00 0.0000000e+00 
0.0000000e+00 0.0000000e+00 0.0000000e+00 
0.0000000e+00 0.0000000e+00 0.0000000e+00 
0.0000000e+00 0.0000000e+00 0.0000000e+00 
0.0000000e+00 0.0000000e+00 0.0000000e+00 
0.0000000e+00 0.0000000e+00 0.0000000e+00 
0.0000000e+00 0.0000000e+00 0.0000000e+00 
0.0000000e+00 0.0000000e+00 0.0000000e+00 
0.0000000e+00 0.0000000e+00 0.0000000e+00 
0.0000000e+00 0.0000000e+00 0.0000000e+00 
0.0000000e+00 0.0000000e+00 0.0000000e+00 
0.0000000e+00 0.0000000e+00 0.0000000e+00 
0.0000000e+00 0.0000000e+00 0.0000000e+00 
0.0000000e+00 0.0000000e+00 0.0000000e+00 
0.0000000e+00 0.0000000e+00 0.0000000e+00 
0.0000000e+00 0.0000000e+00 0.0000000e+00 
0.0000000e+00 0.0000000e+00 0.0000000e+00 
0.0000000e+00 0.0000000e+00 0.0000000e+00 
0.0000000e+00 0.0000000e+00 0.0000000e+00 
0.0000000e+00 0.0000000e+00 0.0000000e+00 
0.0000000e+00 0.0000000e+00 0.0000000e+00 
0.0000000e+00 0.0000000e+00 0.0000000e+00 
0.0000000e+00 0.0000000e+00 0.0000000e+00 
0.0000000e+00 0.0000000e+00 0.0000000e+00 
0.0000000e+00 0.0000000e+00 0.0000000e+00 
0.0000000e+00 0.0000000e+00 0.0000000e+00 
0.0000000e+00 0.0000000e+00 0.0000000e+00 
0.0000000e+00 0.0000000e+00 0.0000000e+00 
0.0000000e+00 0.0000000e+00 0.0000000e+00 
0.0000000e+00 0.0000000e+00 0.0000000e+00 
0.0000000e+00 0.0000000e+00 0.0000000e+00 
0.0000000e+00 0.0000000e+00 0.0000000e+00 
0.0000000e+00 0.0000000e+00 0.0000000e+00 
0.0000000e+00 0.0000000e+00 0.0000000e+00 
0.0000000e+00 0.0000000e+00 0.0000000e+00 
0.0000000e+00 0.0000000e+00 0.0000000e+00 
0.0000000e+00 0.0000000e+00 0.0000000e+00 
0.0000000e+00 0.0000000e+00 0.0000000e+00 
0.0000000e+00 0.0000000e+00 0.0000000e+00 
0.0000000e+00 0.0000000e+00 0.0000000e+00 
0.0000000e+00 0.0000000e+00 0.0000000e+00 
0.0000000e+00 0.0000000e+00 0.0000000e+00 
0.0000000e+00 0.0000000e+00 0.0000000e+00 
0.0000000e+00 0.0000000e+00 0.0000000e+00 
0.0000000e+00 0.0000000e+00 0.0000000e+00 
0.0000000e+00 0.0000000e+00 0.0000000e+00 
0.0000000e+00 0.0000000e+00 0.0000000e+00 
0.0000000e+00 0.0000000e+00 0.0000000e+00 
0.0000000e+00 0.0000000e+00 0.0000000e+00 
0.0000000e+00 0.0000000e+00 0.0000000e+00 
0.0000000e+00 0.0000000e+00 0.0000000e+00 
0.0000000e+00 0.0000000e+00 0.0000000e+00 
0.0000000e+00 0.0000000e+00 0.0000000e+00 
0.0000000e+00 0.0000000e+00 0.0000000e+00 
0.0000000e+00 0.0000000e+00 0.0000000e+00 
0.0000000e+00 0.0000000e+00 0.0000000e+00 
0.0000000e+00 0.0000000e+00 0.0000000e+00 
0.0000000e+00 0.0000000e+00 0.0000000e+00 
0.0000000e+00 0.0000000e+00 0.0000000e+00 
0.0000000e+00 0.0000000e+00 0.0000000e+00 
0.0000000e+00 0.0000000e+00 0.0000000e+00 
0.0000000e+00 0.0000000e+00 0.0000000e+00 
0.0000000e+00 0.0000000e+00 0.0000000e+00 
0.0000000e+00 0.0000000e+00 0.0000000e+00 
0.0000000e+00 0.0000000e+00 0.0000000e+00 
0.0000000e+00 0.0000000e+00 0.0000000e+00 
0.0000000e+00 0.0000000e+00 0.0000000e+00 
0.0000000e+00 0.0000000e+00 0.0000000e+00 
0.0000000e+00 0.0000000e+00 0.0000000e+00 
0.0000000e+00 0.0000000e+00 0.0000000e+00 
0.0000000e+00 0.0000000e+00 0.0000000e+00 
0.0000000e+00 0.0000000e+00 0.0000000e+00 
0.0000000e+00 0.0000000e+00 0.0000000e+00 
0.0000000e+00 0.0000000e+00 0.0000000e+00 
0.0000000e+00 0.0000000e+00 0.0000000e+00 
0.0000000e+00 0.0000000e+00 0.0000000e+00 
0.0000000e+00 0.0000000e+00 0.0000000e+00 
0.0000000e+00 0.0000000e+00 0.0000000e+00 
0.0000000e+00 0.0000000e+00 0.0000000e+00 
0.0000000e+00 0.0000000e+00 0.0000000e+00 
CELL_DATA 90
FIELD FieldData 1
I22_SENSITIVITY 1 90  float
3.6248890e-05
2.5374177e-04
6.8872760e-04
1.3412063e-03
2.2111777e-03
2.9002549e-02
2.2753097e-02
4.0555387e-03
-2.7090130e-02
-7.0683904e-02
1.5657882e-01
4.0845998e-02
3.2697413e-03
4.3850049e-02
1.6258693e-01
1.2688284e-01
2.9272432e-02
3.0110364e-03
4.8098657e-02
1.6453528e-01
-3.9862588e-01
-1.3818973e-01
-1.1216760e-02
-1.7706966e-02
-1.5766035e-01
1.0283532e-01
2.7698521e-02
-2.3105355e-02
-4.9576305e-02
-5.1714331e-02
3.6248719e-05
2.5374157e-04
6.8872736e-04
1.3412058e-03
2.2111773e-03
-2.7116818e-02
-7.5740246e-03
-4.7933904e-04
-5.8327625e-03
-2.3634294e-02
-7.9115488e-02
-7.6191865e-02
4.8883306e-03
1.6412508e-01
4.0151840e-01
-1.0208596e+00
-5.4341465e-01
5.3793211e-03
6.2552232e-01
1.3170143e+00
-6.3848191e-01
-2.6417747e-01
-2.3336245e-02
8.4041812e-02
5.7956696e-02
5.3325918e-02
1.1968693e-02
-5.0556078e-03
2.2530160e-03
3.3894565e-02
4.0831968e-02
-1.3148762e-02
5.3450717e-03
1.9456567e-02
-4.7671180e-02
2.4484164e-01
-9.7874179e-02
-6.9824405e-02
1.9001447e-02
-1.4138614e-01
6.9337082e-01
-1.0763045e-01
3.0793104e-01
4.5663154e-01
-1.1449527e+00
-4.7480118e-01
-6.0788985e-02
-6.0584766e-01
-6.2655365e-01
1.3605167e+00
-2.8678015e-01
1.1633298e-01
1.1055485e-01
5.8750138e-03
1.1228298e-01
-3.0096285e-02
1.3518511e-02
-1.1504216e-02
-2.8307561e-02
3.9965387e-02
