# vtk DataFile Version 4.0
vtk output
ASCII
DATASET UNSTRUCTURED_GRID
POINTS 212 float
0.0000000e+00 0.0000000e+00 0.0000000e+00 
0.0000000e+00 0.0000000e+00 2.5000000e-01 
0.0000000e+00 0.0000000e+00 5.0000000e-01 
0.0000000e+00 0.0000000e+00 7.5000000e-01 
0.0000000e+00 0.0000000e+00 1.0000000e+00 
0.0000000e+00 0.0000000e+00 1.2500000e+00 
0.0000000e+00 0.0000000e+00 1.5000000e+00 
0.0000000e+00 0.0000000e+00 1.7500000e+00 
0.0000000e+00 0.0000000e+00 2.0000000e+00 
0.0000000e+00 0.0000000e+00 2.2500000e+00 
0.0000000e+00 0.0000000e+00 2.5000000e+00 
0.0000000e+00 0.0000000e+00 2.7500000e+00 
0.0000000e+00 0.0000000e+00 3.0000000e+00 
0.0000000e+00 0.0000000e+00 3.2500000e+00 
0.0000000e+00 0.0000000e+00 3.5000000e+00 
0.0000000e+00 0.0000000e+00 3.7500000e+00 
0.0000000e+00 0.0000000e+00 4.0000000e+00 
0.0000000e+00 0.0000000e+00 4.2500000e+00 
0.0000000e+00 0.0000000e+00 4.5000000e+00 
0.0000000e+00 0.0000000e+00 4.7500000e+00 
0.0000000e+00 0.0000000e+00 5.0000000e+00 
0.0000000e+00 0.0000000e+00 5.2500000e+00 
0.0000000e+00 0.0000000e+00 5.5000000e+00 
0.0000000e+00 0.0000000e+00 5.7500000e+00 
0.0000000e+00 0.0000000e+00 6.0000000e+00 
0.0000000e+00 0.0000000e+00 6.2500000e+00 
0.0000000e+00 0.0000000e+00 6.5000000e+00 
0.0000000e+00 0.0000000e+00 6.7500000e+00 
0.0000000e+00 0.0000000e+00 7.0000000e+00 
0.0000000e+00 0.0000000e+00 7.2500000e+00 
0.0000000e+00 0.0000000e+00 7.5000000e+00 
0.0000000e+00 0.0000000e+00 7.7500000e+00 
0.0000000e+00 0.0000000e+00 8.0000000e+00 
0.0000000e+00 0.0000000e+00 8.2500000e+00 
0.0000000e+00 0.0000000e+00 8.5000000e+00 
0.0000000e+00 0.0000000e+00 8.7500000e+00 
0.0000000e+00 0.0000000e+00 9.0000000e+00 
0.0000000e+00 0.0000000e+00 9.2500000e+00 
0.0000000e+00 0.0000000e+00 9.5000000e+00 
0.0000000e+00 0.0000000e+00 9.7500000e+00 
0.0000000e+00 0.0000000e+00 1.0000000e+01 
0.0000000e+00 0.0000000e+00 1.0250000e+01 
0.0000000e+00 0.0000000e+00 1.0500000e+01 
0.0000000e+00 0.0000000e+00 1.0750000e+01 
0.0000000e+00 0.0000000e+00 1.1000000e+01 
0.0000000e+00 0.0000000e+00 1.1250000e+01 
0.0000000e+00 0.0000000e+00 1.1500000e+01 
0.0000000e+00 0.0000000e+00 1.1750000e+01 
0.0000000e+00 0.0000000e+00 1.2000000e+01 
0.0000000e+00 0.0000000e+00 1.2250000e+01 
0.0000000e+00 0.0000000e+00 1.2500000e+01 
0.0000000e+00 0.0000000e+00 1.2750000e+01 
0.0000000e+00 0.0000000e+00 1.3000000e+01 
0.0000000e+00 0.0000000e+00 1.3250000e+01 
0.0000000e+00 0.0000000e+00 1.3500000e+01 
0.0000000e+00 0.0000000e+00 1.3750000e+01 
0.0000000e+00 0.0000000e+00 1.4000000e+01 
0.0000000e+00 0.0000000e+00 1.4250000e+01 
0.0000000e+00 0.0000000e+00 1.4500000e+01 
0.0000000e+00 0.0000000e+00 1.4750000e+01 
0.0000000e+00 0.0000000e+00 1.5000000e+01 
0.0000000e+00 0.0000000e+00 1.5250000e+01 
0.0000000e+00 0.0000000e+00 1.5500000e+01 
0.0000000e+00 0.0000000e+00 1.5750000e+01 
0.0000000e+00 0.0000000e+00 1.6000000e+01 
0.0000000e+00 0.0000000e+00 1.6250000e+01 
0.0000000e+00 0.0000000e+00 1.6500000e+01 
0.0000000e+00 0.0000000e+00 1.6750000e+01 
0.0000000e+00 0.0000000e+00 1.7000000e+01 
0.0000000e+00 0.0000000e+00 1.7250000e+01 
0.0000000e+00 0.0000000e+00 1.7500000e+01 
0.0000000e+00 0.0000000e+00 1.7750000e+01 
0.0000000e+00 0.0000000e+00 1.8000000e+01 
6.0000000e+00 0.0000000e+00 0.0000000e+00 
6.0000000e+00 0.0000000e+00 2.5000000e-01 
6.0000000e+00 0.0000000e+00 5.0000000e-01 
6.0000000e+00 0.0000000e+00 7.5000000e-01 
6.0000000e+00 0.0000000e+00 1.0000000e+00 
6.0000000e+00 0.0000000e+00 1.2500000e+00 
6.0000000e+00 0.0000000e+00 1.5000000e+00 
6.0000000e+00 0.0000000e+00 1.7500000e+00 
6.0000000e+00 0.0000000e+00 2.0000000e+00 
6.0000000e+00 0.0000000e+00 2.2500000e+00 
6.0000000e+00 0.0000000e+00 2.5000000e+00 
6.0000000e+00 0.0000000e+00 2.7500000e+00 
6.0000000e+00 0.0000000e+00 3.0000000e+00 
6.0000000e+00 0.0000000e+00 3.2500000e+00 
6.0000000e+00 0.0000000e+00 3.5000000e+00 
6.0000000e+00 0.0000000e+00 3.7500000e+00 
6.0000000e+00 0.0000000e+00 4.0000000e+00 
6.0000000e+00 0.0000000e+00 4.2500000e+00 
6.0000000e+00 0.0000000e+00 4.5000000e+00 
6.0000000e+00 0.0000000e+00 4.7500000e+00 
6.0000000e+00 0.0000000e+00 5.0000000e+00 
6.0000000e+00 0.0000000e+00 5.2500000e+00 
6.0000000e+00 0.0000000e+00 5.5000000e+00 
6.0000000e+00 0.0000000e+00 5.7500000e+00 
6.0000000e+00 0.0000000e+00 6.0000000e+00 
6.0000000e+00 0.0000000e+00 6.2500000e+00 
6.0000000e+00 0.0000000e+00 6.5000000e+00 
6.0000000e+00 0.0000000e+00 6.7500000e+00 
6.0000000e+00 0.0000000e+00 7.0000000e+00 
6.0000000e+00 0.0000000e+00 7.2500000e+00 
6.0000000e+00 0.0000000e+00 7.5000000e+00 
6.0000000e+00 0.0000000e+00 7.7500000e+00 
6.0000000e+00 0.0000000e+00 8.0000000e+00 
6.0000000e+00 0.0000000e+00 8.2500000e+00 
6.0000000e+00 0.0000000e+00 8.5000000e+00 
6.0000000e+00 0.0000000e+00 8.7500000e+00 
6.0000000e+00 0.0000000e+00 9.0000000e+00 
6.0000000e+00 0.0000000e+00 9.2500000e+00 
6.0000000e+00 0.0000000e+00 9.5000000e+00 
6.0000000e+00 0.0000000e+00 9.7500000e+00 
6.0000000e+00 0.0000000e+00 1.0000000e+01 
6.0000000e+00 0.0000000e+00 1.0250000e+01 
6.0000000e+00 0.0000000e+00 1.0500000e+01 
6.0000000e+00 0.0000000e+00 1.0750000e+01 
6.0000000e+00 0.0000000e+00 1.1000000e+01 
6.0000000e+00 0.0000000e+00 1.1250000e+01 
6.0000000e+00 0.0000000e+00 1.1500000e+01 
6.0000000e+00 0.0000000e+00 1.1750000e+01 
6.0000000e+00 0.0000000e+00 1.2000000e+01 
6.0000000e+00 0.0000000e+00 1.2250000e+01 
6.0000000e+00 0.0000000e+00 1.2500000e+01 
6.0000000e+00 0.0000000e+00 1.2750000e+01 
6.0000000e+00 0.0000000e+00 1.3000000e+01 
6.0000000e+00 0.0000000e+00 1.3250000e+01 
6.0000000e+00 0.0000000e+00 1.3500000e+01 
6.0000000e+00 0.0000000e+00 1.3750000e+01 
6.0000000e+00 0.0000000e+00 1.4000000e+01 
6.0000000e+00 0.0000000e+00 1.4250000e+01 
6.0000000e+00 0.0000000e+00 1.4500000e+01 
6.0000000e+00 0.0000000e+00 1.4750000e+01 
6.0000000e+00 0.0000000e+00 1.5000000e+01 
6.0000000e+00 0.0000000e+00 1.5250000e+01 
6.0000000e+00 0.0000000e+00 1.5500000e+01 
6.0000000e+00 0.0000000e+00 1.5750000e+01 
6.0000000e+00 0.0000000e+00 1.6000000e+01 
6.0000000e+00 0.0000000e+00 1.6250000e+01 
6.0000000e+00 0.0000000e+00 1.6500000e+01 
6.0000000e+00 0.0000000e+00 1.6750000e+01 
6.0000000e+00 0.0000000e+00 1.7000000e+01 
6.0000000e+00 0.0000000e+00 1.7250000e+01 
6.0000000e+00 0.0000000e+00 1.7500000e+01 
6.0000000e+00 0.0000000e+00 1.7750000e+01 
6.0000000e+00 0.0000000e+00 1.8000000e+01 
5.0000000e-01 0.0000000e+00 3.0000000e+00 
1.0000000e+00 0.0000000e+00 3.0000000e+00 
1.5000000e+00 0.0000000e+00 3.0000000e+00 
2.0000000e+00 0.0000000e+00 3.0000000e+00 
2.5000000e+00 0.0000000e+00 3.0000000e+00 
3.0000000e+00 0.0000000e+00 3.0000000e+00 
3.5000000e+00 0.0000000e+00 3.0000000e+00 
4.0000000e+00 0.0000000e+00 3.0000000e+00 
4.5000000e+00 0.0000000e+00 3.0000000e+00 
5.0000000e+00 0.0000000e+00 3.0000000e+00 
5.5000000e+00 0.0000000e+00 3.0000000e+00 
5.0000000e-01 0.0000000e+00 6.0000000e+00 
1.0000000e+00 0.0000000e+00 6.0000000e+00 
1.5000000e+00 0.0000000e+00 6.0000000e+00 
2.0000000e+00 0.0000000e+00 6.0000000e+00 
2.5000000e+00 0.0000000e+00 6.0000000e+00 
3.0000000e+00 0.0000000e+00 6.0000000e+00 
3.5000000e+00 0.0000000e+00 6.0000000e+00 
4.0000000e+00 0.0000000e+00 6.0000000e+00 
4.5000000e+00 0.0000000e+00 6.0000000e+00 
5.0000000e+00 0.0000000e+00 6.0000000e+00 
5.5000000e+00 0.0000000e+00 6.0000000e+00 
5.0000000e-01 0.0000000e+00 9.0000000e+00 
1.0000000e+00 0.0000000e+00 9.0000000e+00 
1.5000000e+00 0.0000000e+00 9.0000000e+00 
2.0000000e+00 0.0000000e+00 9.0000000e+00 
2.5000000e+00 0.0000000e+00 9.0000000e+00 
3.0000000e+00 0.0000000e+00 9.0000000e+00 
3.5000000e+00 0.0000000e+00 9.0000000e+00 
4.0000000e+00 0.0000000e+00 9.0000000e+00 
4.5000000e+00 0.0000000e+00 9.0000000e+00 
5.0000000e+00 0.0000000e+00 9.0000000e+00 
5.5000000e+00 0.0000000e+00 9.0000000e+00 
5.0000000e-01 0.0000000e+00 1.2000000e+01 
1.0000000e+00 0.0000000e+00 1.2000000e+01 
1.5000000e+00 0.0000000e+00 1.2000000e+01 
2.0000000e+00 0.0000000e+00 1.2000000e+01 
2.5000000e+00 0.0000000e+00 1.2000000e+01 
3.0000000e+00 0.0000000e+00 1.2000000e+01 
3.5000000e+00 0.0000000e+00 1.2000000e+01 
4.0000000e+00 0.0000000e+00 1.2000000e+01 
4.5000000e+00 0.0000000e+00 1.2000000e+01 
5.0000000e+00 0.0000000e+00 1.2000000e+01 
5.5000000e+00 0.0000000e+00 1.2000000e+01 
5.0000000e-01 0.0000000e+00 1.5000000e+01 
1.0000000e+00 0.0000000e+00 1.5000000e+01 
1.5000000e+00 0.0000000e+00 1.5000000e+01 
2.0000000e+00 0.0000000e+00 1.5000000e+01 
2.5000000e+00 0.0000000e+00 1.5000000e+01 
3.0000000e+00 0.0000000e+00 1.5000000e+01 
3.5000000e+00 0.0000000e+00 1.5000000e+01 
4.0000000e+00 0.0000000e+00 1.5000000e+01 
4.5000000e+00 0.0000000e+00 1.5000000e+01 
5.0000000e+00 0.0000000e+00 1.5000000e+01 
5.5000000e+00 0.0000000e+00 1.5000000e+01 
5.0000000e-01 0.0000000e+00 1.8000000e+01 
1.0000000e+00 0.0000000e+00 1.8000000e+01 
1.5000000e+00 0.0000000e+00 1.8000000e+01 
2.0000000e+00 0.0000000e+00 1.8000000e+01 
2.5000000e+00 0.0000000e+00 1.8000000e+01 
3.0000000e+00 0.0000000e+00 1.8000000e+01 
3.5000000e+00 0.0000000e+00 1.8000000e+01 
4.0000000e+00 0.0000000e+00 1.8000000e+01 
4.5000000e+00 0.0000000e+00 1.8000000e+01 
5.0000000e+00 0.0000000e+00 1.8000000e+01 
5.5000000e+00 0.0000000e+00 1.8000000e+01 

CELLS 216 648
2 0 1
2 1 2
2 2 3
2 3 4
2 4 5
2 5 6
2 6 7
2 7 8
2 8 9
2 9 10
2 10 11
2 11 12
2 12 13
2 13 14
2 14 15
2 15 16
2 16 17
2 17 18
2 18 19
2 19 20
2 20 21
2 21 22
2 22 23
2 23 24
2 24 25
2 25 26
2 26 27
2 27 28
2 28 29
2 29 30
2 30 31
2 31 32
2 32 33
2 33 34
2 34 35
2 35 36
2 36 37
2 37 38
2 38 39
2 39 40
2 40 41
2 41 42
2 42 43
2 43 44
2 44 45
2 45 46
2 46 47
2 47 48
2 48 49
2 49 50
2 50 51
2 51 52
2 52 53
2 53 54
2 54 55
2 55 56
2 56 57
2 57 58
2 58 59
2 59 60
2 60 61
2 61 62
2 62 63
2 63 64
2 64 65
2 65 66
2 66 67
2 67 68
2 68 69
2 69 70
2 70 71
2 71 72
2 73 74
2 74 75
2 75 76
2 76 77
2 77 78
2 78 79
2 79 80
2 80 81
2 81 82
2 82 83
2 83 84
2 84 85
2 85 86
2 86 87
2 87 88
2 88 89
2 89 90
2 90 91
2 91 92
2 92 93
2 93 94
2 94 95
2 95 96
2 96 97
2 97 98
2 98 99
2 99 100
2 100 101
2 101 102
2 102 103
2 103 104
2 104 105
2 105 106
2 106 107
2 107 108
2 108 109
2 109 110
2 110 111
2 111 112
2 112 113
2 113 114
2 114 115
2 115 116
2 116 117
2 117 118
2 118 119
2 119 120
2 120 121
2 121 122
2 122 123
2 123 124
2 124 125
2 125 126
2 126 127
2 127 128
2 128 129
2 129 130
2 130 131
2 131 132
2 132 133
2 133 134
2 134 135
2 135 136
2 136 137
2 137 138
2 138 139
2 139 140
2 140 141
2 141 142
2 142 143
2 143 144
2 144 145
2 12 146
2 146 147
2 147 148
2 148 149
2 149 150
2 150 151
2 151 152
2 152 153
2 153 154
2 154 155
2 155 156
2 156 85
2 24 157
2 157 158
2 158 159
2 159 160
2 160 161
2 161 162
2 162 163
2 163 164
2 164 165
2 165 166
2 166 167
2 167 97
2 36 168
2 168 169
2 169 170
2 170 171
2 171 172
2 172 173
2 173 174
2 174 175
2 175 176
2 176 177
2 177 178
2 178 109
2 48 179
2 179 180
2 180 181
2 181 182
2 182 183
2 183 184
2 184 185
2 185 186
2 186 187
2 187 188
2 188 189
2 189 121
2 60 190
2 190 191
2 191 192
2 192 193
2 193 194
2 194 195
2 195 196
2 196 197
2 197 198
2 198 199
2 199 200
2 200 133
2 72 201
2 201 202
2 202 203
2 203 204
2 204 205
2 205 206
2 206 207
2 207 208
2 208 209
2 209 210
2 210 211
2 211 145

CELL_TYPES 216
3
3
3
3
3
3
3
3
3
3
3
3
3
3
3
3
3
3
3
3
3
3
3
3
3
3
3
3
3
3
3
3
3
3
3
3
3
3
3
3
3
3
3
3
3
3
3
3
3
3
3
3
3
3
3
3
3
3
3
3
3
3
3
3
3
3
3
3
3
3
3
3
3
3
3
3
3
3
3
3
3
3
3
3
3
3
3
3
3
3
3
3
3
3
3
3
3
3
3
3
3
3
3
3
3
3
3
3
3
3
3
3
3
3
3
3
3
3
3
3
3
3
3
3
3
3
3
3
3
3
3
3
3
3
3
3
3
3
3
3
3
3
3
3
3
3
3
3
3
3
3
3
3
3
3
3
3
3
3
3
3
3
3
3
3
3
3
3
3
3
3
3
3
3
3
3
3
3
3
3
3
3
3
3
3
3
3
3
3
3
3
3
3
3
3
3
3
3
3
3
3
3
3
3
3
3
3
3
3
3
3
3
3
3
3
3
POINT_DATA 212
FIELD FieldData 7
DISPLACEMENT 3 212  float
0.0000000e+00 0.0000000e+00 0.0000000e+00 
-2.1088282e-04 0.0000000e+00 -8.6186992e-07 
-4.1291877e-04 0.0000000e+00 -1.7237398e-06 
-5.9726101e-04 0.0000000e+00 -2.5856098e-06 
-7.5506262e-04 0.0000000e+00 -3.4474797e-06 
-8.7747682e-04 0.0000000e+00 -4.3093496e-06 
-9.5565669e-04 0.0000000e+00 -5.1712195e-06 
-9.8075543e-04 0.0000000e+00 -6.0330894e-06 
-9.4392610e-04 0.0000000e+00 -6.8949594e-06 
-8.3632185e-04 0.0000000e+00 -7.7568293e-06 
-6.4909586e-04 0.0000000e+00 -8.6186992e-06 
-3.7340124e-04 0.0000000e+00 -9.4805691e-06 
-3.9114803e-07 0.0000000e+00 -1.0342439e-05 
3.3527584e-04 0.0000000e+00 -1.1060663e-05 
5.1252265e-04 0.0000000e+00 -1.1778889e-05 
5.6056847e-04 0.0000000e+00 -1.2497114e-05 
5.0863239e-04 0.0000000e+00 -1.3215338e-05 
3.8593358e-04 0.0000000e+00 -1.3933563e-05 
2.2169124e-04 0.0000000e+00 -1.4651789e-05 
4.5124507e-05 0.0000000e+00 -1.5370013e-05 
-1.1454747e-04 0.0000000e+00 -1.6088237e-05 
-2.2810553e-04 0.0000000e+00 -1.6806463e-05 
-2.6633052e-04 0.0000000e+00 -1.7524688e-05 
-2.0000328e-04 0.0000000e+00 -1.8242912e-05 
9.5345349e-08 0.0000000e+00 -1.8961138e-05 
2.0929382e-04 0.0000000e+00 -1.9535717e-05 
2.9961002e-04 0.0000000e+00 -2.0110298e-05 
2.9529716e-04 0.0000000e+00 -2.0684878e-05 
2.2060855e-04 0.0000000e+00 -2.1259457e-05 
9.9797391e-05 0.0000000e+00 -2.1834037e-05 
-4.2883032e-05 0.0000000e+00 -2.2408618e-05 
-1.8317948e-04 0.0000000e+00 -2.2983197e-05 
-2.9683870e-04 0.0000000e+00 -2.3557777e-05 
-3.5960739e-04 0.0000000e+00 -2.4132358e-05 
-3.4723239e-04 0.0000000e+00 -2.4706937e-05 
-2.3546036e-04 0.0000000e+00 -2.5281517e-05 
-3.8104979e-08 0.0000000e+00 -2.5856098e-05 
2.3174738e-04 0.0000000e+00 -2.6287033e-05 
3.3393217e-04 0.0000000e+00 -2.6717968e-05 
3.3275411e-04 0.0000000e+00 -2.7148903e-05 
2.5445112e-04 0.0000000e+00 -2.7579837e-05 
1.2526110e-04 0.0000000e+00 -2.8010772e-05 
-2.8578082e-05 0.0000000e+00 -2.8441707e-05 
-1.8082853e-04 0.0000000e+00 -2.8872642e-05 
-3.0525238e-04 0.0000000e+00 -2.9303577e-05 
-3.7561171e-04 0.0000000e+00 -2.9734512e-05 
-3.6566862e-04 0.0000000e+00 -3.0165447e-05 
-2.4918528e-04 0.0000000e+00 -3.0596380e-05 
7.6251084e-08 0.0000000e+00 -3.1027317e-05 
2.5661525e-04 0.0000000e+00 -3.1314605e-05 
3.9228343e-04 0.0000000e+00 -3.1601896e-05 
4.2934724e-04 0.0000000e+00 -3.1889187e-05 
3.9007320e-04 0.0000000e+00 -3.2176475e-05 
2.9672775e-04 0.0000000e+00 -3.2463766e-05 
1.7157737e-04 0.0000000e+00 -3.2751057e-05 
3.6888574e-05 0.0000000e+00 -3.3038345e-05 
-8.5072184e-05 0.0000000e+00 -3.3325636e-05 
-1.7203843e-04 0.0000000e+00 -3.3612927e-05 
-2.0174366e-04 0.0000000e+00 -3.3900214e-05 
-1.5192143e-04 0.0000000e+00 -3.4187506e-05 
-3.0523512e-07 0.0000000e+00 -3.4474797e-05 
1.2217510e-04 0.0000000e+00 -3.4618442e-05 
9.5188203e-05 0.0000000e+00 -3.4762084e-05 
-4.3101780e-05 0.0000000e+00 -3.4905730e-05 
-2.5453072e-04 0.0000000e+00 -3.5049376e-05 
-5.0093443e-04 0.0000000e+00 -3.5193021e-05 
-7.4414886e-04 0.0000000e+00 -3.5336667e-05 
-9.4600976e-04 0.0000000e+00 -3.5480312e-05 
-1.0683531e-03 0.0000000e+00 -3.5623954e-05 
-1.0730146e-03 0.0000000e+00 -3.5767600e-05 
-9.2183024e-04 0.0000000e+00 -3.5911246e-05 
-5.7663582e-04 0.0000000e+00 -3.6054891e-05 
7.3275152e-07 0.0000000e+00 -3.6198537e-05 
0.0000000e+00 0.0000000e+00 0.0000000e+00 
2.1088282e-04 0.0000000e+00 -8.6186992e-07 
4.1291877e-04 0.0000000e+00 -1.7237398e-06 
5.9726101e-04 0.0000000e+00 -2.5856098e-06 
7.5506262e-04 0.0000000e+00 -3.4474797e-06 
8.7747682e-04 0.0000000e+00 -4.3093496e-06 
9.5565669e-04 0.0000000e+00 -5.1712195e-06 
9.8075543e-04 0.0000000e+00 -6.0330894e-06 
9.4392610e-04 0.0000000e+00 -6.8949594e-06 
8.3632185e-04 0.0000000e+00 -7.7568293e-06 
6.4909586e-04 0.0000000e+00 -8.6186992e-06 
3.7340124e-04 0.0000000e+00 -9.4805691e-06 
3.9114806e-07 0.0000000e+00 -1.0342439e-05 
-3.3527584e-04 0.0000000e+00 -1.1060663e-05 
-5.1252265e-04 0.0000000e+00 -1.1778889e-05 
-5.6056847e-04 0.0000000e+00 -1.2497114e-05 
-5.0863239e-04 0.0000000e+00 -1.3215338e-05 
-3.8593358e-04 0.0000000e+00 -1.3933563e-05 
-2.2169124e-04 0.0000000e+00 -1.4651789e-05 
-4.5124507e-05 0.0000000e+00 -1.5370013e-05 
1.1454747e-04 0.0000000e+00 -1.6088237e-05 
2.2810553e-04 0.0000000e+00 -1.6806463e-05 
2.6633052e-04 0.0000000e+00 -1.7524688e-05 
2.0000328e-04 0.0000000e+00 -1.8242912e-05 
-9.5345328e-08 0.0000000e+00 -1.8961138e-05 
-2.0929382e-04 0.0000000e+00 -1.9535717e-05 
-2.9961002e-04 0.0000000e+00 -2.0110298e-05 
-2.9529716e-04 0.0000000e+00 -2.0684878e-05 
-2.2060855e-04 0.0000000e+00 -2.1259457e-05 
-9.9797391e-05 0.0000000e+00 -2.1834037e-05 
4.2883032e-05 0.0000000e+00 -2.2408618e-05 
1.8317948e-04 0.0000000e+00 -2.2983197e-05 
2.9683870e-04 0.0000000e+00 -2.3557777e-05 
3.5960739e-04 0.0000000e+00 -2.4132358e-05 
3.4723239e-04 0.0000000e+00 -2.4706937e-05 
2.3546036e-04 0.0000000e+00 -2.5281517e-05 
3.8105000e-08 0.0000000e+00 -2.5856098e-05 
-2.3174738e-04 0.0000000e+00 -2.6287033e-05 
-3.3393217e-04 0.0000000e+00 -2.6717968e-05 
-3.3275411e-04 0.0000000e+00 -2.7148903e-05 
-2.5445112e-04 0.0000000e+00 -2.7579837e-05 
-1.2526110e-04 0.0000000e+00 -2.8010772e-05 
2.8578082e-05 0.0000000e+00 -2.8441707e-05 
1.8082853e-04 0.0000000e+00 -2.8872642e-05 
3.0525238e-04 0.0000000e+00 -2.9303577e-05 
3.7561171e-04 0.0000000e+00 -2.9734512e-05 
3.6566862e-04 0.0000000e+00 -3.0165447e-05 
2.4918528e-04 0.0000000e+00 -3.0596380e-05 
-7.6251055e-08 0.0000000e+00 -3.1027317e-05 
-2.5661525e-04 0.0000000e+00 -3.1314605e-05 
-3.9228343e-04 0.0000000e+00 -3.1601896e-05 
-4.2934724e-04 0.0000000e+00 -3.1889187e-05 
-3.9007320e-04 0.0000000e+00 -3.2176475e-05 
-2.9672775e-04 0.0000000e+00 -3.2463766e-05 
-1.7157737e-04 0.0000000e+00 -3.2751057e-05 
-3.6888574e-05 0.0000000e+00 -3.3038345e-05 
8.5072184e-05 0.0000000e+00 -3.3325636e-05 
1.7203843e-04 0.0000000e+00 -3.3612927e-05 
2.0174366e-04 0.0000000e+00 -3.3900214e-05 
1.5192143e-04 0.0000000e+00 -3.4187506e-05 
3.0523515e-07 0.0000000e+00 -3.4474797e-05 
-1.2217510e-04 0.0000000e+00 -3.4618442e-05 
-9.5188203e-05 0.0000000e+00 -3.4762084e-05 
4.3101780e-05 0.0000000e+00 -3.4905730e-05 
2.5453072e-04 0.0000000e+00 -3.5049376e-05 
5.0093443e-04 0.0000000e+00 -3.5193021e-05 
7.4414886e-04 0.0000000e+00 -3.5336667e-05 
9.4600976e-04 0.0000000e+00 -3.5480312e-05 
1.0683531e-03 0.0000000e+00 -3.5623954e-05 
1.0730146e-03 0.0000000e+00 -3.5767600e-05 
9.2183024e-04 0.0000000e+00 -3.5911246e-05 
5.7663582e-04 0.0000000e+00 -3.6054891e-05 
-7.3275152e-07 0.0000000e+00 -3.6198537e-05 
-3.2595671e-07 0.0000000e+00 -1.3458913e-03 
-2.6076535e-07 0.0000000e+00 -3.2673341e-03 
-1.9557402e-07 0.0000000e+00 -5.2774381e-03 
-1.3038267e-07 0.0000000e+00 -6.9894674e-03 
-6.5191337e-08 0.0000000e+00 -8.1271809e-03 
5.5893620e-15 0.0000000e+00 -8.5248351e-03 
6.5191344e-08 0.0000000e+00 -8.1271809e-03 
1.3038269e-07 0.0000000e+00 -6.9894674e-03 
1.9557403e-07 0.0000000e+00 -5.2774381e-03 
2.6076538e-07 0.0000000e+00 -3.2673341e-03 
3.2595671e-07 0.0000000e+00 -1.3458913e-03 
7.9454459e-08 0.0000000e+00 -1.0833732e-03 
6.3563569e-08 0.0000000e+00 -2.7829770e-03 
4.7672678e-08 0.0000000e+00 -4.6205395e-03 
3.1781788e-08 0.0000000e+00 -6.2093246e-03 
1.5890899e-08 0.0000000e+00 -7.2730919e-03 
8.8327850e-15 0.0000000e+00 -7.6460969e-03 
-1.5890881e-08 0.0000000e+00 -7.2730919e-03 
-3.1781770e-08 0.0000000e+00 -6.2093246e-03 
-4.7672660e-08 0.0000000e+00 -4.6205395e-03 
-6.3563547e-08 0.0000000e+00 -2.7829770e-03 
-7.9454438e-08 0.0000000e+00 -1.0833732e-03 
-3.1754148e-08 0.0000000e+00 -1.1427158e-03 
-2.5403315e-08 0.0000000e+00 -2.8852310e-03 
-1.9052484e-08 0.0000000e+00 -4.7561694e-03 
-1.2701652e-08 0.0000000e+00 -6.3687945e-03 
-6.3508208e-09 0.0000000e+00 -7.4468656e-03 
1.1187030e-14 0.0000000e+00 -7.8246389e-03 
6.3508430e-09 0.0000000e+00 -7.4468656e-03 
1.2701674e-08 0.0000000e+00 -6.3687945e-03 
1.9052507e-08 0.0000000e+00 -4.7561694e-03 
2.5403338e-08 0.0000000e+00 -2.8852310e-03 
3.1754169e-08 0.0000000e+00 -1.1427158e-03 
6.3542572e-08 0.0000000e+00 -1.1828390e-03 
5.0834057e-08 0.0000000e+00 -2.9539515e-03 
3.8125545e-08 0.0000000e+00 -4.8471321e-03 
2.5417036e-08 0.0000000e+00 -6.4756442e-03 
1.2708525e-08 0.0000000e+00 -7.5632478e-03 
1.3416978e-14 0.0000000e+00 -7.9441983e-03 
-1.2708498e-08 0.0000000e+00 -7.5632478e-03 
-2.5417009e-08 0.0000000e+00 -6.4756442e-03 
-3.8125521e-08 0.0000000e+00 -4.8471321e-03 
-5.0834032e-08 0.0000000e+00 -2.9539515e-03 
-6.3542544e-08 0.0000000e+00 -1.1828390e-03 
-2.5436259e-07 0.0000000e+00 -9.7644096e-04 
-2.0349007e-07 0.0000000e+00 -2.5758615e-03 
-1.5261755e-07 0.0000000e+00 -4.3355040e-03 
-1.0174503e-07 0.0000000e+00 -5.8686319e-03 
-5.0872508e-08 0.0000000e+00 -6.8990048e-03 
1.5644561e-14 0.0000000e+00 -7.2608786e-03 
5.0872536e-08 0.0000000e+00 -6.8990048e-03 
1.0174506e-07 0.0000000e+00 -5.8686319e-03 
1.5261759e-07 0.0000000e+00 -4.3355040e-03 
2.0349010e-07 0.0000000e+00 -2.5758615e-03 
2.5436262e-07 0.0000000e+00 -9.7644096e-04 
6.1062627e-07 0.0000000e+00 -1.8879413e-03 
4.8850103e-07 0.0000000e+00 -4.2317244e-03 
3.6637579e-07 0.0000000e+00 -6.5703155e-03 
2.4425051e-07 0.0000000e+00 -8.5169785e-03 
1.2212527e-07 0.0000000e+00 -9.7954720e-03 
1.6659569e-14 0.0000000e+00 -1.0240053e-02 
-1.2212524e-07 0.0000000e+00 -9.7954720e-03 
-2.4425049e-07 0.0000000e+00 -8.5169785e-03 
-3.6637576e-07 0.0000000e+00 -6.5703155e-03 
-4.8850097e-07 0.0000000e+00 -4.2317244e-03 
-6.1062627e-07 0.0000000e+00 -1.8879413e-03 
ROTATION 3 212  float
0.0000000e+00 -8.4942917e-04 0.0000000e+00 
0.0000000e+00 -8.3173544e-04 0.0000000e+00 
0.0000000e+00 -7.7865430e-04 0.0000000e+00 
0.0000000e+00 -6.9018564e-04 0.0000000e+00 
0.0000000e+00 -5.6632957e-04 0.0000000e+00 
0.0000000e+00 -4.0708605e-04 0.0000000e+00 
0.0000000e+00 -2.1245508e-04 0.0000000e+00 
0.0000000e+00 1.7563341e-05 0.0000000e+00 
0.0000000e+00 2.8296921e-04 0.0000000e+00 
0.0000000e+00 5.8376254e-04 0.0000000e+00 
0.0000000e+00 9.1994333e-04 0.0000000e+00 
0.0000000e+00 1.2915116e-03 0.0000000e+00 
0.0000000e+00 1.6984672e-03 0.0000000e+00 
0.0000000e+00 1.0063482e-03 0.0000000e+00 
0.0000000e+00 4.3110576e-04 0.0000000e+00 
0.0000000e+00 -2.7260010e-05 0.0000000e+00 
0.0000000e+00 -3.6874917e-04 0.0000000e+00 
0.0000000e+00 -5.9336168e-04 0.0000000e+00 
0.0000000e+00 -7.0109760e-04 0.0000000e+00 
0.0000000e+00 -6.9195684e-04 0.0000000e+00 
0.0000000e+00 -5.6593952e-04 0.0000000e+00 
0.0000000e+00 -3.2304553e-04 0.0000000e+00 
0.0000000e+00 3.6725065e-05 0.0000000e+00 
0.0000000e+00 5.1337230e-04 0.0000000e+00 
0.0000000e+00 1.1068962e-03 0.0000000e+00 
0.0000000e+00 5.8286049e-04 0.0000000e+00 
0.0000000e+00 1.5583786e-04 0.0000000e+00 
0.0000000e+00 -1.7417177e-04 0.0000000e+00 
0.0000000e+00 -4.0716838e-04 0.0000000e+00 
0.0000000e+00 -5.4315198e-04 0.0000000e+00 
0.0000000e+00 -5.8212259e-04 0.0000000e+00 
0.0000000e+00 -5.2408013e-04 0.0000000e+00 
0.0000000e+00 -3.6902470e-04 0.0000000e+00 
0.0000000e+00 -1.1695624e-04 0.0000000e+00 
0.0000000e+00 2.3212524e-04 0.0000000e+00 
0.0000000e+00 6.7821972e-04 0.0000000e+00 
0.0000000e+00 1.2213272e-03 0.0000000e+00 
0.0000000e+00 6.5044861e-04 0.0000000e+00 
0.0000000e+00 1.8452153e-04 0.0000000e+00 
0.0000000e+00 -1.7645398e-04 0.0000000e+00 
0.0000000e+00 -4.3247794e-04 0.0000000e+00 
0.0000000e+00 -5.8355037e-04 0.0000000e+00 
0.0000000e+00 -6.2967121e-04 0.0000000e+00 
0.0000000e+00 -5.7084049e-04 0.0000000e+00 
0.0000000e+00 -4.0705825e-04 0.0000000e+00 
0.0000000e+00 -1.3832444e-04 0.0000000e+00 
0.0000000e+00 2.3536092e-04 0.0000000e+00 
0.0000000e+00 7.1399781e-04 0.0000000e+00 
0.0000000e+00 1.2975862e-03 0.0000000e+00 
0.0000000e+00 7.6957000e-04 0.0000000e+00 
0.0000000e+00 3.3061966e-04 0.0000000e+00 
0.0000000e+00 -1.9264789e-05 0.0000000e+00 
0.0000000e+00 -2.8008333e-04 0.0000000e+00 
0.0000000e+00 -4.5183595e-04 0.0000000e+00 
0.0000000e+00 -5.3452264e-04 0.0000000e+00 
0.0000000e+00 -5.2814343e-04 0.0000000e+00 
0.0000000e+00 -4.3269832e-04 0.0000000e+00 
0.0000000e+00 -2.4818728e-04 0.0000000e+00 
0.0000000e+00 2.5389674e-05 0.0000000e+00 
0.0000000e+00 3.8803255e-04 0.0000000e+00 
0.0000000e+00 8.3974132e-04 0.0000000e+00 
0.0000000e+00 1.6554412e-04 0.0000000e+00 
0.0000000e+00 -3.5599651e-04 0.0000000e+00 
0.0000000e+00 -7.2488061e-04 0.0000000e+00 
0.0000000e+00 -9.4110810e-04 0.0000000e+00 
0.0000000e+00 -1.0046790e-03 0.0000000e+00 
0.0000000e+00 -9.1559341e-04 0.0000000e+00 
0.0000000e+00 -6.7385123e-04 0.0000000e+00 
0.0000000e+00 -2.7945245e-04 0.0000000e+00 
0.0000000e+00 2.6760288e-04 0.0000000e+00 
0.0000000e+00 9.6731476e-04 0.0000000e+00 
0.0000000e+00 1.8196832e-03 0.0000000e+00 
0.0000000e+00 2.8247084e-03 0.0000000e+00 
0.0000000e+00 8.4942917e-04 0.0000000e+00 
0.0000000e+00 8.3173544e-04 0.0000000e+00 
0.0000000e+00 7.7865430e-04 0.0000000e+00 
0.0000000e+00 6.9018564e-04 0.0000000e+00 
0.0000000e+00 5.6632957e-04 0.0000000e+00 
0.0000000e+00 4.0708605e-04 0.0000000e+00 
0.0000000e+00 2.1245508e-04 0.0000000e+00 
0.0000000e+00 -1.7563341e-05 0.0000000e+00 
0.0000000e+00 -2.8296921e-04 0.0000000e+00 
0.0000000e+00 -5.8376254e-04 0.0000000e+00 
0.0000000e+00 -9.1994333e-04 0.0000000e+00 
0.0000000e+00 -1.2915116e-03 0.0000000e+00 
0.0000000e+00 -1.6984672e-03 0.0000000e+00 
0.0000000e+00 -1.0063482e-03 0.0000000e+00 
0.0000000e+00 -4.3110576e-04 0.0000000e+00 
0.0000000e+00 2.7260010e-05 0.0000000e+00 
0.0000000e+00 3.6874917e-04 0.0000000e+00 
0.0000000e+00 5.9336168e-04 0.0000000e+00 
0.0000000e+00 7.0109760e-04 0.0000000e+00 
0.0000000e+00 6.9195684e-04 0.0000000e+00 
0.0000000e+00 5.6593952e-04 0.0000000e+00 
0.0000000e+00 3.2304553e-04 0.0000000e+00 
0.0000000e+00 -3.6725065e-05 0.0000000e+00 
0.0000000e+00 -5.1337230e-04 0.0000000e+00 
0.0000000e+00 -1.1068962e-03 0.0000000e+00 
0.0000000e+00 -5.8286049e-04 0.0000000e+00 
0.0000000e+00 -1.5583786e-04 0.0000000e+00 
0.0000000e+00 1.7417177e-04 0.0000000e+00 
0.0000000e+00 4.0716838e-04 0.0000000e+00 
0.0000000e+00 5.4315198e-04 0.0000000e+00 
0.0000000e+00 5.8212259e-04 0.0000000e+00 
0.0000000e+00 5.2408013e-04 0.0000000e+00 
0.0000000e+00 3.6902470e-04 0.0000000e+00 
0.0000000e+00 1.1695624e-04 0.0000000e+00 
0.0000000e+00 -2.3212524e-04 0.0000000e+00 
0.0000000e+00 -6.7821972e-04 0.0000000e+00 
0.0000000e+00 -1.2213272e-03 0.0000000e+00 
0.0000000e+00 -6.5044861e-04 0.0000000e+00 
0.0000000e+00 -1.8452153e-04 0.0000000e+00 
0.0000000e+00 1.7645398e-04 0.0000000e+00 
0.0000000e+00 4.3247794e-04 0.0000000e+00 
0.0000000e+00 5.8355037e-04 0.0000000e+00 
0.0000000e+00 6.2967121e-04 0.0000000e+00 
0.0000000e+00 5.7084049e-04 0.0000000e+00 
0.0000000e+00 4.0705825e-04 0.0000000e+00 
0.0000000e+00 1.3832444e-04 0.0000000e+00 
0.0000000e+00 -2.3536092e-04 0.0000000e+00 
0.0000000e+00 -7.1399781e-04 0.0000000e+00 
0.0000000e+00 -1.2975862e-03 0.0000000e+00 
0.0000000e+00 -7.6957000e-04 0.0000000e+00 
0.0000000e+00 -3.3061966e-04 0.0000000e+00 
0.0000000e+00 1.9264789e-05 0.0000000e+00 
0.0000000e+00 2.8008333e-04 0.0000000e+00 
0.0000000e+00 4.5183595e-04 0.0000000e+00 
0.0000000e+00 5.3452264e-04 0.0000000e+00 
0.0000000e+00 5.2814343e-04 0.0000000e+00 
0.0000000e+00 4.3269832e-04 0.0000000e+00 
0.0000000e+00 2.4818728e-04 0.0000000e+00 
0.0000000e+00 -2.5389674e-05 0.0000000e+00 
0.0000000e+00 -3.8803255e-04 0.0000000e+00 
0.0000000e+00 -8.3974132e-04 0.0000000e+00 
0.0000000e+00 -1.6554412e-04 0.0000000e+00 
0.0000000e+00 3.5599651e-04 0.0000000e+00 
0.0000000e+00 7.2488061e-04 0.0000000e+00 
0.0000000e+00 9.4110810e-04 0.0000000e+00 
0.0000000e+00 1.0046790e-03 0.0000000e+00 
0.0000000e+00 9.1559341e-04 0.0000000e+00 
0.0000000e+00 6.7385123e-04 0.0000000e+00 
0.0000000e+00 2.7945245e-04 0.0000000e+00 
0.0000000e+00 -2.6760288e-04 0.0000000e+00 
0.0000000e+00 -9.6731476e-04 0.0000000e+00 
0.0000000e+00 -1.8196832e-03 0.0000000e+00 
0.0000000e+00 -2.8247084e-03 0.0000000e+00 
0.0000000e+00 3.4411519e-03 0.0000000e+00 
0.0000000e+00 4.0788753e-03 0.0000000e+00 
0.0000000e+00 3.8326294e-03 0.0000000e+00 
0.0000000e+00 2.9234067e-03 0.0000000e+00 
0.0000000e+00 1.5721995e-03 0.0000000e+00 
0.0000000e+00 -4.7293725e-16 0.0000000e+00 
0.0000000e+00 -1.5721995e-03 0.0000000e+00 
0.0000000e+00 -2.9234067e-03 0.0000000e+00 
0.0000000e+00 -3.8326294e-03 0.0000000e+00 
0.0000000e+00 -4.0788753e-03 0.0000000e+00 
0.0000000e+00 -3.4411519e-03 0.0000000e+00 
0.0000000e+00 2.9481761e-03 0.0000000e+00 
0.0000000e+00 3.6844944e-03 0.0000000e+00 
0.0000000e+00 3.5368439e-03 0.0000000e+00 
0.0000000e+00 2.7262163e-03 0.0000000e+00 
0.0000000e+00 1.4736044e-03 0.0000000e+00 
0.0000000e+00 -3.7592447e-16 0.0000000e+00 
0.0000000e+00 -1.4736044e-03 0.0000000e+00 
0.0000000e+00 -2.7262163e-03 0.0000000e+00 
0.0000000e+00 -3.5368439e-03 0.0000000e+00 
0.0000000e+00 -3.6844944e-03 0.0000000e+00 
0.0000000e+00 -2.9481761e-03 0.0000000e+00 
0.0000000e+00 3.0435352e-03 0.0000000e+00 
0.0000000e+00 3.7607818e-03 0.0000000e+00 
0.0000000e+00 3.5940595e-03 0.0000000e+00 
0.0000000e+00 2.7643600e-03 0.0000000e+00 
0.0000000e+00 1.4926762e-03 0.0000000e+00 
0.0000000e+00 -3.6986117e-16 0.0000000e+00 
0.0000000e+00 -1.4926762e-03 0.0000000e+00 
0.0000000e+00 -2.7643600e-03 0.0000000e+00 
0.0000000e+00 -3.5940595e-03 0.0000000e+00 
0.0000000e+00 -3.7607818e-03 0.0000000e+00 
0.0000000e+00 -3.0435352e-03 0.0000000e+00 
0.0000000e+00 3.1070844e-03 0.0000000e+00 
0.0000000e+00 3.8116213e-03 0.0000000e+00 
0.0000000e+00 3.6321890e-03 0.0000000e+00 
0.0000000e+00 2.7897798e-03 0.0000000e+00 
0.0000000e+00 1.5053860e-03 0.0000000e+00 
0.0000000e+00 -2.7891170e-16 0.0000000e+00 
0.0000000e+00 -1.5053860e-03 0.0000000e+00 
0.0000000e+00 -2.7897798e-03 0.0000000e+00 
0.0000000e+00 -3.6321890e-03 0.0000000e+00 
0.0000000e+00 -3.8116213e-03 0.0000000e+00 
0.0000000e+00 -3.1070844e-03 0.0000000e+00 
0.0000000e+00 2.7255469e-03 0.0000000e+00 
0.0000000e+00 3.5063913e-03 0.0000000e+00 
0.0000000e+00 3.4032664e-03 0.0000000e+00 
0.0000000e+00 2.6371647e-03 0.0000000e+00 
0.0000000e+00 1.4290785e-03 0.0000000e+00 
0.0000000e+00 -2.9103830e-16 0.0000000e+00 
0.0000000e+00 -1.4290785e-03 0.0000000e+00 
0.0000000e+00 -2.6371647e-03 0.0000000e+00 
0.0000000e+00 -3.4032664e-03 0.0000000e+00 
0.0000000e+00 -3.5063913e-03 0.0000000e+00 
0.0000000e+00 -2.7255469e-03 0.0000000e+00 
0.0000000e+00 4.3796860e-03 0.0000000e+00 
0.0000000e+00 4.8297024e-03 0.0000000e+00 
0.0000000e+00 4.3957499e-03 0.0000000e+00 