# vtk DataFile Version 4.0
vtk output
ASCII
DATASET UNSTRUCTURED_GRID
POINTS 356 float
0.0000000e+00 0.0000000e+00 0.0000000e+00 
0.0000000e+00 0.0000000e+00 1.5000001e-01 
0.0000000e+00 0.0000000e+00 3.0000001e-01 
0.0000000e+00 0.0000000e+00 4.4999999e-01 
0.0000000e+00 0.0000000e+00 6.0000002e-01 
0.0000000e+00 0.0000000e+00 7.5000000e-01 
0.0000000e+00 0.0000000e+00 8.9999998e-01 
0.0000000e+00 0.0000000e+00 1.0500000e+00 
0.0000000e+00 0.0000000e+00 1.2000000e+00 
0.0000000e+00 0.0000000e+00 1.3500000e+00 
0.0000000e+00 0.0000000e+00 1.5000000e+00 
0.0000000e+00 0.0000000e+00 1.6500000e+00 
0.0000000e+00 0.0000000e+00 1.8000000e+00 
0.0000000e+00 0.0000000e+00 1.9500000e+00 
0.0000000e+00 0.0000000e+00 2.0999999e+00 
0.0000000e+00 0.0000000e+00 2.2500000e+00 
0.0000000e+00 0.0000000e+00 2.4000001e+00 
0.0000000e+00 0.0000000e+00 2.5500000e+00 
0.0000000e+00 0.0000000e+00 2.7000000e+00 
0.0000000e+00 0.0000000e+00 2.8499999e+00 
0.0000000e+00 0.0000000e+00 3.0000000e+00 
0.0000000e+00 0.0000000e+00 3.1500001e+00 
0.0000000e+00 0.0000000e+00 3.3000000e+00 
0.0000000e+00 0.0000000e+00 3.4500000e+00 
0.0000000e+00 0.0000000e+00 3.5999999e+00 
0.0000000e+00 0.0000000e+00 3.7500000e+00 
0.0000000e+00 0.0000000e+00 3.9000001e+00 
0.0000000e+00 0.0000000e+00 4.0500002e+00 
0.0000000e+00 0.0000000e+00 4.1999998e+00 
0.0000000e+00 0.0000000e+00 4.3499999e+00 
0.0000000e+00 0.0000000e+00 4.5000000e+00 
0.0000000e+00 0.0000000e+00 4.6500001e+00 
0.0000000e+00 0.0000000e+00 4.8000002e+00 
0.0000000e+00 0.0000000e+00 4.9499998e+00 
0.0000000e+00 0.0000000e+00 5.0999999e+00 
0.0000000e+00 0.0000000e+00 5.2500000e+00 
0.0000000e+00 0.0000000e+00 5.4000001e+00 
0.0000000e+00 0.0000000e+00 5.5500002e+00 
0.0000000e+00 0.0000000e+00 5.6999998e+00 
0.0000000e+00 0.0000000e+00 5.8499999e+00 
0.0000000e+00 0.0000000e+00 6.0000000e+00 
0.0000000e+00 0.0000000e+00 6.1500001e+00 
0.0000000e+00 0.0000000e+00 6.3000002e+00 
0.0000000e+00 0.0000000e+00 6.4499998e+00 
0.0000000e+00 0.0000000e+00 6.5999999e+00 
0.0000000e+00 0.0000000e+00 6.7500000e+00 
0.0000000e+00 0.0000000e+00 6.9000001e+00 
0.0000000e+00 0.0000000e+00 7.0500002e+00 
0.0000000e+00 0.0000000e+00 7.1999998e+00 
0.0000000e+00 0.0000000e+00 7.3499999e+00 
0.0000000e+00 0.0000000e+00 7.5000000e+00 
0.0000000e+00 0.0000000e+00 7.6500001e+00 
0.0000000e+00 0.0000000e+00 7.8000002e+00 
0.0000000e+00 0.0000000e+00 7.9499998e+00 
0.0000000e+00 0.0000000e+00 8.1000004e+00 
0.0000000e+00 0.0000000e+00 8.2500000e+00 
0.0000000e+00 0.0000000e+00 8.3999996e+00 
0.0000000e+00 0.0000000e+00 8.5500002e+00 
0.0000000e+00 0.0000000e+00 8.6999998e+00 
0.0000000e+00 0.0000000e+00 8.8500004e+00 
0.0000000e+00 0.0000000e+00 9.0000000e+00 
0.0000000e+00 0.0000000e+00 9.1499996e+00 
0.0000000e+00 0.0000000e+00 9.3000002e+00 
0.0000000e+00 0.0000000e+00 9.4499998e+00 
0.0000000e+00 0.0000000e+00 9.6000004e+00 
0.0000000e+00 0.0000000e+00 9.7500000e+00 
0.0000000e+00 0.0000000e+00 9.8999996e+00 
0.0000000e+00 0.0000000e+00 1.0050000e+01 
0.0000000e+00 0.0000000e+00 1.0200000e+01 
0.0000000e+00 0.0000000e+00 1.0350000e+01 
0.0000000e+00 0.0000000e+00 1.0500000e+01 
0.0000000e+00 0.0000000e+00 1.0650000e+01 
0.0000000e+00 0.0000000e+00 1.0800000e+01 
0.0000000e+00 0.0000000e+00 1.0950000e+01 
0.0000000e+00 0.0000000e+00 1.1100000e+01 
0.0000000e+00 0.0000000e+00 1.1250000e+01 
0.0000000e+00 0.0000000e+00 1.1400000e+01 
0.0000000e+00 0.0000000e+00 1.1550000e+01 
0.0000000e+00 0.0000000e+00 1.1700000e+01 
0.0000000e+00 0.0000000e+00 1.1850000e+01 
0.0000000e+00 0.0000000e+00 1.2000000e+01 
0.0000000e+00 0.0000000e+00 1.2150000e+01 
0.0000000e+00 0.0000000e+00 1.2300000e+01 
0.0000000e+00 0.0000000e+00 1.2450000e+01 
0.0000000e+00 0.0000000e+00 1.2600000e+01 
0.0000000e+00 0.0000000e+00 1.2750000e+01 
0.0000000e+00 0.0000000e+00 1.2900000e+01 
0.0000000e+00 0.0000000e+00 1.3050000e+01 
0.0000000e+00 0.0000000e+00 1.3200000e+01 
0.0000000e+00 0.0000000e+00 1.3350000e+01 
0.0000000e+00 0.0000000e+00 1.3500000e+01 
0.0000000e+00 0.0000000e+00 1.3650000e+01 
0.0000000e+00 0.0000000e+00 1.3800000e+01 
0.0000000e+00 0.0000000e+00 1.3950000e+01 
0.0000000e+00 0.0000000e+00 1.4100000e+01 
0.0000000e+00 0.0000000e+00 1.4250000e+01 
0.0000000e+00 0.0000000e+00 1.4400000e+01 
0.0000000e+00 0.0000000e+00 1.4550000e+01 
0.0000000e+00 0.0000000e+00 1.4700000e+01 
0.0000000e+00 0.0000000e+00 1.4850000e+01 
0.0000000e+00 0.0000000e+00 1.5000000e+01 
0.0000000e+00 0.0000000e+00 1.5150000e+01 
0.0000000e+00 0.0000000e+00 1.5300000e+01 
0.0000000e+00 0.0000000e+00 1.5450000e+01 
0.0000000e+00 0.0000000e+00 1.5600000e+01 
0.0000000e+00 0.0000000e+00 1.5750000e+01 
0.0000000e+00 0.0000000e+00 1.5900000e+01 
0.0000000e+00 0.0000000e+00 1.6049999e+01 
0.0000000e+00 0.0000000e+00 1.6200001e+01 
0.0000000e+00 0.0000000e+00 1.6350000e+01 
0.0000000e+00 0.0000000e+00 1.6500000e+01 
0.0000000e+00 0.0000000e+00 1.6650000e+01 
0.0000000e+00 0.0000000e+00 1.6799999e+01 
0.0000000e+00 0.0000000e+00 1.6950001e+01 
0.0000000e+00 0.0000000e+00 1.7100000e+01 
0.0000000e+00 0.0000000e+00 1.7250000e+01 
0.0000000e+00 0.0000000e+00 1.7400000e+01 
0.0000000e+00 0.0000000e+00 1.7549999e+01 
0.0000000e+00 0.0000000e+00 1.7700001e+01 
0.0000000e+00 0.0000000e+00 1.7850000e+01 
0.0000000e+00 0.0000000e+00 1.8000000e+01 
6.0000000e+00 0.0000000e+00 0.0000000e+00 
6.0000000e+00 0.0000000e+00 1.5000001e-01 
6.0000000e+00 0.0000000e+00 3.0000001e-01 
6.0000000e+00 0.0000000e+00 4.4999999e-01 
6.0000000e+00 0.0000000e+00 6.0000002e-01 
6.0000000e+00 0.0000000e+00 7.5000000e-01 
6.0000000e+00 0.0000000e+00 8.9999998e-01 
6.0000000e+00 0.0000000e+00 1.0500000e+00 
6.0000000e+00 0.0000000e+00 1.2000000e+00 
6.0000000e+00 0.0000000e+00 1.3500000e+00 
6.0000000e+00 0.0000000e+00 1.5000000e+00 
6.0000000e+00 0.0000000e+00 1.6500000e+00 
6.0000000e+00 0.0000000e+00 1.8000000e+00 
6.0000000e+00 0.0000000e+00 1.9500000e+00 
6.0000000e+00 0.0000000e+00 2.0999999e+00 
6.0000000e+00 0.0000000e+00 2.2500000e+00 
6.0000000e+00 0.0000000e+00 2.4000001e+00 
6.0000000e+00 0.0000000e+00 2.5500000e+00 
6.0000000e+00 0.0000000e+00 2.7000000e+00 
6.0000000e+00 0.0000000e+00 2.8499999e+00 
6.0000000e+00 0.0000000e+00 3.0000000e+00 
6.0000000e+00 0.0000000e+00 3.1500001e+00 
6.0000000e+00 0.0000000e+00 3.3000000e+00 
6.0000000e+00 0.0000000e+00 3.4500000e+00 
6.0000000e+00 0.0000000e+00 3.5999999e+00 
6.0000000e+00 0.0000000e+00 3.7500000e+00 
6.0000000e+00 0.0000000e+00 3.9000001e+00 
6.0000000e+00 0.0000000e+00 4.0500002e+00 
6.0000000e+00 0.0000000e+00 4.1999998e+00 
6.0000000e+00 0.0000000e+00 4.3499999e+00 
6.0000000e+00 0.0000000e+00 4.5000000e+00 
6.0000000e+00 0.0000000e+00 4.6500001e+00 
6.0000000e+00 0.0000000e+00 4.8000002e+00 
6.0000000e+00 0.0000000e+00 4.9499998e+00 
6.0000000e+00 0.0000000e+00 5.0999999e+00 
6.0000000e+00 0.0000000e+00 5.2500000e+00 
6.0000000e+00 0.0000000e+00 5.4000001e+00 
6.0000000e+00 0.0000000e+00 5.5500002e+00 
6.0000000e+00 0.0000000e+00 5.6999998e+00 
6.0000000e+00 0.0000000e+00 5.8499999e+00 
6.0000000e+00 0.0000000e+00 6.0000000e+00 
6.0000000e+00 0.0000000e+00 6.1500001e+00 
6.0000000e+00 0.0000000e+00 6.3000002e+00 
6.0000000e+00 0.0000000e+00 6.4499998e+00 
6.0000000e+00 0.0000000e+00 6.5999999e+00 
6.0000000e+00 0.0000000e+00 6.7500000e+00 
6.0000000e+00 0.0000000e+00 6.9000001e+00 
6.0000000e+00 0.0000000e+00 7.0500002e+00 
6.0000000e+00 0.0000000e+00 7.1999998e+00 
6.0000000e+00 0.0000000e+00 7.3499999e+00 
6.0000000e+00 0.0000000e+00 7.5000000e+00 
6.0000000e+00 0.0000000e+00 7.6500001e+00 
6.0000000e+00 0.0000000e+00 7.8000002e+00 
6.0000000e+00 0.0000000e+00 7.9499998e+00 
6.0000000e+00 0.0000000e+00 8.1000004e+00 
6.0000000e+00 0.0000000e+00 8.2500000e+00 
6.0000000e+00 0.0000000e+00 8.3999996e+00 
6.0000000e+00 0.0000000e+00 8.5500002e+00 
6.0000000e+00 0.0000000e+00 8.6999998e+00 
6.0000000e+00 0.0000000e+00 8.8500004e+00 
6.0000000e+00 0.0000000e+00 9.0000000e+00 
6.0000000e+00 0.0000000e+00 9.1499996e+00 
6.0000000e+00 0.0000000e+00 9.3000002e+00 
6.0000000e+00 0.0000000e+00 9.4499998e+00 
6.0000000e+00 0.0000000e+00 9.6000004e+00 
6.0000000e+00 0.0000000e+00 9.7500000e+00 
6.0000000e+00 0.0000000e+00 9.8999996e+00 
6.0000000e+00 0.0000000e+00 1.0050000e+01 
6.0000000e+00 0.0000000e+00 1.0200000e+01 
6.0000000e+00 0.0000000e+00 1.0350000e+01 
6.0000000e+00 0.0000000e+00 1.0500000e+01 
6.0000000e+00 0.0000000e+00 1.0650000e+01 
6.0000000e+00 0.0000000e+00 1.0800000e+01 
6.0000000e+00 0.0000000e+00 1.0950000e+01 
6.0000000e+00 0.0000000e+00 1.1100000e+01 
6.0000000e+00 0.0000000e+00 1.1250000e+01 
6.0000000e+00 0.0000000e+00 1.1400000e+01 
6.0000000e+00 0.0000000e+00 1.1550000e+01 
6.0000000e+00 0.0000000e+00 1.1700000e+01 
6.0000000e+00 0.0000000e+00 1.1850000e+01 
6.0000000e+00 0.0000000e+00 1.2000000e+01 
6.0000000e+00 0.0000000e+00 1.2150000e+01 
6.0000000e+00 0.0000000e+00 1.2300000e+01 
6.0000000e+00 0.0000000e+00 1.2450000e+01 
6.0000000e+00 0.0000000e+00 1.2600000e+01 
6.0000000e+00 0.0000000e+00 1.2750000e+01 
6.0000000e+00 0.0000000e+00 1.2900000e+01 
6.0000000e+00 0.0000000e+00 1.3050000e+01 
6.0000000e+00 0.0000000e+00 1.3200000e+01 
6.0000000e+00 0.0000000e+00 1.3350000e+01 
6.0000000e+00 0.0000000e+00 1.3500000e+01 
6.0000000e+00 0.0000000e+00 1.3650000e+01 
6.0000000e+00 0.0000000e+00 1.3800000e+01 
6.0000000e+00 0.0000000e+00 1.3950000e+01 
6.0000000e+00 0.0000000e+00 1.4100000e+01 
6.0000000e+00 0.0000000e+00 1.4250000e+01 
6.0000000e+00 0.0000000e+00 1.4400000e+01 
6.0000000e+00 0.0000000e+00 1.4550000e+01 
6.0000000e+00 0.0000000e+00 1.4700000e+01 
6.0000000e+00 0.0000000e+00 1.4850000e+01 
6.0000000e+00 0.0000000e+00 1.5000000e+01 
6.0000000e+00 0.0000000e+00 1.5150000e+01 
6.0000000e+00 0.0000000e+00 1.5300000e+01 
6.0000000e+00 0.0000000e+00 1.5450000e+01 
6.0000000e+00 0.0000000e+00 1.5600000e+01 
6.0000000e+00 0.0000000e+00 1.5750000e+01 
6.0000000e+00 0.0000000e+00 1.5900000e+01 
6.0000000e+00 0.0000000e+00 1.6049999e+01 
6.0000000e+00 0.0000000e+00 1.6200001e+01 
6.0000000e+00 0.0000000e+00 1.6350000e+01 
6.0000000e+00 0.0000000e+00 1.6500000e+01 
6.0000000e+00 0.0000000e+00 1.6650000e+01 
6.0000000e+00 0.0000000e+00 1.6799999e+01 
6.0000000e+00 0.0000000e+00 1.6950001e+01 
6.0000000e+00 0.0000000e+00 1.7100000e+01 
6.0000000e+00 0.0000000e+00 1.7250000e+01 
6.0000000e+00 0.0000000e+00 1.7400000e+01 
6.0000000e+00 0.0000000e+00 1.7549999e+01 
6.0000000e+00 0.0000000e+00 1.7700001e+01 
6.0000000e+00 0.0000000e+00 1.7850000e+01 
6.0000000e+00 0.0000000e+00 1.8000000e+01 
3.0000001e-01 0.0000000e+00 3.0000000e+00 
6.0000002e-01 0.0000000e+00 3.0000000e+00 
8.9999998e-01 0.0000000e+00 3.0000000e+00 
1.2000000e+00 0.0000000e+00 3.0000000e+00 
1.5000000e+00 0.0000000e+00 3.0000000e+00 
1.8000000e+00 0.0000000e+00 3.0000000e+00 
2.0999999e+00 0.0000000e+00 3.0000000e+00 
2.4000001e+00 0.0000000e+00 3.0000000e+00 
2.7000000e+00 0.0000000e+00 3.0000000e+00 
3.0000000e+00 0.0000000e+00 3.0000000e+00 
3.3000000e+00 0.0000000e+00 3.0000000e+00 
3.5999999e+00 0.0000000e+00 3.0000000e+00 
3.9000001e+00 0.0000000e+00 3.0000000e+00 
4.1999998e+00 0.0000000e+00 3.0000000e+00 
4.5000000e+00 0.0000000e+00 3.0000000e+00 
4.8000002e+00 0.0000000e+00 3.0000000e+00 
5.0999999e+00 0.0000000e+00 3.0000000e+00 
5.4000001e+00 0.0000000e+00 3.0000000e+00 
5.6999998e+00 0.0000000e+00 3.0000000e+00 
3.0000001e-01 0.0000000e+00 6.0000000e+00 
6.0000002e-01 0.0000000e+00 6.0000000e+00 
8.9999998e-01 0.0000000e+00 6.0000000e+00 
1.2000000e+00 0.0000000e+00 6.0000000e+00 
1.5000000e+00 0.0000000e+00 6.0000000e+00 
1.8000000e+00 0.0000000e+00 6.0000000e+00 
2.0999999e+00 0.0000000e+00 6.0000000e+00 
2.4000001e+00 0.0000000e+00 6.0000000e+00 
2.7000000e+00 0.0000000e+00 6.0000000e+00 
3.0000000e+00 0.0000000e+00 6.0000000e+00 
3.3000000e+00 0.0000000e+00 6.0000000e+00 
3.5999999e+00 0.0000000e+00 6.0000000e+00 
3.9000001e+00 0.0000000e+00 6.0000000e+00 
4.1999998e+00 0.0000000e+00 6.0000000e+00 
4.5000000e+00 0.0000000e+00 6.0000000e+00 
4.8000002e+00 0.0000000e+00 6.0000000e+00 
5.0999999e+00 0.0000000e+00 6.0000000e+00 
5.4000001e+00 0.0000000e+00 6.0000000e+00 
5.6999998e+00 0.0000000e+00 6.0000000e+00 
3.0000001e-01 0.0000000e+00 9.0000000e+00 
6.0000002e-01 0.0000000e+00 9.0000000e+00 
8.9999998e-01 0.0000000e+00 9.0000000e+00 
1.2000000e+00 0.0000000e+00 9.0000000e+00 
1.5000000e+00 0.0000000e+00 9.0000000e+00 
1.8000000e+00 0.0000000e+00 9.0000000e+00 
2.0999999e+00 0.0000000e+00 9.0000000e+00 
2.4000001e+00 0.0000000e+00 9.0000000e+00 
2.7000000e+00 0.0000000e+00 9.0000000e+00 
3.0000000e+00 0.0000000e+00 9.0000000e+00 
3.3000000e+00 0.0000000e+00 9.0000000e+00 
3.5999999e+00 0.0000000e+00 9.0000000e+00 
3.9000001e+00 0.0000000e+00 9.0000000e+00 
4.1999998e+00 0.0000000e+00 9.0000000e+00 
4.5000000e+00 0.0000000e+00 9.0000000e+00 
4.8000002e+00 0.0000000e+00 9.0000000e+00 
5.0999999e+00 0.0000000e+00 9.0000000e+00 
5.4000001e+00 0.0000000e+00 9.0000000e+00 
5.6999998e+00 0.0000000e+00 9.0000000e+00 
3.0000001e-01 0.0000000e+00 1.2000000e+01 
6.0000002e-01 0.0000000e+00 1.2000000e+01 
8.9999998e-01 0.0000000e+00 1.2000000e+01 
1.2000000e+00 0.0000000e+00 1.2000000e+01 
1.5000000e+00 0.0000000e+00 1.2000000e+01 
1.8000000e+00 0.0000000e+00 1.2000000e+01 
2.0999999e+00 0.0000000e+00 1.2000000e+01 
2.4000001e+00 0.0000000e+00 1.2000000e+01 
2.7000000e+00 0.0000000e+00 1.2000000e+01 
3.0000000e+00 0.0000000e+00 1.2000000e+01 
3.3000000e+00 0.0000000e+00 1.2000000e+01 
3.5999999e+00 0.0000000e+00 1.2000000e+01 
3.9000001e+00 0.0000000e+00 1.2000000e+01 
4.1999998e+00 0.0000000e+00 1.2000000e+01 
4.5000000e+00 0.0000000e+00 1.2000000e+01 
4.8000002e+00 0.0000000e+00 1.2000000e+01 
5.0999999e+00 0.0000000e+00 1.2000000e+01 
5.4000001e+00 0.0000000e+00 1.2000000e+01 
5.6999998e+00 0.0000000e+00 1.2000000e+01 
3.0000001e-01 0.0000000e+00 1.5000000e+01 
6.0000002e-01 0.0000000e+00 1.5000000e+01 
8.9999998e-01 0.0000000e+00 1.5000000e+01 
1.2000000e+00 0.0000000e+00 1.5000000e+01 
1.5000000e+00 0.0000000e+00 1.5000000e+01 
1.8000000e+00 0.0000000e+00 1.5000000e+01 
2.0999999e+00 0.0000000e+00 1.5000000e+01 
2.4000001e+00 0.0000000e+00 1.5000000e+01 
2.7000000e+00 0.0000000e+00 1.5000000e+01 
3.0000000e+00 0.0000000e+00 1.5000000e+01 
3.3000000e+00 0.0000000e+00 1.5000000e+01 
3.5999999e+00 0.0000000e+00 1.5000000e+01 
3.9000001e+00 0.0000000e+00 1.5000000e+01 
4.1999998e+00 0.0000000e+00 1.5000000e+01 
4.5000000e+00 0.0000000e+00 1.5000000e+01 
4.8000002e+00 0.0000000e+00 1.5000000e+01 
5.0999999e+00 0.0000000e+00 1.5000000e+01 
5.4000001e+00 0.0000000e+00 1.5000000e+01 
5.6999998e+00 0.0000000e+00 1.5000000e+01 
3.0000001e-01 0.0000000e+00 1.8000000e+01 
6.0000002e-01 0.0000000e+00 1.8000000e+01 
8.9999998e-01 0.0000000e+00 1.8000000e+01 
1.2000000e+00 0.0000000e+00 1.8000000e+01 
1.5000000e+00 0.0000000e+00 1.8000000e+01 
1.8000000e+00 0.0000000e+00 1.8000000e+01 
2.0999999e+00 0.0000000e+00 1.8000000e+01 
2.4000001e+00 0.0000000e+00 1.8000000e+01 
2.7000000e+00 0.0000000e+00 1.8000000e+01 
3.0000000e+00 0.0000000e+00 1.8000000e+01 
3.3000000e+00 0.0000000e+00 1.8000000e+01 
3.5999999e+00 0.0000000e+00 1.8000000e+01 
3.9000001e+00 0.0000000e+00 1.8000000e+01 
4.1999998e+00 0.0000000e+00 1.8000000e+01 
4.5000000e+00 0.0000000e+00 1.8000000e+01 
4.8000002e+00 0.0000000e+00 1.8000000e+01 
5.0999999e+00 0.0000000e+00 1.8000000e+01 
5.4000001e+00 0.0000000e+00 1.8000000e+01 
5.6999998e+00 0.0000000e+00 1.8000000e+01 

CELLS 360 1080
2 0 1
2 1 2
2 2 3
2 3 4
2 4 5
2 5 6
2 6 7
2 7 8
2 8 9
2 9 10
2 10 11
2 11 12
2 12 13
2 13 14
2 14 15
2 15 16
2 16 17
2 17 18
2 18 19
2 19 20
2 20 21
2 21 22
2 22 23
2 23 24
2 24 25
2 25 26
2 26 27
2 27 28
2 28 29
2 29 30
2 30 31
2 31 32
2 32 33
2 33 34
2 34 35
2 35 36
2 36 37
2 37 38
2 38 39
2 39 40
2 40 41
2 41 42
2 42 43
2 43 44
2 44 45
2 45 46
2 46 47
2 47 48
2 48 49
2 49 50
2 50 51
2 51 52
2 52 53
2 53 54
2 54 55
2 55 56
2 56 57
2 57 58
2 58 59
2 59 60
2 60 61
2 61 62
2 62 63
2 63 64
2 64 65
2 65 66
2 66 67
2 67 68
2 68 69
2 69 70
2 70 71
2 71 72
2 72 73
2 73 74
2 74 75
2 75 76
2 76 77
2 77 78
2 78 79
2 79 80
2 80 81
2 81 82
2 82 83
2 83 84
2 84 85
2 85 86
2 86 87
2 87 88
2 88 89
2 89 90
2 90 91
2 91 92
2 92 93
2 93 94
2 94 95
2 95 96
2 96 97
2 97 98
2 98 99
2 99 100
2 100 101
2 101 102
2 102 103
2 103 104
2 104 105
2 105 106
2 106 107
2 107 108
2 108 109
2 109 110
2 110 111
2 111 112
2 112 113
2 113 114
2 114 115
2 115 116
2 116 117
2 117 118
2 118 119
2 119 120
2 121 122
2 122 123
2 123 124
2 124 125
2 125 126
2 126 127
2 127 128
2 128 129
2 129 130
2 130 131
2 131 132
2 132 133
2 133 134
2 134 135
2 135 136
2 136 137
2 137 138
2 138 139
2 139 140
2 140 141
2 141 142
2 142 143
2 143 144
2 144 145
2 145 146
2 146 147
2 147 148
2 148 149
2 149 150
2 150 151
2 151 152
2 152 153
2 153 154
2 154 155
2 155 156
2 156 157
2 157 158
2 158 159
2 159 160
2 160 161
2 161 162
2 162 163
2 163 164
2 164 165
2 165 166
2 166 167
2 167 168
2 168 169
2 169 170
2 170 171
2 171 172
2 172 173
2 173 174
2 174 175
2 175 176
2 176 177
2 177 178
2 178 179
2 179 180
2 180 181
2 181 182
2 182 183
2 183 184
2 184 185
2 185 186
2 186 187
2 187 188
2 188 189
2 189 190
2 190 191
2 191 192
2 192 193
2 193 194
2 194 195
2 195 196
2 196 197
2 197 198
2 198 199
2 199 200
2 200 201
2 201 202
2 202 203
2 203 204
2 204 205
2 205 206
2 206 207
2 207 208
2 208 209
2 209 210
2 210 211
2 211 212
2 212 213
2 213 214
2 214 215
2 215 216
2 216 217
2 217 218
2 218 219
2 219 220
2 220 221
2 221 222
2 222 223
2 223 224
2 224 225
2 225 226
2 226 227
2 227 228
2 228 229
2 229 230
2 230 231
2 231 232
2 232 233
2 233 234
2 234 235
2 235 236
2 236 237
2 237 238
2 238 239
2 239 240
2 240 241
2 20 242
2 242 243
2 243 244
2 244 245
2 245 246
2 246 247
2 247 248
2 248 249
2 249 250
2 250 251
2 251 252
2 252 253
2 253 254
2 254 255
2 255 256
2 256 257
2 257 258
2 258 259
2 259 260
2 260 141
2 40 261
2 261 262
2 262 263
2 263 264
2 264 265
2 265 266
2 266 267
2 267 268
2 268 269
2 269 270
2 270 271
2 271 272
2 272 273
2 273 274
2 274 275
2 275 276
2 276 277
2 277 278
2 278 279
2 279 161
2 60 280
2 280 281
2 281 282
2 282 283
2 283 284
2 284 285
2 285 286
2 286 287
2 287 288
2 288 289
2 289 290
2 290 291
2 291 292
2 292 293
2 293 294
2 294 295
2 295 296
2 296 297
2 297 298
2 298 181
2 80 299
2 299 300
2 300 301
2 301 302
2 302 303
2 303 304
2 304 305
2 305 306
2 306 307
2 307 308
2 308 309
2 309 310
2 310 311
2 311 312
2 312 313
2 313 314
2 314 315
2 315 316
2 316 317
2 317 201
2 100 318
2 318 319
2 319 320
2 320 321
2 321 322
2 322 323
2 323 324
2 324 325
2 325 326
2 326 327
2 327 328
2 328 329
2 329 330
2 330 331
2 331 332
2 332 333
2 333 334
2 334 335
2 335 336
2 336 221
2 120 337
2 337 338
2 338 339
2 339 340
2 340 341
2 341 342
2 342 343
2 343 344
2 344 345
2 345 346
2 346 347
2 347 348
2 348 349
2 349 350
2 350 351
2 351 352
2 352 353
2 353 354
2 354 355
2 355 241

CELL_TYPES 360
3
3
3
3
3
3
3
3
3
3
3
3
3
3
3
3
3
3
3
3
3
3
3
3
3
3
3
3
3
3
3
3
3
3
3
3
3
3
3
3
3
3
3
3
3
3
3
3
3
3
3
3
3
3
3
3
3
3
3
3
3
3
3
3
3
3
3
3
3
3
3
3
3
3
3
3
3
3
3
3
3
3
3
3
3
3
3
3
3
3
3
3
3
3
3
3
3
3
3
3
3
3
3
3
3
3
3
3
3
3
3
3
3
3
3
3
3
3
3
3
3
3
3
3
3
3
3
3
3
3
3
3
3
3
3
3
3
3
3
3
3
3
3
3
3
3
3
3
3
3
3
3
3
3
3
3
3
3
3
3
3
3
3
3
3
3
3
3
3
3
3
3
3
3
3
3
3
3
3
3
3
3
3
3
3
3
3
3
3
3
3
3
3
3
3
3
3
3
3
3
3
3
3
3
3
3
3
3
3
3
3
3
3
3
3
3
3
3
3
3
3
3
3
3
3
3
3
3
3
3
3
3
3
3
3
3
3
3
3
3
3
3
3
3
3
3
3
3
3
3
3
3
3
3
3
3
3
3
3
3
3
3
3
3
3
3
3
3
3
3
3
3
3
3
3
3
3
3
3
3
3
3
3
3
3
3
3
3
3
3
3
3
3
3
3
3
3
3
3
3
3
3
3
3
3
3
3
3
3
3
3
3
3
3
3
3
3
3
3
3
3
3
3
3
3
3
3
3
3
3
3
3
3
3
3
3
3
3
3
3
3
3
3
3
3
3
3
3
3
3
3
3
3
3
3
3
3
3
3
3
POINT_DATA 356
FIELD FieldData 3
ADJOINT_DISPLACEMENT 3 356  float
0.0000000e+00 0.0000000e+00 0.0000000e+00 
-2.7370511e-04 0.0000000e+00 1.3762621e-09 
-1.1023895e-03 0.0000000e+00 2.7525242e-09 
-2.4974069e-03 0.0000000e+00 4.1287862e-09 
-4.4701109e-03 0.0000000e+00 5.5050484e-09 
-7.0318547e-03 0.0000000e+00 6.8813106e-09 
-1.0193992e-02 0.0000000e+00 8.2575724e-09 
-1.3967878e-02 0.0000000e+00 9.6338351e-09 
-1.8364863e-02 0.0000000e+00 1.1010097e-08 
-2.3396306e-02 0.0000000e+00 1.2386359e-08 
-2.9073553e-02 0.0000000e+00 1.3762621e-08 
-3.5407964e-02 0.0000000e+00 1.5138884e-08 
-4.2410892e-02 0.0000000e+00 1.6515145e-08 
-5.0093684e-02 0.0000000e+00 1.7891407e-08 
-5.8467705e-02 0.0000000e+00 1.9267670e-08 
-6.7544296e-02 0.0000000e+00 2.0643931e-08 
-7.7334821e-02 0.0000000e+00 2.2020194e-08 
-8.7850630e-02 0.0000000e+00 2.3396456e-08 
-9.9103071e-02 0.0000000e+00 2.4772717e-08 
-1.1110351e-01 0.0000000e+00 2.6148980e-08 
-1.2386329e-01 0.0000000e+00 2.7525243e-08 
-1.3838002e-01 0.0000000e+00 3.3030290e-08 
-1.5580477e-01 0.0000000e+00 3.8535333e-08 
-1.7637904e-01 0.0000000e+00 4.4040380e-08 
-2.0034434e-01 0.0000000e+00 4.9545424e-08 
-2.2794218e-01 0.0000000e+00 5.5050471e-08 
-2.5941411e-01 0.0000000e+00 6.0555514e-08 
-2.9500160e-01 0.0000000e+00 6.6060565e-08 
-3.3494616e-01 0.0000000e+00 7.1565609e-08 
-3.7948933e-01 0.0000000e+00 7.7070652e-08 
-4.2887264e-01 0.0000000e+00 8.2575703e-08 
-4.8333758e-01 0.0000000e+00 8.8080746e-08 
-5.4312563e-01 0.0000000e+00 9.3585790e-08 
-6.0847837e-01 0.0000000e+00 9.9090840e-08 
-6.7963725e-01 0.0000000e+00 1.0459588e-07 
-7.5684386e-01 0.0000000e+00 1.1010093e-07 
-6.9033962e-01 0.0000000e+00 1.1560597e-07 
-6.3036609e-01 0.0000000e+00 1.2111101e-07 
-5.7716483e-01 0.0000000e+00 1.2661607e-07 
-5.3097725e-01 0.0000000e+00 1.3212112e-07 
-4.9204499e-01 0.0000000e+00 1.3762616e-07 
-4.5899278e-01 0.0000000e+00 1.3877512e-07 
-4.3011487e-01 0.0000000e+00 1.3992410e-07 
-4.0515688e-01 0.0000000e+00 1.4107306e-07 
-3.8386437e-01 0.0000000e+00 1.4222202e-07 
-3.6598295e-01 0.0000000e+00 1.4337098e-07 
-3.5125816e-01 0.0000000e+00 1.4451996e-07 
-3.3943561e-01 0.0000000e+00 1.4566892e-07 
-3.3026087e-01 0.0000000e+00 1.4681788e-07 
-3.2347953e-01 0.0000000e+00 1.4796686e-07 
-3.1883720e-01 0.0000000e+00 1.4911582e-07 
-3.1607941e-01 0.0000000e+00 1.5026478e-07 
-3.1495178e-01 0.0000000e+00 1.5141376e-07 
-3.1519988e-01 0.0000000e+00 1.5256272e-07 
-3.1656933e-01 0.0000000e+00 1.5371168e-07 
-3.1880563e-01 0.0000000e+00 1.5486066e-07 
-3.2165447e-01 0.0000000e+00 1.5600962e-07 
-3.2486135e-01 0.0000000e+00 1.5715858e-07 
-3.2817188e-01 0.0000000e+00 1.5830756e-07 
-3.3133167e-01 0.0000000e+00 1.5945652e-07 
-3.3408627e-01 0.0000000e+00 1.6060548e-07 
-3.3615890e-01 0.0000000e+00 1.6084527e-07 
-3.3748215e-01 0.0000000e+00 1.6108505e-07 
-3.3811566e-01 0.0000000e+00 1.6132483e-07 
-3.3811903e-01 0.0000000e+00 1.6156463e-07 
-3.3755183e-01 0.0000000e+00 1.6180441e-07 
-3.3647373e-01 0.0000000e+00 1.6204419e-07 
-3.3494431e-01 0.0000000e+00 1.6228397e-07 
-3.3302316e-01 0.0000000e+00 1.6252376e-07 
-3.3076996e-01 0.0000000e+00 1.6276354e-07 
-3.2824427e-01 0.0000000e+00 1.6300332e-07 
-3.2550570e-01 0.0000000e+00 1.6324312e-07 
-3.2261392e-01 0.0000000e+00 1.6348289e-07 
-3.1962848e-01 0.0000000e+00 1.6372267e-07 
-3.1660903e-01 0.0000000e+00 1.6396247e-07 
-3.1361514e-01 0.0000000e+00 1.6420225e-07 
-3.1070650e-01 0.0000000e+00 1.6444203e-07 
-3.0794263e-01 0.0000000e+00 1.6468182e-07 
-3.0538321e-01 0.0000000e+00 1.6492160e-07 
-3.0308783e-01 0.0000000e+00 1.6516138e-07 
-3.0111611e-01 0.0000000e+00 1.6540118e-07 
-2.9944217e-01 0.0000000e+00 1.6545113e-07 
-2.9799122e-01 0.0000000e+00 1.6550108e-07 
-2.9674938e-01 0.0000000e+00 1.6555104e-07 
-2.9570287e-01 0.0000000e+00 1.6560099e-07 
-2.9483777e-01 0.0000000e+00 1.6565095e-07 
-2.9414028e-01 0.0000000e+00 1.6570091e-07 
-2.9359657e-01 0.0000000e+00 1.6575086e-07 
-2.9319277e-01 0.0000000e+00 1.6580081e-07 
-2.9291502e-01 0.0000000e+00 1.6585076e-07 
-2.9274952e-01 0.0000000e+00 1.6590073e-07 
-2.9268244e-01 0.0000000e+00 1.6595068e-07 
-2.9269987e-01 0.0000000e+00 1.6600063e-07 
-2.9278803e-01 0.0000000e+00 1.6605060e-07 
-2.9293305e-01 0.0000000e+00 1.6610055e-07 
-2.9312107e-01 0.0000000e+00 1.6615050e-07 
-2.9333827e-01 0.0000000e+00 1.6620045e-07 
-2.9357082e-01 0.0000000e+00 1.6625042e-07 
-2.9380485e-01 0.0000000e+00 1.6630037e-07 
-2.9402655e-01 0.0000000e+00 1.6635032e-07 
-2.9422206e-01 0.0000000e+00 1.6640027e-07 
-2.9437873e-01 0.0000000e+00 1.6641027e-07 
-2.9449493e-01 0.0000000e+00 1.6642026e-07 
-2.9457337e-01 0.0000000e+00 1.6643025e-07 
-2.9461670e-01 0.0000000e+00 1.6644024e-07 
-2.9462764e-01 0.0000000e+00 1.6645023e-07 
-2.9460883e-01 0.0000000e+00 1.6646023e-07 
-2.9456294e-01 0.0000000e+00 1.6647022e-07 
-2.9449269e-01 0.0000000e+00 1.6648021e-07 
-2.9440075e-01 0.0000000e+00 1.6649020e-07 
-2.9428977e-01 0.0000000e+00 1.6650019e-07 
-2.9416245e-01 0.0000000e+00 1.6651018e-07 
-2.9402146e-01 0.0000000e+00 1.6652017e-07 
-2.9386950e-01 0.0000000e+00 1.6653016e-07 
-2.9370922e-01 0.0000000e+00 1.6654015e-07 
-2.9354334e-01 0.0000000e+00 1.6655014e-07 
-2.9337448e-01 0.0000000e+00 1.6656013e-07 
-2.9320538e-01 0.0000000e+00 1.6657012e-07 
-2.9303870e-01 0.0000000e+00 1.6658012e-07 
-2.9287708e-01 0.0000000e+00 1.6659011e-07 
-2.9272324e-01 0.0000000e+00 1.6660010e-07 
0.0000000e+00 0.0000000e+00 0.0000000e+00 
-3.4561229e-04 0.0000000e+00 -1.3762621e-09 
-1.3748802e-03 0.0000000e+00 -2.7525242e-09 
-3.0764500e-03 0.0000000e+00 -4.1287862e-09 
-5.4389681e-03 0.0000000e+00 -5.5050484e-09 
-8.4510809e-03 0.0000000e+00 -6.8813106e-09 
-1.2101435e-02 0.0000000e+00 -8.2575724e-09 
-1.6378677e-02 0.0000000e+00 -9.6338351e-09 
-2.1271452e-02 0.0000000e+00 -1.1010097e-08 
-2.6768409e-02 0.0000000e+00 -1.2386359e-08 
-3.2858189e-02 0.0000000e+00 -1.3762621e-08 
-3.9529447e-02 0.0000000e+00 -1.5138884e-08 
-4.6770822e-02 0.0000000e+00 -1.6515145e-08 
-5.4570962e-02 0.0000000e+00 -1.7891407e-08 
-6.2918514e-02 0.0000000e+00 -1.9267670e-08 
-7.1802132e-02 0.0000000e+00 -2.0643931e-08 
-8.1210449e-02 0.0000000e+00 -2.2020194e-08 
-9.1132119e-02 0.0000000e+00 -2.3396456e-08 
-1.0155579e-01 0.0000000e+00 -2.4772717e-08 
-1.1247010e-01 0.0000000e+00 -2.6148980e-08 
-1.2386370e-01 0.0000000e+00 -2.7525243e-08 
-1.3659693e-01 0.0000000e+00 -3.3030290e-08 
-1.5137669e-01 0.0000000e+00 -3.8535333e-08 
-1.6796148e-01 0.0000000e+00 -4.4040380e-08 
-1.8610977e-01 0.0000000e+00 -4.9545424e-08 
-2.0558006e-01 0.0000000e+00 -5.5050471e-08 
-2.2613081e-01 0.0000000e+00 -6.0555514e-08 
-2.4752054e-01 0.0000000e+00 -6.6060565e-08 
-2.6950771e-01 0.0000000e+00 -7.1565609e-08 
-2.9185084e-01 0.0000000e+00 -7.7070652e-08 
-3.1430835e-01 0.0000000e+00 -8.2575703e-08 
-3.3663881e-01 0.0000000e+00 -8.8080746e-08 
-3.5860065e-01 0.0000000e+00 -9.3585790e-08 
-3.7995237e-01 0.0000000e+00 -9.9090840e-08 
-4.0045246e-01 0.0000000e+00 -1.0459588e-07 
-4.1985944e-01 0.0000000e+00 -1.1010093e-07 
-4.3793175e-01 0.0000000e+00 -1.1560598e-07 
-4.5442787e-01 0.0000000e+00 -1.2111101e-07 
-4.6910632e-01 0.0000000e+00 -1.2661607e-07 
-4.8172554e-01 0.0000000e+00 -1.3212112e-07 
-4.9204409e-01 0.0000000e+00 -1.3762616e-07 
-4.9947685e-01 0.0000000e+00 -1.3877512e-07 
-5.0376934e-01 0.0000000e+00 -1.3992410e-07 
-5.0517601e-01 0.0000000e+00 -1.4107306e-07 
-5.0395125e-01 0.0000000e+00 -1.4222202e-07 
-5.0034952e-01 0.0000000e+00 -1.4337098e-07 
-4.9462521e-01 0.0000000e+00 -1.4451996e-07 
-4.8703271e-01 0.0000000e+00 -1.4566892e-07 
-4.7782648e-01 0.0000000e+00 -1.4681788e-07 
-4.6726090e-01 0.0000000e+00 -1.4796686e-07 
-4.5559043e-01 0.0000000e+00 -1.4911582e-07 
-4.4306943e-01 0.0000000e+00 -1.5026478e-07 
-4.2995238e-01 0.0000000e+00 -1.5141376e-07 
-4.1649362e-01 0.0000000e+00 -1.5256272e-07 
-4.0294766e-01 0.0000000e+00 -1.5371168e-07 
-3.8956884e-01 0.0000000e+00 -1.5486066e-07 
-3.7661159e-01 0.0000000e+00 -1.5600962e-07 
-3.6433035e-01 0.0000000e+00 -1.5715858e-07 
-3.5297954e-01 0.0000000e+00 -1.5830756e-07 
-3.4281355e-01 0.0000000e+00 -1.5945652e-07 
-3.3408681e-01 0.0000000e+00 -1.6060548e-07 
-3.2666698e-01 0.0000000e+00 -1.6084527e-07 
-3.2021230e-01 0.0000000e+00 -1.6108505e-07 
-3.1466320e-01 0.0000000e+00 -1.6132483e-07 
-3.0996007e-01 0.0000000e+00 -1.6156463e-07 
-3.0604327e-01 0.0000000e+00 -1.6180441e-07 
-3.0285323e-01 0.0000000e+00 -1.6204419e-07 
-3.0033028e-01 0.0000000e+00 -1.6228398e-07 
-2.9841483e-01 0.0000000e+00 -1.6252376e-07 
-2.9704729e-01 0.0000000e+00 -1.6276354e-07 
-2.9616803e-01 0.0000000e+00 -1.6300334e-07 
-2.9571742e-01 0.0000000e+00 -1.6324312e-07 
-2.9563588e-01 0.0000000e+00 -1.6348289e-07 
-2.9586378e-01 0.0000000e+00 -1.6372267e-07 
-2.9634151e-01 0.0000000e+00 -1.6396247e-07 
-2.9700947e-01 0.0000000e+00 -1.6420225e-07 
-2.9780802e-01 0.0000000e+00 -1.6444203e-07 
-2.9867753e-01 0.0000000e+00 -1.6468182e-07 
-2.9955846e-01 0.0000000e+00 -1.6492160e-07 
-3.0039114e-01 0.0000000e+00 -1.6516138e-07 
-3.0111599e-01 0.0000000e+00 -1.6540118e-07 
-3.0167338e-01 0.0000000e+00 -1.6545113e-07 
-3.0205280e-01 0.0000000e+00 -1.6550108e-07 
-3.0226803e-01 0.0000000e+00 -1.6555104e-07 
-3.0233294e-01 0.0000000e+00 -1.6560099e-07 
-3.0226135e-01 0.0000000e+00 -1.6565095e-07 
-3.0206710e-01 0.0000000e+00 -1.6570091e-07 
-3.0176407e-01 0.0000000e+00 -1.6575086e-07 
-3.0136609e-01 0.0000000e+00 -1.6580081e-07 
-3.0088699e-01 0.0000000e+00 -1.6585076e-07 
-3.0034059e-01 0.0000000e+00 -1.6590073e-07 
-2.9974079e-01 0.0000000e+00 -1.6595068e-07 
-2.9910138e-01 0.0000000e+00 -1.6600063e-07 
-2.9843622e-01 0.0000000e+00 -1.6605060e-07 
-2.9775918e-01 0.0000000e+00 -1.6610055e-07 
-2.9708406e-01 0.0000000e+00 -1.6615050e-07 
-2.9642475e-01 0.0000000e+00 -1.6620045e-07 
-2.9579502e-01 0.0000000e+00 -1.6625042e-07 
-2.9520878e-01 0.0000000e+00 -1.6630037e-07 
-2.9467985e-01 0.0000000e+00 -1.6635032e-07 
-2.9422209e-01 0.0000000e+00 -1.6640028e-07 
-2.9383013e-01 0.0000000e+00 -1.6641027e-07 
-2.9348758e-01 0.0000000e+00 -1.6642026e-07 
-2.9319182e-01 0.0000000e+00 -1.6643025e-07 
-2.9294017e-01 0.0000000e+00 -1.6644024e-07 
-2.9272988e-01 0.0000000e+00 -1.6645023e-07 
-2.9255837e-01 0.0000000e+00 -1.6646023e-07 
-2.9242289e-01 0.0000000e+00 -1.6647022e-07 
-2.9232079e-01 0.0000000e+00 -1.6648021e-07 
-2.9224935e-01 0.0000000e+00 -1.6649020e-07 
-2.9220596e-01 0.0000000e+00 -1.6650019e-07 
-2.9218790e-01 0.0000000e+00 -1.6651018e-07 
-2.9219249e-01 0.0000000e+00 -1.6652017e-07 