# vtk DataFile Version 4.0
vtk output
ASCII
DATASET UNSTRUCTURED_GRID
POINTS 212 float
0.0000000e+00 0.0000000e+00 0.0000000e+00 
0.0000000e+00 0.0000000e+00 2.5000000e-01 
0.0000000e+00 0.0000000e+00 5.0000000e-01 
0.0000000e+00 0.0000000e+00 7.5000000e-01 
0.0000000e+00 0.0000000e+00 1.0000000e+00 
0.0000000e+00 0.0000000e+00 1.2500000e+00 
0.0000000e+00 0.0000000e+00 1.5000000e+00 
0.0000000e+00 0.0000000e+00 1.7500000e+00 
0.0000000e+00 0.0000000e+00 2.0000000e+00 
0.0000000e+00 0.0000000e+00 2.2500000e+00 
0.0000000e+00 0.0000000e+00 2.5000000e+00 
0.0000000e+00 0.0000000e+00 2.7500000e+00 
0.0000000e+00 0.0000000e+00 3.0000000e+00 
0.0000000e+00 0.0000000e+00 3.2500000e+00 
0.0000000e+00 0.0000000e+00 3.5000000e+00 
0.0000000e+00 0.0000000e+00 3.7500000e+00 
0.0000000e+00 0.0000000e+00 4.0000000e+00 
0.0000000e+00 0.0000000e+00 4.2500000e+00 
0.0000000e+00 0.0000000e+00 4.5000000e+00 
0.0000000e+00 0.0000000e+00 4.7500000e+00 
0.0000000e+00 0.0000000e+00 5.0000000e+00 
0.0000000e+00 0.0000000e+00 5.2500000e+00 
0.0000000e+00 0.0000000e+00 5.5000000e+00 
0.0000000e+00 0.0000000e+00 5.7500000e+00 
0.0000000e+00 0.0000000e+00 6.0000000e+00 
0.0000000e+00 0.0000000e+00 6.2500000e+00 
0.0000000e+00 0.0000000e+00 6.5000000e+00 
0.0000000e+00 0.0000000e+00 6.7500000e+00 
0.0000000e+00 0.0000000e+00 7.0000000e+00 
0.0000000e+00 0.0000000e+00 7.2500000e+00 
0.0000000e+00 0.0000000e+00 7.5000000e+00 
0.0000000e+00 0.0000000e+00 7.7500000e+00 
0.0000000e+00 0.0000000e+00 8.0000000e+00 
0.0000000e+00 0.0000000e+00 8.2500000e+00 
0.0000000e+00 0.0000000e+00 8.5000000e+00 
0.0000000e+00 0.0000000e+00 8.7500000e+00 
0.0000000e+00 0.0000000e+00 9.0000000e+00 
0.0000000e+00 0.0000000e+00 9.2500000e+00 
0.0000000e+00 0.0000000e+00 9.5000000e+00 
0.0000000e+00 0.0000000e+00 9.7500000e+00 
0.0000000e+00 0.0000000e+00 1.0000000e+01 
0.0000000e+00 0.0000000e+00 1.0250000e+01 
0.0000000e+00 0.0000000e+00 1.0500000e+01 
0.0000000e+00 0.0000000e+00 1.0750000e+01 
0.0000000e+00 0.0000000e+00 1.1000000e+01 
0.0000000e+00 0.0000000e+00 1.1250000e+01 
0.0000000e+00 0.0000000e+00 1.1500000e+01 
0.0000000e+00 0.0000000e+00 1.1750000e+01 
0.0000000e+00 0.0000000e+00 1.2000000e+01 
0.0000000e+00 0.0000000e+00 1.2250000e+01 
0.0000000e+00 0.0000000e+00 1.2500000e+01 
0.0000000e+00 0.0000000e+00 1.2750000e+01 
0.0000000e+00 0.0000000e+00 1.3000000e+01 
0.0000000e+00 0.0000000e+00 1.3250000e+01 
0.0000000e+00 0.0000000e+00 1.3500000e+01 
0.0000000e+00 0.0000000e+00 1.3750000e+01 
0.0000000e+00 0.0000000e+00 1.4000000e+01 
0.0000000e+00 0.0000000e+00 1.4250000e+01 
0.0000000e+00 0.0000000e+00 1.4500000e+01 
0.0000000e+00 0.0000000e+00 1.4750000e+01 
0.0000000e+00 0.0000000e+00 1.5000000e+01 
0.0000000e+00 0.0000000e+00 1.5250000e+01 
0.0000000e+00 0.0000000e+00 1.5500000e+01 
0.0000000e+00 0.0000000e+00 1.5750000e+01 
0.0000000e+00 0.0000000e+00 1.6000000e+01 
0.0000000e+00 0.0000000e+00 1.6250000e+01 
0.0000000e+00 0.0000000e+00 1.6500000e+01 
0.0000000e+00 0.0000000e+00 1.6750000e+01 
0.0000000e+00 0.0000000e+00 1.7000000e+01 
0.0000000e+00 0.0000000e+00 1.7250000e+01 
0.0000000e+00 0.0000000e+00 1.7500000e+01 
0.0000000e+00 0.0000000e+00 1.7750000e+01 
0.0000000e+00 0.0000000e+00 1.8000000e+01 
5.0000000e-01 0.0000000e+00 3.0000000e+00 
5.0000000e-01 0.0000000e+00 6.0000000e+00 
5.0000000e-01 0.0000000e+00 9.0000000e+00 
5.0000000e-01 0.0000000e+00 1.2000000e+01 
5.0000000e-01 0.0000000e+00 1.5000000e+01 
5.0000000e-01 0.0000000e+00 1.8000000e+01 
1.0000000e+00 0.0000000e+00 3.0000000e+00 
1.0000000e+00 0.0000000e+00 6.0000000e+00 
1.0000000e+00 0.0000000e+00 9.0000000e+00 
1.0000000e+00 0.0000000e+00 1.2000000e+01 
1.0000000e+00 0.0000000e+00 1.5000000e+01 
1.0000000e+00 0.0000000e+00 1.8000000e+01 
1.5000000e+00 0.0000000e+00 3.0000000e+00 
1.5000000e+00 0.0000000e+00 6.0000000e+00 
1.5000000e+00 0.0000000e+00 9.0000000e+00 
1.5000000e+00 0.0000000e+00 1.2000000e+01 
1.5000000e+00 0.0000000e+00 1.5000000e+01 
1.5000000e+00 0.0000000e+00 1.8000000e+01 
2.0000000e+00 0.0000000e+00 3.0000000e+00 
2.0000000e+00 0.0000000e+00 6.0000000e+00 
2.0000000e+00 0.0000000e+00 9.0000000e+00 
2.0000000e+00 0.0000000e+00 1.2000000e+01 
2.0000000e+00 0.0000000e+00 1.5000000e+01 
2.0000000e+00 0.0000000e+00 1.8000000e+01 
2.5000000e+00 0.0000000e+00 3.0000000e+00 
2.5000000e+00 0.0000000e+00 6.0000000e+00 
2.5000000e+00 0.0000000e+00 9.0000000e+00 
2.5000000e+00 0.0000000e+00 1.2000000e+01 
2.5000000e+00 0.0000000e+00 1.5000000e+01 
2.5000000e+00 0.0000000e+00 1.8000000e+01 
3.0000000e+00 0.0000000e+00 3.0000000e+00 
3.0000000e+00 0.0000000e+00 6.0000000e+00 
3.0000000e+00 0.0000000e+00 9.0000000e+00 
3.0000000e+00 0.0000000e+00 1.2000000e+01 
3.0000000e+00 0.0000000e+00 1.5000000e+01 
3.0000000e+00 0.0000000e+00 1.8000000e+01 
3.5000000e+00 0.0000000e+00 3.0000000e+00 
3.5000000e+00 0.0000000e+00 6.0000000e+00 
3.5000000e+00 0.0000000e+00 9.0000000e+00 
3.5000000e+00 0.0000000e+00 1.2000000e+01 
3.5000000e+00 0.0000000e+00 1.5000000e+01 
3.5000000e+00 0.0000000e+00 1.8000000e+01 
4.0000000e+00 0.0000000e+00 3.0000000e+00 
4.0000000e+00 0.0000000e+00 6.0000000e+00 
4.0000000e+00 0.0000000e+00 9.0000000e+00 
4.0000000e+00 0.0000000e+00 1.2000000e+01 
4.0000000e+00 0.0000000e+00 1.5000000e+01 
4.0000000e+00 0.0000000e+00 1.8000000e+01 
4.5000000e+00 0.0000000e+00 3.0000000e+00 
4.5000000e+00 0.0000000e+00 6.0000000e+00 
4.5000000e+00 0.0000000e+00 9.0000000e+00 
4.5000000e+00 0.0000000e+00 1.2000000e+01 
4.5000000e+00 0.0000000e+00 1.5000000e+01 
4.5000000e+00 0.0000000e+00 1.8000000e+01 
5.0000000e+00 0.0000000e+00 3.0000000e+00 
5.0000000e+00 0.0000000e+00 6.0000000e+00 
5.0000000e+00 0.0000000e+00 9.0000000e+00 
5.0000000e+00 0.0000000e+00 1.2000000e+01 
5.0000000e+00 0.0000000e+00 1.5000000e+01 
5.0000000e+00 0.0000000e+00 1.8000000e+01 
5.5000000e+00 0.0000000e+00 3.0000000e+00 
5.5000000e+00 0.0000000e+00 6.0000000e+00 
5.5000000e+00 0.0000000e+00 9.0000000e+00 
5.5000000e+00 0.0000000e+00 1.2000000e+01 
5.5000000e+00 0.0000000e+00 1.5000000e+01 
5.5000000e+00 0.0000000e+00 1.8000000e+01 
6.0000000e+00 0.0000000e+00 0.0000000e+00 
6.0000000e+00 0.0000000e+00 2.5000000e-01 
6.0000000e+00 0.0000000e+00 5.0000000e-01 
6.0000000e+00 0.0000000e+00 7.5000000e-01 
6.0000000e+00 0.0000000e+00 1.0000000e+00 
6.0000000e+00 0.0000000e+00 1.2500000e+00 
6.0000000e+00 0.0000000e+00 1.5000000e+00 
6.0000000e+00 0.0000000e+00 1.7500000e+00 
6.0000000e+00 0.0000000e+00 2.0000000e+00 
6.0000000e+00 0.0000000e+00 2.2500000e+00 
6.0000000e+00 0.0000000e+00 2.5000000e+00 
6.0000000e+00 0.0000000e+00 2.7500000e+00 
6.0000000e+00 0.0000000e+00 3.0000000e+00 
6.0000000e+00 0.0000000e+00 3.2500000e+00 
6.0000000e+00 0.0000000e+00 3.5000000e+00 
6.0000000e+00 0.0000000e+00 3.7500000e+00 
6.0000000e+00 0.0000000e+00 4.0000000e+00 
6.0000000e+00 0.0000000e+00 4.2500000e+00 
6.0000000e+00 0.0000000e+00 4.5000000e+00 
6.0000000e+00 0.0000000e+00 4.7500000e+00 
6.0000000e+00 0.0000000e+00 5.0000000e+00 
6.0000000e+00 0.0000000e+00 5.2500000e+00 
6.0000000e+00 0.0000000e+00 5.5000000e+00 
6.0000000e+00 0.0000000e+00 5.7500000e+00 
6.0000000e+00 0.0000000e+00 6.0000000e+00 
6.0000000e+00 0.0000000e+00 6.2500000e+00 
6.0000000e+00 0.0000000e+00 6.5000000e+00 
6.0000000e+00 0.0000000e+00 6.7500000e+00 
6.0000000e+00 0.0000000e+00 7.0000000e+00 
6.0000000e+00 0.0000000e+00 7.2500000e+00 
6.0000000e+00 0.0000000e+00 7.5000000e+00 
6.0000000e+00 0.0000000e+00 7.7500000e+00 
6.0000000e+00 0.0000000e+00 8.0000000e+00 
6.0000000e+00 0.0000000e+00 8.2500000e+00 
6.0000000e+00 0.0000000e+00 8.5000000e+00 
6.0000000e+00 0.0000000e+00 8.7500000e+00 
6.0000000e+00 0.0000000e+00 9.0000000e+00 
6.0000000e+00 0.0000000e+00 9.2500000e+00 
6.0000000e+00 0.0000000e+00 9.5000000e+00 
6.0000000e+00 0.0000000e+00 9.7500000e+00 
6.0000000e+00 0.0000000e+00 1.0000000e+01 
6.0000000e+00 0.0000000e+00 1.0250000e+01 
6.0000000e+00 0.0000000e+00 1.0500000e+01 
6.0000000e+00 0.0000000e+00 1.0750000e+01 
6.0000000e+00 0.0000000e+00 1.1000000e+01 
6.0000000e+00 0.0000000e+00 1.1250000e+01 
6.0000000e+00 0.0000000e+00 1.1500000e+01 
6.0000000e+00 0.0000000e+00 1.1750000e+01 
6.0000000e+00 0.0000000e+00 1.2000000e+01 
6.0000000e+00 0.0000000e+00 1.2250000e+01 
6.0000000e+00 0.0000000e+00 1.2500000e+01 
6.0000000e+00 0.0000000e+00 1.2750000e+01 
6.0000000e+00 0.0000000e+00 1.3000000e+01 
6.0000000e+00 0.0000000e+00 1.3250000e+01 
6.0000000e+00 0.0000000e+00 1.3500000e+01 
6.0000000e+00 0.0000000e+00 1.3750000e+01 
6.0000000e+00 0.0000000e+00 1.4000000e+01 
6.0000000e+00 0.0000000e+00 1.4250000e+01 
6.0000000e+00 0.0000000e+00 1.4500000e+01 
6.0000000e+00 0.0000000e+00 1.4750000e+01 
6.0000000e+00 0.0000000e+00 1.5000000e+01 
6.0000000e+00 0.0000000e+00 1.5250000e+01 
6.0000000e+00 0.0000000e+00 1.5500000e+01 
6.0000000e+00 0.0000000e+00 1.5750000e+01 
6.0000000e+00 0.0000000e+00 1.6000000e+01 
6.0000000e+00 0.0000000e+00 1.6250000e+01 
6.0000000e+00 0.0000000e+00 1.6500000e+01 
6.0000000e+00 0.0000000e+00 1.6750000e+01 
6.0000000e+00 0.0000000e+00 1.7000000e+01 
6.0000000e+00 0.0000000e+00 1.7250000e+01 
6.0000000e+00 0.0000000e+00 1.7500000e+01 
6.0000000e+00 0.0000000e+00 1.7750000e+01 
6.0000000e+00 0.0000000e+00 1.8000000e+01 

CELLS 216 648
2 0 1
2 1 2
2 2 3
2 3 4
2 4 5
2 5 6
2 6 7
2 7 8
2 8 9
2 9 10
2 10 11
2 11 12
2 12 13
2 13 14
2 14 15
2 15 16
2 16 17
2 17 18
2 18 19
2 19 20
2 20 21
2 21 22
2 22 23
2 23 24
2 24 25
2 25 26
2 26 27
2 27 28
2 28 29
2 29 30
2 30 31
2 31 32
2 32 33
2 33 34
2 34 35
2 35 36
2 36 37
2 37 38
2 38 39
2 39 40
2 40 41
2 41 42
2 42 43
2 43 44
2 44 45
2 45 46
2 46 47
2 47 48
2 48 49
2 49 50
2 50 51
2 51 52
2 52 53
2 53 54
2 54 55
2 55 56
2 56 57
2 57 58
2 58 59
2 59 60
2 60 61
2 61 62
2 62 63
2 63 64
2 64 65
2 65 66
2 66 67
2 67 68
2 68 69
2 69 70
2 70 71
2 71 72
2 139 140
2 140 141
2 141 142
2 142 143
2 143 144
2 144 145
2 145 146
2 146 147
2 147 148
2 148 149
2 149 150
2 150 151
2 151 152
2 152 153
2 153 154
2 154 155
2 155 156
2 156 157
2 157 158
2 158 159
2 159 160
2 160 161
2 161 162
2 162 163
2 163 164
2 164 165
2 165 166
2 166 167
2 167 168
2 168 169
2 169 170
2 170 171
2 171 172
2 172 173
2 173 174
2 174 175
2 175 176
2 176 177
2 177 178
2 178 179
2 179 180
2 180 181
2 181 182
2 182 183
2 183 184
2 184 185
2 185 186
2 186 187
2 187 188
2 188 189
2 189 190
2 190 191
2 191 192
2 192 193
2 193 194
2 194 195
2 195 196
2 196 197
2 197 198
2 198 199
2 199 200
2 200 201
2 201 202
2 202 203
2 203 204
2 204 205
2 205 206
2 206 207
2 207 208
2 208 209
2 209 210
2 210 211
2 12 73
2 73 79
2 79 85
2 85 91
2 91 97
2 97 103
2 103 109
2 109 115
2 115 121
2 121 127
2 127 133
2 133 151
2 24 74
2 74 80
2 80 86
2 86 92
2 92 98
2 98 104
2 104 110
2 110 116
2 116 122
2 122 128
2 128 134
2 134 163
2 36 75
2 75 81
2 81 87
2 87 93
2 93 99
2 99 105
2 105 111
2 111 117
2 117 123
2 123 129
2 129 135
2 135 175
2 48 76
2 76 82
2 82 88
2 88 94
2 94 100
2 100 106
2 106 112
2 112 118
2 118 124
2 124 130
2 130 136
2 136 187
2 60 77
2 77 83
2 83 89
2 89 95
2 95 101
2 101 107
2 107 113
2 113 119
2 119 125
2 125 131
2 131 137
2 137 199
2 72 78
2 78 84
2 84 90
2 90 96
2 96 102
2 102 108
2 108 114
2 114 120
2 120 126
2 126 132
2 132 138
2 138 211

CELL_TYPES 216
3
3
3
3
3
3
3
3
3
3
3
3
3
3
3
3
3
3
3
3
3
3
3
3
3
3
3
3
3
3
3
3
3
3
3
3
3
3
3
3
3
3
3
3
3
3
3
3
3
3
3
3
3
3
3
3
3
3
3
3
3
3
3
3
3
3
3
3
3
3
3
3
3
3
3
3
3
3
3
3
3
3
3
3
3
3
3
3
3
3
3
3
3
3
3
3
3
3
3
3
3
3
3
3
3
3
3
3
3
3
3
3
3
3
3
3
3
3
3
3
3
3
3
3
3
3
3
3
3
3
3
3
3
3
3
3
3
3
3
3
3
3
3
3
3
3
3
3
3
3
3
3
3
3
3
3
3
3
3
3
3
3
3
3
3
3
3
3
3
3
3
3
3
3
3
3
3
3
3
3
3
3
3
3
3
3
3
3
3
3
3
3
3
3
3
3
3
3
3
3
3
3
3
3
3
3
3
3
3
3
3
3
3
3
3
3
POINT_DATA 212
FIELD FieldData 8
DISPLACEMENT 3 212  float
0.0000000e+00 0.0000000e+00 0.0000000e+00 
-1.9567775e-05 0.0000000e+00 -1.5495214e-05 
-3.8327868e-05 0.0000000e+00 -3.0883282e-05 
-5.5472603e-05 0.0000000e+00 -4.6164205e-05 
-7.0194292e-05 0.0000000e+00 -6.1337982e-05 
-8.1685263e-05 0.0000000e+00 -7.6404605e-05 
-8.9137829e-05 0.0000000e+00 -9.1364091e-05 
-9.1744310e-05 0.0000000e+00 -1.0621642e-04 
-8.8697030e-05 0.0000000e+00 -1.2096162e-04 
-7.9188299e-05 0.0000000e+00 -1.3559966e-04 
-6.2410450e-05 0.0000000e+00 -1.5013055e-04 
-3.7555794e-05 0.0000000e+00 -1.6455431e-04 
-3.8166495e-06 0.0000000e+00 -1.7887091e-04 
2.6664526e-05 0.0000000e+00 -1.9177466e-04 
4.2951469e-05 0.0000000e+00 -2.0457126e-04 
4.7661157e-05 0.0000000e+00 -2.1726072e-04 
4.3410557e-05 0.0000000e+00 -2.2984303e-04 
3.2816646e-05 0.0000000e+00 -2.4231819e-04 
1.8496394e-05 0.0000000e+00 -2.5468622e-04 
3.0667723e-06 0.0000000e+00 -2.6694709e-04 
-1.0855245e-05 0.0000000e+00 -2.7910082e-04 
-2.0652687e-05 0.0000000e+00 -2.9114739e-04 
-2.3708581e-05 0.0000000e+00 -3.0308682e-04 
-1.7405953e-05 0.0000000e+00 -3.1491910e-04 
8.7216597e-07 0.0000000e+00 -3.2664425e-04 
1.9867473e-05 0.0000000e+00 -3.3695652e-04 
2.8046026e-05 0.0000000e+00 -3.4716167e-04 
2.7611348e-05 0.0000000e+00 -3.5725965e-04 
2.0766956e-05 0.0000000e+00 -3.6725050e-04 
9.7163711e-06 0.0000000e+00 -3.7713422e-04 
-3.3368865e-06 0.0000000e+00 -3.8691075e-04 
-1.6189297e-05 0.0000000e+00 -3.9658017e-04 
-2.6637343e-05 0.0000000e+00 -4.0614241e-04 
-3.2477499e-05 0.0000000e+00 -4.1559755e-04 
-3.1506250e-05 0.0000000e+00 -4.2494549e-04 
-2.1520074e-05 0.0000000e+00 -4.3418634e-04 
-3.1545258e-07 0.0000000e+00 -4.4331999e-04 
2.0630114e-05 0.0000000e+00 -4.5104083e-04 
2.9938818e-05 0.0000000e+00 -4.5865448e-04 
2.9963718e-05 0.0000000e+00 -4.6616103e-04 
2.3057877e-05 0.0000000e+00 -4.7356042e-04 
1.1574356e-05 0.0000000e+00 -4.8085264e-04 
-2.1337844e-06 0.0000000e+00 -4.8803774e-04 
-1.5713484e-05 0.0000000e+00 -4.9511564e-04 
-2.6811680e-05 0.0000000e+00 -5.0208648e-04 
-3.3075314e-05 0.0000000e+00 -5.0895009e-04 
-3.2151322e-05 0.0000000e+00 -5.1570660e-04 
-2.1686647e-05 0.0000000e+00 -5.2235596e-04 
6.7177689e-07 0.0000000e+00 -5.2889821e-04 
2.3582206e-05 0.0000000e+00 -5.3402752e-04 
3.5490597e-05 0.0000000e+00 -5.3904974e-04 
3.8431554e-05 0.0000000e+00 -5.4396479e-04 
3.4439679e-05 0.0000000e+00 -5.4877275e-04 
2.5549574e-05 0.0000000e+00 -5.5347348e-04 
1.3795848e-05 0.0000000e+00 -5.5806711e-04 
1.2131002e-06 0.0000000e+00 -5.6255359e-04 
-1.0164064e-05 0.0000000e+00 -5.6693295e-04 
-1.8301043e-05 0.0000000e+00 -5.7120511e-04 
-2.1163230e-05 0.0000000e+00 -5.7537016e-04 
-1.6716025e-05 0.0000000e+00 -5.7942804e-04 
-2.9248226e-06 0.0000000e+00 -5.8337877e-04 
8.4198327e-06 0.0000000e+00 -5.8591668e-04 
6.4517412e-06 0.0000000e+00 -5.8834744e-04 
-5.4079742e-06 0.0000000e+00 -5.9067103e-04 
-2.3738190e-05 0.0000000e+00 -5.9288746e-04 
-4.5117784e-05 0.0000000e+00 -5.9499679e-04 
-6.6125634e-05 0.0000000e+00 -5.9699896e-04 
-8.3340616e-05 0.0000000e+00 -5.9889397e-04 
-9.3341616e-05 0.0000000e+00 -6.0068181e-04 
-9.2707494e-05 0.0000000e+00 -6.0236256e-04 
-7.8017139e-05 0.0000000e+00 -6.0393609e-04 
-4.5849429e-05 0.0000000e+00 -6.0540251e-04 
7.2167613e-06 0.0000000e+00 -6.0676184e-04 
-3.1805412e-06 0.0000000e+00 -2.9929425e-04 
7.2680496e-07 0.0000000e+00 -4.2266148e-04 
-2.6287717e-07 0.0000000e+00 -5.4375589e-04 
5.5981405e-07 0.0000000e+00 -6.3215976e-04 
-2.4373524e-06 0.0000000e+00 -6.6840189e-04 
6.0139678e-06 0.0000000e+00 -7.7522802e-04 
-2.5444331e-06 0.0000000e+00 -4.7209929e-04 
5.8144394e-07 0.0000000e+00 -5.7549786e-04 
-2.1030172e-07 0.0000000e+00 -7.0020749e-04 
4.4785125e-07 0.0000000e+00 -7.9092337e-04 
-1.9498818e-06 0.0000000e+00 -8.1224315e-04 
4.8111742e-06 0.0000000e+00 -9.8734081e-04 
-1.9083247e-06 0.0000000e+00 -6.5271993e-04 
4.3608298e-07 0.0000000e+00 -7.4058736e-04 
-1.5772629e-07 0.0000000e+00 -8.6810882e-04 
3.3588844e-07 0.0000000e+00 -9.6062286e-04 
-1.4624113e-06 0.0000000e+00 -9.7033632e-04 
3.6083807e-06 0.0000000e+00 -1.1985342e-03 
-1.2722165e-06 0.0000000e+00 -8.0649357e-04 
2.9072197e-07 0.0000000e+00 -8.8326732e-04 
-1.0515086e-07 0.0000000e+00 -1.0127972e-03 
2.2392562e-07 0.0000000e+00 -1.1065957e-03 
-9.7494092e-07 0.0000000e+00 -1.1080190e-03 
2.4055871e-06 0.0000000e+00 -1.3741455e-03 
-6.3610827e-07 0.0000000e+00 -9.0866140e-04 
1.4536099e-07 0.0000000e+00 -9.7877893e-04 
-5.2575430e-08 0.0000000e+00 -1.1095139e-03 
1.1196281e-07 0.0000000e+00 -1.2040830e-03 
-4.8747046e-07 0.0000000e+00 -1.2005322e-03 
1.2027936e-06 0.0000000e+00 -1.4894159e-03 
1.0042825e-15 0.0000000e+00 -9.4436790e-04 
1.6053538e-15 0.0000000e+00 -1.0122667e-03 
2.0259120e-15 0.0000000e+00 -1.1434035e-03 
2.2866258e-15 0.0000000e+00 -1.2382293e-03 
2.4904808e-15 0.0000000e+00 -1.2330206e-03 
2.6255408e-15 0.0000000e+00 -1.5294900e-03 
6.3610827e-07 0.0000000e+00 -9.0866140e-04 
-1.4536099e-07 0.0000000e+00 -9.7877893e-04 
5.2575434e-08 0.0000000e+00 -1.1095139e-03 
-1.1196281e-07 0.0000000e+00 -1.2040830e-03 
4.8747046e-07 0.0000000e+00 -1.2005322e-03 
-1.2027936e-06 0.0000000e+00 -1.4894159e-03 
1.2722165e-06 0.0000000e+00 -8.0649357e-04 
-2.9072197e-07 0.0000000e+00 -8.8326732e-04 
1.0515087e-07 0.0000000e+00 -1.0127972e-03 
-2.2392562e-07 0.0000000e+00 -1.1065957e-03 
9.7494092e-07 0.0000000e+00 -1.1080190e-03 
-2.4055871e-06 0.0000000e+00 -1.3741455e-03 
1.9083247e-06 0.0000000e+00 -6.5271993e-04 
-4.3608296e-07 0.0000000e+00 -7.4058736e-04 
1.5772630e-07 0.0000000e+00 -8.6810882e-04 
-3.3588844e-07 0.0000000e+00 -9.6062286e-04 
1.4624113e-06 0.0000000e+00 -9.7033632e-04 
-3.6083807e-06 0.0000000e+00 -1.1985342e-03 
2.5444331e-06 0.0000000e+00 -4.7209929e-04 
-5.8144394e-07 0.0000000e+00 -5.7549786e-04 
2.1030174e-07 0.0000000e+00 -7.0020749e-04 
-4.4785125e-07 0.0000000e+00 -7.9092337e-04 
1.9498818e-06 0.0000000e+00 -8.1224315e-04 
-4.8111742e-06 0.0000000e+00 -9.8734081e-04 
3.1805412e-06 0.0000000e+00 -2.9929425e-04 
-7.2680496e-07 0.0000000e+00 -4.2266148e-04 
2.6287717e-07 0.0000000e+00 -5.4375589e-04 
-5.5981405e-07 0.0000000e+00 -6.3215976e-04 
2.4373524e-06 0.0000000e+00 -6.6840189e-04 
-6.0139678e-06 0.0000000e+00 -7.7522802e-04 
0.0000000e+00 0.0000000e+00 0.0000000e+00 
1.9567775e-05 0.0000000e+00 -1.5495214e-05 
3.8327868e-05 0.0000000e+00 -3.0883282e-05 
5.5472603e-05 0.0000000e+00 -4.6164205e-05 
7.0194292e-05 0.0000000e+00 -6.1337982e-05 
8.1685263e-05 0.0000000e+00 -7.6404605e-05 
8.9137829e-05 0.0000000e+00 -9.1364091e-05 
9.1744310e-05 0.0000000e+00 -1.0621642e-04 
8.8697030e-05 0.0000000e+00 -1.2096162e-04 
7.9188299e-05 0.0000000e+00 -1.3559966e-04 
6.2410450e-05 0.0000000e+00 -1.5013055e-04 
3.7555794e-05 0.0000000e+00 -1.6455431e-04 
3.8166495e-06 0.0000000e+00 -1.7887091e-04 
-2.6664526e-05 0.0000000e+00 -1.9177466e-04 
-4.2951469e-05 0.0000000e+00 -2.0457126e-04 
-4.7661157e-05 0.0000000e+00 -2.1726072e-04 
-4.3410557e-05 0.0000000e+00 -2.2984303e-04 
-3.2816646e-05 0.0000000e+00 -2.4231819e-04 
-1.8496394e-05 0.0000000e+00 -2.5468622e-04 
-3.0667723e-06 0.0000000e+00 -2.6694709e-04 
1.0855245e-05 0.0000000e+00 -2.7910082e-04 
2.0652687e-05 0.0000000e+00 -2.9114739e-04 
2.3708581e-05 0.0000000e+00 -3.0308682e-04 
1.7405953e-05 0.0000000e+00 -3.1491910e-04 
-8.7216591e-07 0.0000000e+00 -3.2664425e-04 
-1.9867473e-05 0.0000000e+00 -3.3695652e-04 
-2.8046026e-05 0.0000000e+00 -3.4716167e-04 
-2.7611348e-05 0.0000000e+00 -3.5725965e-04 
-2.0766956e-05 0.0000000e+00 -3.6725050e-04 
-9.7163711e-06 0.0000000e+00 -3.7713422e-04 
3.3368865e-06 0.0000000e+00 -3.8691075e-04 
1.6189297e-05 0.0000000e+00 -3.9658017e-04 
2.6637343e-05 0.0000000e+00 -4.0614241e-04 
3.2477499e-05 0.0000000e+00 -4.1559755e-04 
3.1506250e-05 0.0000000e+00 -4.2494549e-04 
2.1520074e-05 0.0000000e+00 -4.3418634e-04 
3.1545261e-07 0.0000000e+00 -4.4331999e-04 
-2.0630114e-05 0.0000000e+00 -4.5104083e-04 
-2.9938818e-05 0.0000000e+00 -4.5865448e-04 
-2.9963718e-05 0.0000000e+00 -4.6616103e-04 
-2.3057877e-05 0.0000000e+00 -4.7356042e-04 
-1.1574356e-05 0.0000000e+00 -4.8085264e-04 
2.1337844e-06 0.0000000e+00 -4.8803774e-04 
1.5713484e-05 0.0000000e+00 -4.9511564e-04 
2.6811680e-05 0.0000000e+00 -5.0208648e-04 
3.3075314e-05 0.0000000e+00 -5.0895009e-04 
3.2151322e-05 0.0000000e+00 -5.1570660e-04 
2.1686647e-05 0.0000000e+00 -5.2235596e-04 
-6.7177689e-07 0.0000000e+00 -5.2889821e-04 
-2.3582206e-05 0.0000000e+00 -5.3402752e-04 
-3.5490597e-05 0.0000000e+00 -5.3904974e-04 
-3.8431554e-05 0.0000000e+00 -5.4396479e-04 
-3.4439679e-05 0.0000000e+00 -5.4877275e-04 
-2.5549574e-05 0.0000000e+00 -5.5347348e-04 
-1.3795848e-05 0.0000000e+00 -5.5806711e-04 
-1.2131002e-06 0.0000000e+00 -5.6255359e-04 
1.0164064e-05 0.0000000e+00 -5.6693295e-04 
1.8301043e-05 0.0000000e+00 -5.7120511e-04 
2.1163230e-05 0.0000000e+00 -5.7537016e-04 
1.6716025e-05 0.0000000e+00 -5.7942804e-04 
2.9248226e-06 0.0000000e+00 -5.8337877e-04 
-8.4198327e-06 0.0000000e+00 -5.8591668e-04 
-6.4517412e-06 0.0000000e+00 -5.8834744e-04 
5.4079742e-06 0.0000000e+00 -5.9067103e-04 
2.3738190e-05 0.0000000e+00 -5.9288746e-04 
4.5117784e-05 0.0000000e+00 -5.9499679e-04 
6.6125634e-05 0.0000000e+00 -5.9699896e-04 
8.3340616e-05 0.0000000e+00 -5.9889397e-04 
9.3341616e-05 0.0000000e+00 -6.0068181e-04 
9.2707494e-05 0.0000000e+00 -6.0236256e-04 
7.8017139e-05 0.0000000e+00 -6.0393609e-04 
4.5849429e-05 0.0000000e+00 -6.0540251e-04 
-7.2167613e-06 0.0000000e+00 -6.0676184e-04 
ROTATION 3 212  float
0.0000000e+00 -7.8809549e-05 0.0000000e+00 
0.0000000e+00 -7.7194192e-05 0.0000000e+00 
0.0000000e+00 -7.2348106e-05 0.0000000e+00 
0.0000000e+00 -6.4271298e-05 0.0000000e+00 
0.0000000e+00 -5.2963773e-05 0.0000000e+00 
0.0000000e+00 -3.8425522e-05 0.0000000e+00 
0.0000000e+00 -2.0656551e-05 0.0000000e+00 
0.0000000e+00 3.4314468e-07 0.0000000e+00 
0.0000000e+00 2.4573563e-05 0.0000000e+00 
0.0000000e+00 5.2034702e-05 0.0000000e+00 
0.0000000e+00 8.2726561e-05 0.0000000e+00 
0.0000000e+00 1.1664915e-04 0.0000000e+00 
0.0000000e+00 1.5380245e-04 0.0000000e+00 
0.0000000e+00 9.1791590e-05 0.0000000e+00 
0.0000000e+00 4.0248615e-05 0.0000000e+00 
0.0000000e+00 -8.2647159e-07 0.0000000e+00 
0.0000000e+00 -3.1433668e-05 0.0000000e+00 
0.0000000e+00 -5.1572977e-05 0.0000000e+00 
0.0000000e+00 -6.1244398e-05 0.0000000e+00 
0.0000000e+00 -6.0447925e-05 0.0000000e+00 
0.0000000e+00 -4.9183567e-05 0.0000000e+00 
0.0000000e+00 -2.7451319e-05 0.0000000e+00 
0.0000000e+00 4.7488184e-06 0.0000000e+00 
0.0000000e+00 4.7416845e-05 0.0000000e+00 
0.0000000e+00 1.0055276e-04 0.0000000e+00 
0.0000000e+00 5.2878710e-05 0.0000000e+00 
0.0000000e+00 1.4018738e-05 0.0000000e+00 
0.0000000e+00 -1.6027154e-05 0.0000000e+00 
0.0000000e+00 -3.7258967e-05 0.0000000e+00 
0.0000000e+00 -4.9676699e-05 0.0000000e+00 
0.0000000e+00 -5.3280350e-05 0.0000000e+00 
0.0000000e+00 -4.8069924e-05 0.0000000e+00 
0.0000000e+00 -3.4045417e-05 0.0000000e+00 
0.0000000e+00 -1.1206830e-05 0.0000000e+00 
0.0000000e+00 2.0445836e-05 0.0000000e+00 
0.0000000e+00 6.0912582e-05 0.0000000e+00 
0.0000000e+00 1.1019341e-04 0.0000000e+00 
0.0000000e+00 5.8939833e-05 0.0000000e+00 
0.0000000e+00 1.7098500e-05 0.0000000e+00 
0.0000000e+00 -1.5330586e-05 0.0000000e+00 
0.0000000e+00 -3.8347433e-05 0.0000000e+00 
0.0000000e+00 -5.1952033e-05 0.0000000e+00 
0.0000000e+00 -5.6144389e-05 0.0000000e+00 
0.0000000e+00 -5.0924500e-05 0.0000000e+00 
0.0000000e+00 -3.6292367e-05 0.0000000e+00 
0.0000000e+00 -1.2247991e-05 0.0000000e+00 
0.0000000e+00 2.1208629e-05 0.0000000e+00 
0.0000000e+00 6.4077489e-05 0.0000000e+00 
0.0000000e+00 1.1635860e-04 0.0000000e+00 
0.0000000e+00 6.8281239e-05 0.0000000e+00 
0.0000000e+00 2.8342292e-05 0.0000000e+00 
0.0000000e+00 -3.4582408e-06 0.0000000e+00 
0.0000000e+00 -2.7120359e-05 0.0000000e+00 
0.0000000e+00 -4.2644064e-05 0.0000000e+00 
0.0000000e+00 -5.0029354e-05 0.0000000e+00 
0.0000000e+00 -4.9276226e-05 0.0000000e+00 
0.0000000e+00 -4.0384690e-05 0.0000000e+00 
0.0000000e+00 -2.3354734e-05 0.0000000e+00 
0.0000000e+00 1.8136325e-06 0.0000000e+00 
0.0000000e+00 3.5120414e-05 0.0000000e+00 
0.0000000e+00 7.6565608e-05 0.0000000e+00 
0.0000000e+00 1.6472379e-05 0.0000000e+00 
0.0000000e+00 -2.9936362e-05 0.0000000e+00 
0.0000000e+00 -6.2660612e-05 0.0000000e+00 
0.0000000e+00 -8.1700367e-05 0.0000000e+00 
0.0000000e+00 -8.7055640e-05 0.0000000e+00 
0.0000000e+00 -7.8726414e-05 0.0000000e+00 
0.0000000e+00 -5.6712703e-05 0.0000000e+00 
0.0000000e+00 -2.1014499e-05 0.0000000e+00 
0.0000000e+00 2.8368195e-05 0.0000000e+00 
0.0000000e+00 9.1435380e-05 0.0000000e+00 
0.0000000e+00 1.6818706e-04 0.0000000e+00 
0.0000000e+00 2.5862321e-04 0.0000000e+00 
0.0000000e+00 3.0973434e-04 0.0000000e+00 
0.0000000e+00 2.6535959e-04 0.0000000e+00 
0.0000000e+00 2.7339347e-04 0.0000000e+00 
0.0000000e+00 2.7853114e-04 0.0000000e+00 
0.0000000e+00 2.4537029e-04 0.0000000e+00 
0.0000000e+00 3.9708498e-04 0.0000000e+00 
0.0000000e+00 3.6663044e-04 0.0000000e+00 
0.0000000e+00 3.3113064e-04 0.0000000e+00 
0.0000000e+00 3.3755772e-04 0.0000000e+00 
0.0000000e+00 3.4166785e-04 0.0000000e+00 
0.0000000e+00 3.1513922e-04 0.0000000e+00 
0.0000000e+00 4.3651095e-04 0.0000000e+00 
0.0000000e+00 3.4429788e-04 0.0000000e+00 
0.0000000e+00 3.1767302e-04 0.0000000e+00 
0.0000000e+00 3.2249335e-04 0.0000000e+00 
0.0000000e+00 3.2557597e-04 0.0000000e+00 
0.0000000e+00 3.0567945e-04 0.0000000e+00 
0.0000000e+00 3.9670826e-04 0.0000000e+00 
0.0000000e+00 2.6254385e-04 0.0000000e+00 
0.0000000e+00 2.4479395e-04 0.0000000e+00 
0.0000000e+00 2.4800751e-04 0.0000000e+00 
0.0000000e+00 2.5006256e-04 0.0000000e+00 
0.0000000e+00 2.3679824e-04 0.0000000e+00 
0.0000000e+00 2.9748410e-04 0.0000000e+00 
0.0000000e+00 1.4117551e-04 0.0000000e+00 
0.0000000e+00 1.3230056e-04 0.0000000e+00 
0.0000000e+00 1.3390734e-04 0.0000000e+00 
0.0000000e+00 1.3493486e-04 0.0000000e+00 
0.0000000e+00 1.2830269e-04 0.0000000e+00 
0.0000000e+00 1.5864563e-04 0.0000000e+00 
0.0000000e+00 -9.7927233e-17 0.0000000e+00 
0.0000000e+00 -6.6906808e-17 0.0000000e+00 
0.0000000e+00 -4.6226522e-17 0.0000000e+00 
0.0000000e+00 -2.7979209e-17 0.0000000e+00 
0.0000000e+00 -1.7030823e-17 0.0000000e+00 
0.0000000e+00 6.8073428e-18 0.0000000e+00 
0.0000000e+00 -1.4117551e-04 0.0000000e+00 
0.0000000e+00 -1.3230056e-04 0.0000000e+00 
0.0000000e+00 -1.3390734e-04 0.0000000e+00 
0.0000000e+00 -1.3493486e-04 0.0000000e+00 
0.0000000e+00 -1.2830269e-04 0.0000000e+00 
0.0000000e+00 -1.5864563e-04 0.0000000e+00 
0.0000000e+00 -2.6254385e-04 0.0000000e+00 
0.0000000e+00 -2.4479395e-04 0.0000000e+00 
0.0000000e+00 -2.4800751e-04 0.0000000e+00 
0.0000000e+00 -2.5006256e-04 0.0000000e+00 
0.0000000e+00 -2.3679824e-04 0.0000000e+00 
0.0000000e+00 -2.9748410e-04 0.0000000e+00 
0.0000000e+00 -3.4429788e-04 0.0000000e+00 
0.0000000e+00 -3.1767302e-04 0.0000000e+00 
0.0000000e+00 -3.2249335e-04 0.0000000e+00 
0.0000000e+00 -3.2557597e-04 0.0000000e+00 
0.0000000e+00 -3.0567945e-04 0.0000000e+00 
0.0000000e+00 -3.9670826e-04 0.0000000e+00 
0.0000000e+00 -3.6663044e-04 0.0000000e+00 
0.0000000e+00 -3.3113064e-04 0.0000000e+00 
0.0000000e+00 -3.3755772e-04 0.0000000e+00 
0.0000000e+00 -3.4166785e-04 0.0000000e+00 
0.0000000e+00 -3.1513922e-04 0.0000000e+00 
0.0000000e+00 -4.3651095e-04 0.0000000e+00 
0.0000000e+00 -3.0973434e-04 0.0000000e+00 
0.0000000e+00 -2.6535959e-04 0.0000000e+00 
0.0000000e+00 -2.7339347e-04 0.0000000e+00 
0.0000000e+00 -2.7853114e-04 0.0000000e+00 
0.0000000e+00 -2.4537029e-04 0.0000000e+00 
0.0000000e+00 -3.9708498e-04 0.0000000e+00 
0.0000000e+00 7.8809549e-05 0.0000000e+00 
0.0000000e+00 7.7194192e-05 0.0000000e+00 
0.0000000e+00 7.2348106e-05 0.0000000e+00 
0.0000000e+00 6.4271298e-05 0.0000000e+00 
0.0000000e+00 5.2963773e-05 0.0000000e+00 
0.0000000e+00 3.8425522e-05 0.0000000e+00 
0.0000000e+00 2.0656551e-05 0.0000000e+00 
0.0000000e+00 -3.4314468e-07 0.0000000e+00 
0.0000000e+00 -2.4573563e-05 0.0000000e+00 
0.0000000e+00 -5.2034702e-05 0.0000000e+00 
0.0000000e+00 -8.2726561e-05 0.0000000e+00 
0.0000000e+00 -1.1664915e-04 0.0000000e+00 
0.0000000e+00 -1.5380245e-04 0.0000000e+00 
0.0000000e+00 -9.1791590e-05 0.0000000e+00 
0.0000000e+00 -4.0248615e-05 0.0000000e+00 
0.0000000e+00 8.2647159e-07 0.0000000e+00 
0.0000000e+00 3.1433668e-05 0.0000000e+00 
0.0000000e+00 5.1572977e-05 0.0000000e+00 
0.0000000e+00 6.1244398e-05 0.0000000e+00 
0.0000000e+00 6.0447925e-05 0.0000000e+00 
0.0000000e+00 4.9183567e-05 0.0000000e+00 
0.0000000e+00 2.7451319e-05 0.0000000e+00 
0.0000000e+00 -4.7488184e-06 0.0000000e+00 
0.0000000e+00 -4.7416845e-05 0.0000000e+00 
0.0000000e+00 -1.0055276e-04 0.0000000e+00 
0.0000000e+00 -5.2878710e-05 0.0000000e+00 
0.0000000e+00 -1.4018738e-05 0.0000000e+00 
0.0000000e+00 1.6027154e-05 0.0000000e+00 
0.0000000e+00 3.7258967e-05 0.0000000e+00 
0.0000000e+00 4.9676699e-05 0.0000000e+00 
0.0000000e+00 5.3280350e-05 0.0000000e+00 
0.0000000e+00 4.8069924e-05 0.0000000e+00 
0.0000000e+00 3.4045417e-05 0.0000000e+00 
0.0000000e+00 1.1206830e-05 0.0000000e+00 
0.0000000e+00 -2.0445836e-05 0.0000000e+00 
0.0000000e+00 -6.0912582e-05 0.0000000e+00 
0.0000000e+00 -1.1019341e-04 0.0000000e+00 
0.0000000e+00 -5.8939833e-05 0.0000000e+00 
0.0000000e+00 -1.7098500e-05 0.0000000e+00 
0.0000000e+00 1.5330586e-05 0.0000000e+00 
0.0000000e+00 3.8347433e-05 0.0000000e+00 
0.0000000e+00 5.1952033e-05 0.0000000e+00 
0.0000000e+00 5.6144389e-05 0.0000000e+00 
0.0000000e+00 5.0924500e-05 0.0000000e+00 
0.0000000e+00 3.6292367e-05 0.0000000e+00 
0.0000000e+00 1.2247991e-05 0.0000000e+00 
0.0000000e+00 -2.1208629e-05 0.0000000e+00 
0.0000000e+00 -6.4077489e-05 0.0000000e+00 
0.0000000e+00 -1.1635860e-04 0.0000000e+00 
0.0000000e+00 -6.8281239e-05 0.0000000e+00 
0.0000000e+00 -2.8342292e-05 0.0000000e+00 
0.0000000e+00 3.4582408e-06 0.0000000e+00 
0.0000000e+00 2.7120359e-05 0.0000000e+00 
0.0000000e+00 4.2644064e-05 0.0000000e+00 
0.0000000e+00 5.0029354e-05 0.0000000e+00 
0.0000000e+00 4.9276226e-05 0.0000000e+00 
0.0000000e+00 4.0384690e-05 0.0000000e+00 
0.0000000e+00 2.3354734e-05 0.0000000e+00 
0.0000000e+00 -1.8136325e-06 0.0000000e+00 
0.0000000e+00 -3.5120414e-05 0.0000000e+00 
0.0000000e+00 -7.6565608e-05 0.0000000e+00 
0.0000000e+00 -1.6472379e-05 0.0000000e+00 
0.0000000e+00 2.9936362e-05 0.0000000e+00 
0.0000000e+00 6.2660612e-05 0.0000000e+00 
0.0000000e+00 8.1700367e-05 0.0000000e+00 