# vtk DataFile Version 4.0
vtk output
ASCII
DATASET UNSTRUCTURED_GRID
POINTS 30 float
0.0000000e+00 0.0000000e+00 0.0000000e+00 
0.0000000e+00 0.0000000e+00 8.0000001e-01 
0.0000000e+00 0.0000000e+00 1.6000000e+00 
0.0000000e+00 0.0000000e+00 2.4000001e+00 
0.0000000e+00 0.0000000e+00 3.2000000e+00 
0.0000000e+00 0.0000000e+00 4.0000000e+00 
0.0000000e+00 0.0000000e+00 4.8000002e+00 
0.0000000e+00 0.0000000e+00 5.5999999e+00 
0.0000000e+00 0.0000000e+00 6.4000001e+00 
0.0000000e+00 0.0000000e+00 7.1999998e+00 
0.0000000e+00 0.0000000e+00 8.0000000e+00 
1.0000000e+01 0.0000000e+00 0.0000000e+00 
1.0000000e+01 0.0000000e+00 8.0000001e-01 
1.0000000e+01 0.0000000e+00 1.6000000e+00 
1.0000000e+01 0.0000000e+00 2.4000001e+00 
1.0000000e+01 0.0000000e+00 3.2000000e+00 
1.0000000e+01 0.0000000e+00 4.0000000e+00 
1.0000000e+01 0.0000000e+00 4.8000002e+00 
1.0000000e+01 0.0000000e+00 5.5999999e+00 
1.0000000e+01 0.0000000e+00 6.4000001e+00 
1.0000000e+01 0.0000000e+00 7.1999998e+00 
1.0000000e+01 0.0000000e+00 8.0000000e+00 
2.0000000e+00 0.0000000e+00 4.0000000e+00 
4.0000000e+00 0.0000000e+00 4.0000000e+00 
6.0000000e+00 0.0000000e+00 4.0000000e+00 
8.0000000e+00 0.0000000e+00 4.0000000e+00 
2.0000000e+00 0.0000000e+00 8.0000000e+00 
4.0000000e+00 0.0000000e+00 8.0000000e+00 
6.0000000e+00 0.0000000e+00 8.0000000e+00 
8.0000000e+00 0.0000000e+00 8.0000000e+00 

CELLS 30 90
2 0 1
2 1 2
2 2 3
2 3 4
2 4 5
2 5 6
2 6 7
2 7 8
2 8 9
2 9 10
2 11 12
2 12 13
2 13 14
2 14 15
2 15 16
2 16 17
2 17 18
2 18 19
2 19 20
2 20 21
2 5 22
2 22 23
2 23 24
2 24 25
2 25 16
2 10 26
2 26 27
2 27 28
2 28 29
2 29 21

CELL_TYPES 30
3
3
3
3
3
3
3
3
3
3
3
3
3
3
3
3
3
3
3
3
3
3
3
3
3
3
3
3
3
3
POINT_DATA 30
FIELD FieldData 7
DISPLACEMENT 3 30  float
0.0000000e+00 0.0000000e+00 0.0000000e+00 
8.5085578e-04 0.0000000e+00 3.3914730e-06 
1.7915589e-03 0.0000000e+00 7.3827046e-06 
2.8151269e-03 0.0000000e+00 1.3725089e-05 
3.8743597e-03 0.0000000e+00 2.0067473e-05 
4.8939670e-03 0.0000000e+00 2.4789815e-05 
5.8935094e-03 0.0000000e+00 2.8482305e-05 
6.9465777e-03 0.0000000e+00 3.2174798e-05 
7.9765134e-03 0.0000000e+00 3.9002498e-05 
8.8918572e-03 0.0000000e+00 4.3719781e-05 
9.5456308e-03 0.0000000e+00 4.6211717e-05 
0.0000000e+00 0.0000000e+00 0.0000000e+00 
1.0712561e-03 0.0000000e+00 -8.6863629e-06 
2.1756296e-03 0.0000000e+00 -1.5626079e-05 
3.2416594e-03 0.0000000e+00 -2.2565793e-05 
4.1776071e-03 0.0000000e+00 -2.9650228e-05 
4.9133999e-03 0.0000000e+00 -3.4209395e-05 
5.6362143e-03 0.0000000e+00 -3.5147499e-05 
6.5169921e-03 0.0000000e+00 -3.5001580e-05 
7.4851587e-03 0.0000000e+00 -3.3562006e-05 
8.5205073e-03 0.0000000e+00 -3.1427022e-05 
9.5201610e-03 0.0000000e+00 -2.7709420e-05 
4.9008089e-03 0.0000000e+00 -1.3901906e-03 
4.9076513e-03 0.0000000e+00 -1.3583119e-03 
4.9144938e-03 0.0000000e+00 -5.6614022e-04 
4.9119680e-03 0.0000000e+00 2.5702751e-04 
9.5436582e-03 0.0000000e+00 -3.0534892e-04 
9.5364926e-03 0.0000000e+00 3.2990117e-04 
9.5315324e-03 0.0000000e+00 1.3228368e-03 
9.5265713e-03 0.0000000e+00 1.5241887e-03 
ROTATION 3 30  float
0.0000000e+00 1.0400306e-03 0.0000000e+00 
0.0000000e+00 1.1106479e-03 0.0000000e+00 
0.0000000e+00 1.2357240e-03 0.0000000e+00 
0.0000000e+00 1.3124731e-03 0.0000000e+00 
0.0000000e+00 1.3248860e-03 0.0000000e+00 
0.0000000e+00 1.1836328e-03 0.0000000e+00 
0.0000000e+00 1.2990530e-03 0.0000000e+00 
0.0000000e+00 1.3174457e-03 0.0000000e+00 
0.0000000e+00 1.2424269e-03 0.0000000e+00 
0.0000000e+00 1.0076454e-03 0.0000000e+00 
0.0000000e+00 6.1118172e-04 0.0000000e+00 
0.0000000e+00 1.3267240e-03 0.0000000e+00 
0.0000000e+00 1.3637627e-03 0.0000000e+00 
0.0000000e+00 1.3768366e-03 0.0000000e+00 
0.0000000e+00 1.2679035e-03 0.0000000e+00 
0.0000000e+00 1.0589645e-03 0.0000000e+00 
0.0000000e+00 7.6526438e-04 0.0000000e+00 
0.0000000e+00 1.0214294e-03 0.0000000e+00 
0.0000000e+00 1.1624889e-03 0.0000000e+00 
0.0000000e+00 1.2621569e-03 0.0000000e+00 
0.0000000e+00 1.3020651e-03 0.0000000e+00 
0.0000000e+00 1.1608411e-03 0.0000000e+00 
0.0000000e+00 2.8856154e-04 0.0000000e+00 
0.0000000e+00 -2.6322645e-04 0.0000000e+00 
0.0000000e+00 -4.7173133e-04 0.0000000e+00 
0.0000000e+00 -2.7285732e-04 0.0000000e+00 
0.0000000e+00 -1.4092161e-04 0.0000000e+00 
0.0000000e+00 -4.7302950e-04 0.0000000e+00 
0.0000000e+00 -4.0923903e-04 0.0000000e+00 
0.0000000e+00 3.1855432e-04 0.0000000e+00 
REACTION 3 30  float
6.9513896e+03 -0.0000000e+00 -8.9026172e+03 
1.8189894e-11 -0.0000000e+00 -1.8189894e-12 
1.6007107e-10 -0.0000000e+00 3.6379788e-12 
-5.8207661e-10 -0.0000000e+00 -0.0000000e+00 
1.7425918e-09 -0.0000000e+00 -1.0913936e-11 
-1.9790605e-09 -0.0000000e+00 7.2759576e-11 
5.8207661e-10 -0.0000000e+00 -2.9103830e-10 
-4.3655746e-11 -0.0000000e+00 2.1827873e-11 
1.3387762e-09 -0.0000000e+00 -3.6379788e-12 
-3.9290171e-10 -0.0000000e+00 1.2732926e-11 
3.5652192e-10 -0.0000000e+00 -6.3664629e-12 
3.6459993e+03 -0.0000000e+00 2.2801703e+04 
-2.1827873e-10 -0.0000000e+00 7.2759576e-12 
9.8953024e-10 -0.0000000e+00 1.0913936e-11 
-5.2204996e-10 -0.0000000e+00 -3.2741809e-11 
-8.9858077e-10 -0.0000000e+00 -8.1854523e-11 
-2.6484486e-09 -0.0000000e+00 -9.2768460e-10 
-3.3469405e-10 -0.0000000e+00 4.5474735e-13 
4.7293724e-10 -0.0000000e+00 3.7744030e-11 
-5.0022209e-10 -0.0000000e+00 -3.9017323e-10 
-2.4010660e-10 -0.0000000e+00 3.6379788e-12 
3.0904630e-09 -0.0000000e+00 8.3491614e-10 
-0.0000000e+00 -0.0000000e+00 2.5829650e-10 
-9.3132257e-10 -0.0000000e+00 5.4569682e-11 
-1.0186341e-10 -0.0000000e+00 -2.5465852e-11 
3.0931915e-09 -0.0000000e+00 5.4569682e-11 
-2.1827873e-11 -0.0000000e+00 4.5474735e-12 
-9.0312824e-10 -0.0000000e+00 -1.4551915e-11 
1.8626451e-09 -0.0000000e+00 -7.4032869e-10 
-3.5051926e-09 -0.0000000e+00 -5.4569682e-12 
REACTION_MOMENT 3 30  float
-0.0000000e+00 8.7311491e-11 -0.0000000e+00 
-0.0000000e+00 1.0186341e-10 -0.0000000e+00 
-0.0000000e+00 5.6752469e-10 -0.0000000e+00 
-0.0000000e+00 -3.4924597e-10 -0.0000000e+00 
-0.0000000e+00 1.9063009e-09 -0.0000000e+00 
-0.0000000e+00 8.8402885e-10 -0.0000000e+00 
-0.0000000e+00 6.6938810e-10 -0.0000000e+00 
-0.0000000e+00 3.3469405e-10 -0.0000000e+00 
-0.0000000e+00 1.8917490e-10 -0.0000000e+00 
-0.0000000e+00 -4.5110937e-10 -0.0000000e+00 
-0.0000000e+00 -5.1659299e-10 -0.0000000e+00 
-0.0000000e+00 2.9103830e-11 -0.0000000e+00 
-0.0000000e+00 -5.8207661e-11 -0.0000000e+00 
-0.0000000e+00 2.9103830e-11 -0.0000000e+00 
-0.0000000e+00 1.1641532e-10 -0.0000000e+00 
-0.0000000e+00 2.1827873e-11 -0.0000000e+00 
-0.0000000e+00 -2.6557245e-10 -0.0000000e+00 
-0.0000000e+00 -1.4551915e-11 -0.0000000e+00 
-0.0000000e+00 8.5856300e-10 -0.0000000e+00 
-0.0000000e+00 2.9103830e-11 -0.0000000e+00 
-0.0000000e+00 3.3469405e-10 -0.0000000e+00 
-0.0000000e+00 3.2741809e-10 -0.0000000e+00 
-0.0000000e+00 4.5474735e-11 -0.0000000e+00 
-0.0000000e+00 1.8189894e-12 -0.0000000e+00 
-0.0000000e+00 2.0008883e-11 -0.0000000e+00 
-0.0000000e+00 1.0913936e-11 -0.0000000e+00 
-0.0000000e+00 3.6379788e-12 -0.0000000e+00 
-0.0000000e+00 -5.4569682e-12 -0.0000000e+00 
-0.0000000e+00 7.2759576e-12 -0.0000000e+00 
-0.0000000e+00 -0.0000000e+00 -0.0000000e+00 
VOLUME_ACCELERATION 3 30  float
0.0000000e+00 0.0000000e+00 0.0000000e+00 
0.0000000e+00 0.0000000e+00 0.0000000e+00 
0.0000000e+00 0.0000000e+00 0.0000000e+00 
0.0000000e+00 0.0000000e+00 0.0000000e+00 
0.0000000e+00 0.0000000e+00 0.0000000e+00 
0.0000000e+00 0.0000000e+00 0.0000000e+00 
0.0000000e+00 0.0000000e+00 0.0000000e+00 
0.0000000e+00 0.0000000e+00 0.0000000e+00 
0.0000000e+00 0.0000000e+00 0.0000000e+00 
0.0000000e+00 0.0000000e+00 0.0000000e+00 
0.0000000e+00 0.0000000e+00 0.0000000e+00 
0.0000000e+00 0.0000000e+00 0.0000000e+00 
0.0000000e+00 0.0000000e+00 0.0000000e+00 
0.0000000e+00 0.0000000e+00 0.0000000e+00 
0.0000000e+00 0.0000000e+00 0.0000000e+00 
0.0000000e+00 0.0000000e+00 0.0000000e+00 
0.0000000e+00 0.0000000e+00 0.0000000e+00 
0.0000000e+00 0.0000000e+00 0.0000000e+00 
0.0000000e+00 0.0000000e+00 0.0000000e+00 
0.0000000e+00 0.0000000e+00 0.0000000e+00 
0.0000000e+00 0.0000000e+00 0.0000000e+00 
0.0000000e+00 0.0000000e+00 0.0000000e+00 
0.0000000e+00 0.0000000e+00 0.0000000e+00 
0.0000000e+00 0.0000000e+00 0.0000000e+00 
0.0000000e+00 0.0000000e+00 0.0000000e+00 
0.0000000e+00 0.0000000e+00 0.0000000e+00 
0.0000000e+00 0.0000000e+00 0.0000000e+00 
0.0000000e+00 0.0000000e+00 0.0000000e+00 
0.0000000e+00 0.0000000e+00 0.0000000e+00 
0.0000000e+00 0.0000000e+00 0.0000000e+00 
POINT_LOAD 3 30  float
0.0000000e+00 0.0000000e+00 0.0000000e+00 
-8.5420000e+03 0.0000000e+00 -1.5743660e+03 
-1.5759475e+03 0.0000000e+00 -6.1717764e+03 
0.0000000e+00 0.0000000e+00 0.0000000e+00 
-8.7933887e+03 0.0000000e+00 4.2526138e+03 
0.0000000e+00 0.0000000e+00 0.0000000e+00 
0.0000000e+00 0.0000000e+00 0.0000000e+00 
3.5595346e+02 0.0000000e+00 -8.2299238e+03 
-6.8874141e+03 0.0000000e+00 5.5398457e+03 
6.6984800e+03 0.0000000e+00 5.8415430e+03 
6.6794927e+03 0.0000000e+00 9.3277496e+02 
0.0000000e+00 0.0000000e+00 0.0000000e+00 
-9.6510322e+03 0.0000000e+00 -4.5849492e+03 
0.0000000e+00 0.0000000e+00 0.0000000e+00 
2.1657393e+03 0.0000000e+00 3.7988593e+02 
-6.6509399e+02 0.0000000e+00 -6.6288257e+03 
0.0000000e+00 0.0000000e+00 0.0000000e+00 
6.8433386e+02 0.0000000e+00 -2.8455637e+03 
6.5718794e+03 0.0000000e+00 -3.3958435e+03 
-8.3799854e+03 0.0000000e+00 -1.8254557e+03 
-3.5676348e+03 0.0000000e+00 -4.1543633e+03 
3.9684231e+03 0.0000000e+00 6.3329502e+03 
0.0000000e+00 0.0000000e+00 0.0000000e+00 
0.0000000e+00 0.0000000e+00 0.0000000e+00 
9.8360771e+03 0.0000000e+00 -1.0095074e+03 
-4.1548311e+03 0.0000000e+00 -5.7924263e+03 
5.4524341e+03 0.0000000e+00 4.6021738e+03 
-2.3144441e+03 0.0000000e+00 -4.2226455e+03 
0.0000000e+00 0.0000000e+00 0.0000000e+00 
1.5215710e+03 0.0000000e+00 8.6547734e+03 
POINT_MOMENT 3 30  float
0.0000000e+00 0.0000000e+00 0.0000000e+00 
0.0000000e+00 0.0000000e+00 0.0000000e+00 
0.0000000e+00 0.0000000e+00 0.0000000e+00 
0.0000000e+00 0.0000000e+00 0.0000000e+00 
0.0000000e+00 0.0000000e+00 0.0000000e+00 
0.0000000e+00 0.0000000e+00 0.0000000e+00 
0.0000000e+00 0.0000000e+00 0.0000000e+00 
0.0000000e+00 0.0000000e+00 0.0000000e+00 
0.0000000e+00 0.0000000e+00 0.0000000e+00 
0.0000000e+00 0.0000000e+00 0.0000000e+00 
0.0000000e+00 0.0000000e+00 0.0000000e+00 
0.0000000e+00 0.0000000e+00 0.0000000e+00 
0.0000000e+00 0.0000000e+00 0.0000000e+00 
0.0000000e+00 0.0000000e+00 0.0000000e+00 
0.0000000e+00 0.0000000e+00 0.0000000e+00 
0.0000000e+00 0.0000000e+00 0.0000000e+00 
0.0000000e+00 0.0000000e+00 0.0000000e+00 
0.0000000e+00 0.0000000e+00 0.0000000e+00 
0.0000000e+00 0.0000000e+00 0.0000000e+00 
0.0000000e+00 0.0000000e+00 0.0000000e+00 
0.0000000e+00 0.0000000e+00 0.0000000e+00 
0.0000000e+00 0.0000000e+00 0.0000000e+00 
0.0000000e+00 0.0000000e+00 0.0000000e+00 
0.0000000e+00 0.0000000e+00 0.0000000e+00 
0.0000000e+00 0.0000000e+00 0.0000000e+00 
0.0000000e+00 0.0000000e+00 0.0000000e+00 
0.0000000e+00 0.0000000e+00 0.0000000e+00 
0.0000000e+00 0.0000000e+00 0.0000000e+00 
0.0000000e+00 0.0000000e+00 0.0000000e+00 
0.0000000e+00 0.0000000e+00 0.0000000e+00 
CELL_DATA 30
FIELD FieldData 9
YOUNG_MODULUS 1 30  float
2.1000000e+11
2.1000000e+11
2.1000000e+11
2.1000000e+11
2.1000000e+11
2.1000000e+11
2.1000000e+11
2.1000000e+11
2.1000000e+11
2.1000000e+11
2.1000000e+11
2.1000000e+11
2.1000000e+11
2.1000000e+11
2.1000000e+11
2.1000000e+11
2.1000000e+11
2.1000000e+11
2.1000000e+11
2.1000000e+11
2.1000000e+11
2.1000000e+11
2.1000000e+11
2.1000000e+11
2.1000000e+11
2.1000000e+11
2.1000000e+11
2.1000000e+11
2.1000000e+11
2.1000000e+11
DENSITY 1 30  float
7.8500000e+03
7.8500000e+03
7.8500000e+03
7.8500000e+03
7.8500000e+03
7.8500000e+03
7.8500000e+03
7.8500000e+03
7.8500000e+03
7.8500000e+03
7.8500000e+03
7.8500000e+03
7.8500000e+03
7.8500000e+03
7.8500000e+03
7.8500000e+03
7.8500000e+03
7.8500000e+03
7.8500000e+03
7.8500000e+03
7.8500000e+03
7.8500000e+03
7.8500000e+03
7.8500000e+03
7.8500000e+03
7.8500000e+03
7.8500000e+03
7.8500000e+03
7.8500000e+03
7.8500000e+03
CROSS_AREA 1 30  float
9.9999998e-03
9.9999998e-03
9.9999998e-03
9.9999998e-03
9.9999998e-03
9.9999998e-03
9.9999998e-03
9.9999998e-03
9.9999998e-03
9.9999998e-03
9.9999998e-03
9.9999998e-03
9.9999998e-03
9.9999998e-03
9.9999998e-03
9.9999998e-03
9.9999998e-03
9.9999998e-03
9.9999998e-03
9.9999998e-03
9.9999998e-03
9.9999998e-03
9.9999998e-03
9.9999998e-03
9.9999998e-03
9.9999998e-03
9.9999998e-03
9.9999998e-03
9.9999998e-03
9.9999998e-03
I22 1 30  float
1.5000001e-04
1.5000001e-04
1.5000001e-04
1.5000001e-04
1.5000001e-04
1.5000001e-04
1.5000001e-04
1.5000001e-04
1.5000001e-04
1.5000001e-04
1.5000001e-04
1.5000001e-04
1.5000001e-04
1.5000001e-04
1.5000001e-04
1.5000001e-04
1.5000001e-04
1.5000001e-04
1.5000001e-04
1.5000001e-04
1.5000001e-04
1.5000001e-04
1.5000001e-04
1.5000001e-04
1.5000001e-04
1.5000001e-04
1.5000001e-04
1.5000001e-04
1.5000001e-04
1.5000001e-04
I33 1 30  float
1.5000001e-04
1.5000001e-04
1.5000001e-04
1.5000001e-04
1.5000001e-04
1.5000001e-04
1.5000001e-04
1.5000001e-04
1.5000001e-04
1.5000001e-04
1.5000001e-04
1.5000001e-04
1.5000001e-04
1.5000001e-04
1.5000001e-04
1.5000001e-04
1.5000001e-04
1.5000001e-04
1.5000001e-04
1.5000001e-04
1.5000001e-04
1.5000001e-04
1.5000001e-04
1.5000001e-04
1.5000001e-04
1.5000001e-04
1.5000001e-04
1.5000001e-04
1.5000001e-04
1.5000001e-04
TORSIONAL_INERTIA 1 30  float
3.0000001e-04
3.0000001e-04
3.0000001e-04
3.0000001e-04
3.0000001e-04
3.0000001e-04
3.0000001e-04
3.0000001e-04
3.0000001e-04
3.0000001e-04
3.0000001e-04
3.0000001e-04
3.0000001e-04
3.0000001e-04
3.0000001e-04
3.0000001e-04
3.0000001e-04
3.0000001e-04
3.0000001e-04
3.0000001e-04
3.0000001e-04
3.0000001e-04
3.0000001e-04
3.0000001e-04
3.0000001e-04
3.0000001e-04
3.0000001e-04
3.0000001e-04
3.0000001e-04
3.0000001e-04
POISSON_RATIO 1 30  float
3.0000001e-01
3.0000001e-01
3.0000001e-01
3.0000001e-01
3.0000001e-01
3.0000001e-01
3.0000001e-01
3.0000001e-01
3.0000001e-01
3.0000001e-01
3.0000001e-01
3.0000001e-01
3.0000001e-01
3.0000001e-01
3.0000001e-01
3.0000001e-01
3.0000001e-01
3.0000001e-01
3.0000001e-01
3.0000001e-01
3.0000001e-01
3.0000001e-01
3.0000001e-01
3.0000001e-01
3.0000001e-01
3.0000001e-01
3.0000001e-01
3.0000001e-01
3.0000001e-01
3.0000001e-01
MOMENT 3 30  float
0.0000000e+00 2.7805559e+03 0.0000000e+00 
0.0000000e+00 4.9248677e+03 0.0000000e+00 
0.0000000e+00 3.0220010e+03 0.0000000e+00 
0.0000000e+00 4.8875500e+02 0.0000000e+00 
0.0000000e+00 -5.5618467e+03 0.0000000e+00 
0.0000000e+00 4.5446719e+03 0.0000000e+00 
0.0000000e+00 7.2421399e+02 0.0000000e+00 
0.0000000e+00 -2.9538625e+03 0.0000000e+00 
0.0000000e+00 -9.2445234e+03 0.0000000e+00 
0.0000000e+00 -1.5610758e+04 0.0000000e+00 
0.0000000e+00 1.4583998e+03 0.0000000e+00 
0.0000000e+00 5.1478613e+02 0.0000000e+00 
0.0000000e+00 -4.2892407e+03 0.0000000e+00 
0.0000000e+00 -8.2269717e+03 0.0000000e+00 
0.0000000e+00 -1.1564444e+04 0.0000000e+00 
0.0000000e+00 1.0086499e+04 0.0000000e+00 
0.0000000e+00 5.5542192e+03 0.0000000e+00 
0.0000000e+00 3.9244250e+03 0.0000000e+00 
0.0000000e+00 1.5713883e+03 0.0000000e+00 
0.0000000e+00 -5.5606963e+03 0.0000000e+00 
0.0000000e+00 -1.4097371e+04 0.0000000e+00 
0.0000000e+00 -8.6906611e+03 0.0000000e+00 
0.0000000e+00 -3.2839514e+03 0.0000000e+00 
0.0000000e+00 3.1322656e+03 0.0000000e+00 
0.0000000e+00 1.6350416e+04 0.0000000e+00 
0.0000000e+00 -1.1845628e+04 0.0000000e+00 
0.0000000e+00 -5.2306997e+03 0.0000000e+00 
0.0000000e+00 1.0047001e+03 0.0000000e+00 
0.0000000e+00 1.1462745e+04 0.0000000e+00 
0.0000000e+00 1.3266017e+04 0.0000000e+00 
FORCE 3 30  float
8.9026172e+03 0.0000000e+00 6.9513896e+03 
1.0476982e+04 0.0000000e+00 -1.5906099e+03 
1.6648760e+04 0.0000000e+00 -3.1665574e+03 
1.6648760e+04 0.0000000e+00 -3.1665574e+03 
1.2396146e+04 0.0000000e+00 -1.1959946e+04 
9.6927900e+03 0.0000000e+00 -4.7755723e+03 
9.6927900e+03 0.0000000e+00 -4.7755723e+03 
1.7922715e+04 0.0000000e+00 -4.4196187e+03 
1.2382869e+04 0.0000000e+00 -1.1307033e+04 
6.5413257e+03 0.0000000e+00 -4.6085527e+03 
-2.2801703e+04 0.0000000e+00 3.6459993e+03 
-1.8216754e+04 0.0000000e+00 -6.0050332e+03 
-1.8216754e+04 0.0000000e+00 -6.0050332e+03 
-1.8596639e+04 0.0000000e+00 -3.8392939e+03 
-1.1967813e+04 0.0000000e+00 -4.5043882e+03 
-2.4625251e+03 0.0000000e+00 -6.0075161e+03 
3.8303870e+02 0.0000000e+00 -5.3231826e+03 
3.7788821e+03 0.0000000e+00 1.2486969e+03 
5.6043379e+03 0.0000000e+00 -7.1312886e+03 
9.7587012e+03 0.0000000e+00 -1.0698924e+04 
7.1843740e+03 0.0000000e+00 2.7033547e+03 
7.1843740e+03 0.0000000e+00 2.7033547e+03 
7.1843740e+03 0.0000000e+00 2.7033547e+03 
-2.6517029e+03 0.0000000e+00 3.7128623e+03 
1.5031283e+03 0.0000000e+00 9.5052881e+03 
-2.0709397e+03 0.0000000e+00 5.6085508e+03 
-7.5233735e+03 0.0000000e+00 1.0063771e+03 
-5.2089292e+03 0.0000000e+00 5.2290225e+03 
-5.2089292e+03 0.0000000e+00 5.2290225e+03 
-6.7305005e+03 0.0000000e+00 -3.4257510e+03 
