# vtk DataFile Version 4.0
vtk output
ASCII
DATASET UNSTRUCTURED_GRID
POINTS 212 float
0.0000000e+00 0.0000000e+00 0.0000000e+00 
0.0000000e+00 0.0000000e+00 2.5000000e-01 
0.0000000e+00 0.0000000e+00 5.0000000e-01 
0.0000000e+00 0.0000000e+00 7.5000000e-01 
0.0000000e+00 0.0000000e+00 1.0000000e+00 
0.0000000e+00 0.0000000e+00 1.2500000e+00 
0.0000000e+00 0.0000000e+00 1.5000000e+00 
0.0000000e+00 0.0000000e+00 1.7500000e+00 
0.0000000e+00 0.0000000e+00 2.0000000e+00 
0.0000000e+00 0.0000000e+00 2.2500000e+00 
0.0000000e+00 0.0000000e+00 2.5000000e+00 
0.0000000e+00 0.0000000e+00 2.7500000e+00 
0.0000000e+00 0.0000000e+00 3.0000000e+00 
0.0000000e+00 0.0000000e+00 3.2500000e+00 
0.0000000e+00 0.0000000e+00 3.5000000e+00 
0.0000000e+00 0.0000000e+00 3.7500000e+00 
0.0000000e+00 0.0000000e+00 4.0000000e+00 
0.0000000e+00 0.0000000e+00 4.2500000e+00 
0.0000000e+00 0.0000000e+00 4.5000000e+00 
0.0000000e+00 0.0000000e+00 4.7500000e+00 
0.0000000e+00 0.0000000e+00 5.0000000e+00 
0.0000000e+00 0.0000000e+00 5.2500000e+00 
0.0000000e+00 0.0000000e+00 5.5000000e+00 
0.0000000e+00 0.0000000e+00 5.7500000e+00 
0.0000000e+00 0.0000000e+00 6.0000000e+00 
0.0000000e+00 0.0000000e+00 6.2500000e+00 
0.0000000e+00 0.0000000e+00 6.5000000e+00 
0.0000000e+00 0.0000000e+00 6.7500000e+00 
0.0000000e+00 0.0000000e+00 7.0000000e+00 
0.0000000e+00 0.0000000e+00 7.2500000e+00 
0.0000000e+00 0.0000000e+00 7.5000000e+00 
0.0000000e+00 0.0000000e+00 7.7500000e+00 
0.0000000e+00 0.0000000e+00 8.0000000e+00 
0.0000000e+00 0.0000000e+00 8.2500000e+00 
0.0000000e+00 0.0000000e+00 8.5000000e+00 
0.0000000e+00 0.0000000e+00 8.7500000e+00 
0.0000000e+00 0.0000000e+00 9.0000000e+00 
0.0000000e+00 0.0000000e+00 9.2500000e+00 
0.0000000e+00 0.0000000e+00 9.5000000e+00 
0.0000000e+00 0.0000000e+00 9.7500000e+00 
0.0000000e+00 0.0000000e+00 1.0000000e+01 
0.0000000e+00 0.0000000e+00 1.0250000e+01 
0.0000000e+00 0.0000000e+00 1.0500000e+01 
0.0000000e+00 0.0000000e+00 1.0750000e+01 
0.0000000e+00 0.0000000e+00 1.1000000e+01 
0.0000000e+00 0.0000000e+00 1.1250000e+01 
0.0000000e+00 0.0000000e+00 1.1500000e+01 
0.0000000e+00 0.0000000e+00 1.1750000e+01 
0.0000000e+00 0.0000000e+00 1.2000000e+01 
0.0000000e+00 0.0000000e+00 1.2250000e+01 
0.0000000e+00 0.0000000e+00 1.2500000e+01 
0.0000000e+00 0.0000000e+00 1.2750000e+01 
0.0000000e+00 0.0000000e+00 1.3000000e+01 
0.0000000e+00 0.0000000e+00 1.3250000e+01 
0.0000000e+00 0.0000000e+00 1.3500000e+01 
0.0000000e+00 0.0000000e+00 1.3750000e+01 
0.0000000e+00 0.0000000e+00 1.4000000e+01 
0.0000000e+00 0.0000000e+00 1.4250000e+01 
0.0000000e+00 0.0000000e+00 1.4500000e+01 
0.0000000e+00 0.0000000e+00 1.4750000e+01 
0.0000000e+00 0.0000000e+00 1.5000000e+01 
0.0000000e+00 0.0000000e+00 1.5250000e+01 
0.0000000e+00 0.0000000e+00 1.5500000e+01 
0.0000000e+00 0.0000000e+00 1.5750000e+01 
0.0000000e+00 0.0000000e+00 1.6000000e+01 
0.0000000e+00 0.0000000e+00 1.6250000e+01 
0.0000000e+00 0.0000000e+00 1.6500000e+01 
0.0000000e+00 0.0000000e+00 1.6750000e+01 
0.0000000e+00 0.0000000e+00 1.7000000e+01 
0.0000000e+00 0.0000000e+00 1.7250000e+01 
0.0000000e+00 0.0000000e+00 1.7500000e+01 
0.0000000e+00 0.0000000e+00 1.7750000e+01 
0.0000000e+00 0.0000000e+00 1.8000000e+01 
5.0000000e-01 0.0000000e+00 3.0000000e+00 
5.0000000e-01 0.0000000e+00 6.0000000e+00 
5.0000000e-01 0.0000000e+00 9.0000000e+00 
5.0000000e-01 0.0000000e+00 1.2000000e+01 
5.0000000e-01 0.0000000e+00 1.5000000e+01 
5.0000000e-01 0.0000000e+00 1.8000000e+01 
1.0000000e+00 0.0000000e+00 3.0000000e+00 
1.0000000e+00 0.0000000e+00 6.0000000e+00 
1.0000000e+00 0.0000000e+00 9.0000000e+00 
1.0000000e+00 0.0000000e+00 1.2000000e+01 
1.0000000e+00 0.0000000e+00 1.5000000e+01 
1.0000000e+00 0.0000000e+00 1.8000000e+01 
1.5000000e+00 0.0000000e+00 3.0000000e+00 
1.5000000e+00 0.0000000e+00 6.0000000e+00 
1.5000000e+00 0.0000000e+00 9.0000000e+00 
1.5000000e+00 0.0000000e+00 1.2000000e+01 
1.5000000e+00 0.0000000e+00 1.5000000e+01 
1.5000000e+00 0.0000000e+00 1.8000000e+01 
2.0000000e+00 0.0000000e+00 3.0000000e+00 
2.0000000e+00 0.0000000e+00 6.0000000e+00 
2.0000000e+00 0.0000000e+00 9.0000000e+00 
2.0000000e+00 0.0000000e+00 1.2000000e+01 
2.0000000e+00 0.0000000e+00 1.5000000e+01 
2.0000000e+00 0.0000000e+00 1.8000000e+01 
2.5000000e+00 0.0000000e+00 3.0000000e+00 
2.5000000e+00 0.0000000e+00 6.0000000e+00 
2.5000000e+00 0.0000000e+00 9.0000000e+00 
2.5000000e+00 0.0000000e+00 1.2000000e+01 
2.5000000e+00 0.0000000e+00 1.5000000e+01 
2.5000000e+00 0.0000000e+00 1.8000000e+01 
3.0000000e+00 0.0000000e+00 3.0000000e+00 
3.0000000e+00 0.0000000e+00 6.0000000e+00 
3.0000000e+00 0.0000000e+00 9.0000000e+00 
3.0000000e+00 0.0000000e+00 1.2000000e+01 
3.0000000e+00 0.0000000e+00 1.5000000e+01 
3.0000000e+00 0.0000000e+00 1.8000000e+01 
3.5000000e+00 0.0000000e+00 3.0000000e+00 
3.5000000e+00 0.0000000e+00 6.0000000e+00 
3.5000000e+00 0.0000000e+00 9.0000000e+00 
3.5000000e+00 0.0000000e+00 1.2000000e+01 
3.5000000e+00 0.0000000e+00 1.5000000e+01 
3.5000000e+00 0.0000000e+00 1.8000000e+01 
4.0000000e+00 0.0000000e+00 3.0000000e+00 
4.0000000e+00 0.0000000e+00 6.0000000e+00 
4.0000000e+00 0.0000000e+00 9.0000000e+00 
4.0000000e+00 0.0000000e+00 1.2000000e+01 
4.0000000e+00 0.0000000e+00 1.5000000e+01 
4.0000000e+00 0.0000000e+00 1.8000000e+01 
4.5000000e+00 0.0000000e+00 3.0000000e+00 
4.5000000e+00 0.0000000e+00 6.0000000e+00 
4.5000000e+00 0.0000000e+00 9.0000000e+00 
4.5000000e+00 0.0000000e+00 1.2000000e+01 
4.5000000e+00 0.0000000e+00 1.5000000e+01 
4.5000000e+00 0.0000000e+00 1.8000000e+01 
5.0000000e+00 0.0000000e+00 3.0000000e+00 
5.0000000e+00 0.0000000e+00 6.0000000e+00 
5.0000000e+00 0.0000000e+00 9.0000000e+00 
5.0000000e+00 0.0000000e+00 1.2000000e+01 
5.0000000e+00 0.0000000e+00 1.5000000e+01 
5.0000000e+00 0.0000000e+00 1.8000000e+01 
5.5000000e+00 0.0000000e+00 3.0000000e+00 
5.5000000e+00 0.0000000e+00 6.0000000e+00 
5.5000000e+00 0.0000000e+00 9.0000000e+00 
5.5000000e+00 0.0000000e+00 1.2000000e+01 
5.5000000e+00 0.0000000e+00 1.5000000e+01 
5.5000000e+00 0.0000000e+00 1.8000000e+01 
6.0000000e+00 0.0000000e+00 0.0000000e+00 
6.0000000e+00 0.0000000e+00 2.5000000e-01 
6.0000000e+00 0.0000000e+00 5.0000000e-01 
6.0000000e+00 0.0000000e+00 7.5000000e-01 
6.0000000e+00 0.0000000e+00 1.0000000e+00 
6.0000000e+00 0.0000000e+00 1.2500000e+00 
6.0000000e+00 0.0000000e+00 1.5000000e+00 
6.0000000e+00 0.0000000e+00 1.7500000e+00 
6.0000000e+00 0.0000000e+00 2.0000000e+00 
6.0000000e+00 0.0000000e+00 2.2500000e+00 
6.0000000e+00 0.0000000e+00 2.5000000e+00 
6.0000000e+00 0.0000000e+00 2.7500000e+00 
6.0000000e+00 0.0000000e+00 3.0000000e+00 
6.0000000e+00 0.0000000e+00 3.2500000e+00 
6.0000000e+00 0.0000000e+00 3.5000000e+00 
6.0000000e+00 0.0000000e+00 3.7500000e+00 
6.0000000e+00 0.0000000e+00 4.0000000e+00 
6.0000000e+00 0.0000000e+00 4.2500000e+00 
6.0000000e+00 0.0000000e+00 4.5000000e+00 
6.0000000e+00 0.0000000e+00 4.7500000e+00 
6.0000000e+00 0.0000000e+00 5.0000000e+00 
6.0000000e+00 0.0000000e+00 5.2500000e+00 
6.0000000e+00 0.0000000e+00 5.5000000e+00 
6.0000000e+00 0.0000000e+00 5.7500000e+00 
6.0000000e+00 0.0000000e+00 6.0000000e+00 
6.0000000e+00 0.0000000e+00 6.2500000e+00 
6.0000000e+00 0.0000000e+00 6.5000000e+00 
6.0000000e+00 0.0000000e+00 6.7500000e+00 
6.0000000e+00 0.0000000e+00 7.0000000e+00 
6.0000000e+00 0.0000000e+00 7.2500000e+00 
6.0000000e+00 0.0000000e+00 7.5000000e+00 
6.0000000e+00 0.0000000e+00 7.7500000e+00 
6.0000000e+00 0.0000000e+00 8.0000000e+00 
6.0000000e+00 0.0000000e+00 8.2500000e+00 
6.0000000e+00 0.0000000e+00 8.5000000e+00 
6.0000000e+00 0.0000000e+00 8.7500000e+00 
6.0000000e+00 0.0000000e+00 9.0000000e+00 
6.0000000e+00 0.0000000e+00 9.2500000e+00 
6.0000000e+00 0.0000000e+00 9.5000000e+00 
6.0000000e+00 0.0000000e+00 9.7500000e+00 
6.0000000e+00 0.0000000e+00 1.0000000e+01 
6.0000000e+00 0.0000000e+00 1.0250000e+01 
6.0000000e+00 0.0000000e+00 1.0500000e+01 
6.0000000e+00 0.0000000e+00 1.0750000e+01 
6.0000000e+00 0.0000000e+00 1.1000000e+01 
6.0000000e+00 0.0000000e+00 1.1250000e+01 
6.0000000e+00 0.0000000e+00 1.1500000e+01 
6.0000000e+00 0.0000000e+00 1.1750000e+01 
6.0000000e+00 0.0000000e+00 1.2000000e+01 
6.0000000e+00 0.0000000e+00 1.2250000e+01 
6.0000000e+00 0.0000000e+00 1.2500000e+01 
6.0000000e+00 0.0000000e+00 1.2750000e+01 
6.0000000e+00 0.0000000e+00 1.3000000e+01 
6.0000000e+00 0.0000000e+00 1.3250000e+01 
6.0000000e+00 0.0000000e+00 1.3500000e+01 
6.0000000e+00 0.0000000e+00 1.3750000e+01 
6.0000000e+00 0.0000000e+00 1.4000000e+01 
6.0000000e+00 0.0000000e+00 1.4250000e+01 
6.0000000e+00 0.0000000e+00 1.4500000e+01 
6.0000000e+00 0.0000000e+00 1.4750000e+01 
6.0000000e+00 0.0000000e+00 1.5000000e+01 
6.0000000e+00 0.0000000e+00 1.5250000e+01 
6.0000000e+00 0.0000000e+00 1.5500000e+01 
6.0000000e+00 0.0000000e+00 1.5750000e+01 
6.0000000e+00 0.0000000e+00 1.6000000e+01 
6.0000000e+00 0.0000000e+00 1.6250000e+01 
6.0000000e+00 0.0000000e+00 1.6500000e+01 
6.0000000e+00 0.0000000e+00 1.6750000e+01 
6.0000000e+00 0.0000000e+00 1.7000000e+01 
6.0000000e+00 0.0000000e+00 1.7250000e+01 
6.0000000e+00 0.0000000e+00 1.7500000e+01 
6.0000000e+00 0.0000000e+00 1.7750000e+01 
6.0000000e+00 0.0000000e+00 1.8000000e+01 

CELLS 216 648
2 0 1
2 1 2
2 2 3
2 3 4
2 4 5
2 5 6
2 6 7
2 7 8
2 8 9
2 9 10
2 10 11
2 11 12
2 12 13
2 13 14
2 14 15
2 15 16
2 16 17
2 17 18
2 18 19
2 19 20
2 20 21
2 21 22
2 22 23
2 23 24
2 24 25
2 25 26
2 26 27
2 27 28
2 28 29
2 29 30
2 30 31
2 31 32
2 32 33
2 33 34
2 34 35
2 35 36
2 36 37
2 37 38
2 38 39
2 39 40
2 40 41
2 41 42
2 42 43
2 43 44
2 44 45
2 45 46
2 46 47
2 47 48
2 48 49
2 49 50
2 50 51
2 51 52
2 52 53
2 53 54
2 54 55
2 55 56
2 56 57
2 57 58
2 58 59
2 59 60
2 60 61
2 61 62
2 62 63
2 63 64
2 64 65
2 65 66
2 66 67
2 67 68
2 68 69
2 69 70
2 70 71
2 71 72
2 139 140
2 140 141
2 141 142
2 142 143
2 143 144
2 144 145
2 145 146
2 146 147
2 147 148
2 148 149
2 149 150
2 150 151
2 151 152
2 152 153
2 153 154
2 154 155
2 155 156
2 156 157
2 157 158
2 158 159
2 159 160
2 160 161
2 161 162
2 162 163
2 163 164
2 164 165
2 165 166
2 166 167
2 167 168
2 168 169
2 169 170
2 170 171
2 171 172
2 172 173
2 173 174
2 174 175
2 175 176
2 176 177
2 177 178
2 178 179
2 179 180
2 180 181
2 181 182
2 182 183
2 183 184
2 184 185
2 185 186
2 186 187
2 187 188
2 188 189
2 189 190
2 190 191
2 191 192
2 192 193
2 193 194
2 194 195
2 195 196
2 196 197
2 197 198
2 198 199
2 199 200
2 200 201
2 201 202
2 202 203
2 203 204
2 204 205
2 205 206
2 206 207
2 207 208
2 208 209
2 209 210
2 210 211
2 12 73
2 73 79
2 79 85
2 85 91
2 91 97
2 97 103
2 103 109
2 109 115
2 115 121
2 121 127
2 127 133
2 133 151
2 24 74
2 74 80
2 80 86
2 86 92
2 92 98
2 98 104
2 104 110
2 110 116
2 116 122
2 122 128
2 128 134
2 134 163
2 36 75
2 75 81
2 81 87
2 87 93
2 93 99
2 99 105
2 105 111
2 111 117
2 117 123
2 123 129
2 129 135
2 135 175
2 48 76
2 76 82
2 82 88
2 88 94
2 94 100
2 100 106
2 106 112
2 112 118
2 118 124
2 124 130
2 130 136
2 136 187
2 60 77
2 77 83
2 83 89
2 89 95
2 95 101
2 101 107
2 107 113
2 113 119
2 119 125
2 125 131
2 131 137
2 137 199
2 72 78
2 78 84
2 84 90
2 90 96
2 96 102
2 102 108
2 108 114
2 114 120
2 120 126
2 126 132
2 132 138
2 138 211

CELL_TYPES 216
3
3
3
3
3
3
3
3
3
3
3
3
3
3
3
3
3
3
3
3
3
3
3
3
3
3
3
3
3
3
3
3
3
3
3
3
3
3
3
3
3
3
3
3
3
3
3
3
3
3
3
3
3
3
3
3
3
3
3
3
3
3
3
3
3
3
3
3
3
3
3
3
3
3
3
3
3
3
3
3
3
3
3
3
3
3
3
3
3
3
3
3
3
3
3
3
3
3
3
3
3
3
3
3
3
3
3
3
3
3
3
3
3
3
3
3
3
3
3
3
3
3
3
3
3
3
3
3
3
3
3
3
3
3
3
3
3
3
3
3
3
3
3
3
3
3
3
3
3
3
3
3
3
3
3
3
3
3
3
3
3
3
3
3
3
3
3
3
3
3
3
3
3
3
3
3
3
3
3
3
3
3
3
3
3
3
3
3
3
3
3
3
3
3
3
3
3
3
3
3
3
3
3
3
3
3
3
3
3
3
3
3
3
3
3
3
POINT_DATA 212
FIELD FieldData 8
DISPLACEMENT 3 212  float
0.0000000e+00 0.0000000e+00 0.0000000e+00 
-2.1986994e-04 0.0000000e+00 -6.4093198e-05 
-4.3057004e-04 0.0000000e+00 -1.2774084e-04 
-6.2293053e-04 0.0000000e+00 -1.9094296e-04 
-7.8778149e-04 0.0000000e+00 -2.5369952e-04 
-9.1595313e-04 0.0000000e+00 -3.1601053e-04 
-9.9827559e-04 0.0000000e+00 -3.7787599e-04 
-1.0255792e-03 0.0000000e+00 -4.3929589e-04 
-9.8869379e-04 0.0000000e+00 -5.0027028e-04 
-8.7844988e-04 0.0000000e+00 -5.6079909e-04 
-6.8567746e-04 0.0000000e+00 -6.2088232e-04 
-4.0120678e-04 0.0000000e+00 -6.8052008e-04 
-1.5867943e-05 0.0000000e+00 -7.3971221e-04 
3.3138771e-04 0.0000000e+00 -7.9308613e-04 
5.1554700e-04 0.0000000e+00 -8.4601442e-04 
5.6668697e-04 0.0000000e+00 -8.9849718e-04 
5.1488454e-04 0.0000000e+00 -9.5053442e-04 
3.9021674e-04 0.0000000e+00 -1.0021261e-03 
2.2276060e-04 0.0000000e+00 -1.0532723e-03 
4.2593107e-05 0.0000000e+00 -1.1039728e-03 
-1.2020873e-04 0.0000000e+00 -1.1542279e-03 
-2.3556792e-04 0.0000000e+00 -1.2040373e-03 
-2.7340744e-04 0.0000000e+00 -1.2534013e-03 
-2.0365030e-04 0.0000000e+00 -1.3023197e-03 
3.7804996e-06 0.0000000e+00 -1.3507925e-03 
2.2017045e-04 0.0000000e+00 -1.3934470e-03 
3.1348428e-04 0.0000000e+00 -1.4356561e-03 
3.0881798e-04 0.0000000e+00 -1.4774195e-03 
2.3126739e-04 0.0000000e+00 -1.5187374e-03 
1.0592848e-04 0.0000000e+00 -1.5596098e-03 
-4.2102860e-05 0.0000000e+00 -1.6000365e-03 
-1.8773069e-04 0.0000000e+00 -1.6400178e-03 
-3.0585911e-04 0.0000000e+00 -1.6795535e-03 
-3.7139218e-04 0.0000000e+00 -1.7186437e-03 
-3.5923399e-04 0.0000000e+00 -1.7572884e-03 
-2.4428865e-04 0.0000000e+00 -1.7954874e-03 
-1.4601983e-06 0.0000000e+00 -1.8332409e-03 
2.3790833e-04 0.0000000e+00 -1.8651761e-03 
3.4375652e-04 0.0000000e+00 -1.8966658e-03 
3.4310424e-04 0.0000000e+00 -1.9277099e-03 
2.6297130e-04 0.0000000e+00 -1.9583085e-03 
1.3037754e-04 0.0000000e+00 -1.9884615e-03 
-2.7657212e-05 0.0000000e+00 -2.0181690e-03 
-1.8411310e-04 0.0000000e+00 -2.0474310e-03 
-3.1197030e-04 0.0000000e+00 -2.0762472e-03 
-3.8420898e-04 0.0000000e+00 -2.1046181e-03 
-3.7380928e-04 0.0000000e+00 -2.1325434e-03 
-2.5375138e-04 0.0000000e+00 -2.1600232e-03 
2.9845573e-06 0.0000000e+00 -2.1870572e-03 
2.6679281e-04 0.0000000e+00 -2.2082732e-03 
4.0544607e-04 0.0000000e+00 -2.2290435e-03 
4.4203183e-04 0.0000000e+00 -2.2493682e-03 
3.9963753e-04 0.0000000e+00 -2.2692475e-03 
3.0135064e-04 0.0000000e+00 -2.2886812e-03 
1.7025860e-04 0.0000000e+00 -2.3076693e-03 
2.9448922e-05 0.0000000e+00 -2.3262119e-03 
-9.7990960e-05 0.0000000e+00 -2.3443091e-03 
-1.8897357e-04 0.0000000e+00 -2.3619605e-03 
-2.2041144e-04 0.0000000e+00 -2.3791664e-03 
-1.6921714e-04 0.0000000e+00 -2.3959270e-03 
-1.2303150e-05 0.0000000e+00 -2.4122417e-03 
1.1529068e-04 0.0000000e+00 -2.4227384e-03 
8.9331414e-05 0.0000000e+00 -2.4327892e-03 
-5.0883187e-05 0.0000000e+00 -2.4423948e-03 
-2.6605537e-04 0.0000000e+00 -2.4515546e-03 
-5.1688735e-04 0.0000000e+00 -2.4602690e-03 
-7.6408137e-04 0.0000000e+00 -2.4685378e-03 
-9.6833974e-04 0.0000000e+00 -2.4763611e-03 
-1.0903646e-03 0.0000000e+00 -2.4837388e-03 
-1.0908582e-03 0.0000000e+00 -2.4906711e-03 
-9.3052286e-04 0.0000000e+00 -2.4971575e-03 
-5.7006074e-04 0.0000000e+00 -2.5031988e-03 
2.9825871e-05 0.0000000e+00 -2.5087942e-03 
-1.3223286e-05 0.0000000e+00 -2.1152722e-03 
3.1504164e-06 0.0000000e+00 -2.4467029e-03 
-1.2168318e-06 0.0000000e+00 -2.9820283e-03 
2.4871310e-06 0.0000000e+00 -3.3705793e-03 
-1.0252625e-05 0.0000000e+00 -3.3819752e-03 
2.4854893e-05 0.0000000e+00 -4.4231135e-03 
-1.0578628e-05 0.0000000e+00 -4.0902104e-03 
2.5203331e-06 0.0000000e+00 -4.1928366e-03 
-9.7346549e-07 0.0000000e+00 -4.7714249e-03 
1.9897050e-06 0.0000000e+00 -5.1883957e-03 
-8.2020997e-06 0.0000000e+00 -5.0248737e-03 
1.9883913e-05 0.0000000e+00 -6.8388544e-03 
-7.9339716e-06 0.0000000e+00 -6.1548385e-03 
1.8902498e-06 0.0000000e+00 -6.0795057e-03 
-7.3009915e-07 0.0000000e+00 -6.6917432e-03 
1.4922787e-06 0.0000000e+00 -7.1308180e-03 
-6.1515748e-06 0.0000000e+00 -6.8312488e-03 
1.4912936e-05 0.0000000e+00 -9.2463298e-03 
-5.2893142e-06 0.0000000e+00 -7.9127327e-03 
1.2601665e-06 0.0000000e+00 -7.7102869e-03 
-4.8673274e-07 0.0000000e+00 -8.3465595e-03 
9.9485248e-07 0.0000000e+00 -8.8014221e-03 
-4.1010499e-06 0.0000000e+00 -8.4046768e-03 
9.9419567e-06 0.0000000e+00 -1.1249115e-02 
-2.6446571e-06 0.0000000e+00 -9.0807332e-03 
6.3008326e-07 0.0000000e+00 -8.8020191e-03 
-2.4336637e-07 0.0000000e+00 -9.4527127e-03 
4.9742624e-07 0.0000000e+00 -9.9170487e-03 
-2.0505249e-06 0.0000000e+00 -9.4619971e-03 
4.9709784e-06 0.0000000e+00 -1.2564049e-02 
1.5311991e-15 0.0000000e+00 -9.4889449e-03 
1.4743673e-15 0.0000000e+00 -9.1848075e-03 
5.7163702e-16 0.0000000e+00 -9.8403078e-03 
-3.5395058e-16 0.0000000e+00 -1.0307802e-02 
-1.2283639e-15 0.0000000e+00 -9.8333145e-03 
-2.2308722e-15 0.0000000e+00 -1.3021238e-02 
2.6446571e-06 0.0000000e+00 -9.0807332e-03 
-6.3008326e-07 0.0000000e+00 -8.8020191e-03 
2.4336637e-07 0.0000000e+00 -9.4527127e-03 
-4.9742624e-07 0.0000000e+00 -9.9170487e-03 
2.0505249e-06 0.0000000e+00 -9.4619971e-03 
-4.9709784e-06 0.0000000e+00 -1.2564049e-02 
5.2893142e-06 0.0000000e+00 -7.9127327e-03 
-1.2601665e-06 0.0000000e+00 -7.7102869e-03 
4.8673274e-07 0.0000000e+00 -8.3465595e-03 
-9.9485248e-07 0.0000000e+00 -8.8014221e-03 
4.1010499e-06 0.0000000e+00 -8.4046768e-03 
-9.9419567e-06 0.0000000e+00 -1.1249115e-02 
7.9339716e-06 0.0000000e+00 -6.1548385e-03 
-1.8902498e-06 0.0000000e+00 -6.0795057e-03 
7.3009915e-07 0.0000000e+00 -6.6917432e-03 
-1.4922787e-06 0.0000000e+00 -7.1308180e-03 
6.1515748e-06 0.0000000e+00 -6.8312488e-03 
-1.4912936e-05 0.0000000e+00 -9.2463298e-03 
1.0578628e-05 0.0000000e+00 -4.0902104e-03 
-2.5203331e-06 0.0000000e+00 -4.1928366e-03 
9.7346549e-07 0.0000000e+00 -4.7714249e-03 
-1.9897050e-06 0.0000000e+00 -5.1883957e-03 
8.2020997e-06 0.0000000e+00 -5.0248737e-03 
-1.9883913e-05 0.0000000e+00 -6.8388544e-03 
1.3223286e-05 0.0000000e+00 -2.1152722e-03 
-3.1504162e-06 0.0000000e+00 -2.4467029e-03 
1.2168318e-06 0.0000000e+00 -2.9820283e-03 
-2.4871310e-06 0.0000000e+00 -3.3705793e-03 
1.0252625e-05 0.0000000e+00 -3.3819752e-03 
-2.4854893e-05 0.0000000e+00 -4.4231135e-03 
0.0000000e+00 0.0000000e+00 0.0000000e+00 
2.1986994e-04 0.0000000e+00 -6.4093198e-05 
4.3057004e-04 0.0000000e+00 -1.2774084e-04 
6.2293053e-04 0.0000000e+00 -1.9094296e-04 
7.8778149e-04 0.0000000e+00 -2.5369952e-04 
9.1595313e-04 0.0000000e+00 -3.1601053e-04 
9.9827559e-04 0.0000000e+00 -3.7787599e-04 
1.0255792e-03 0.0000000e+00 -4.3929589e-04 
9.8869379e-04 0.0000000e+00 -5.0027028e-04 
8.7844988e-04 0.0000000e+00 -5.6079909e-04 
6.8567746e-04 0.0000000e+00 -6.2088232e-04 
4.0120678e-04 0.0000000e+00 -6.8052008e-04 
1.5867943e-05 0.0000000e+00 -7.3971221e-04 
-3.3138771e-04 0.0000000e+00 -7.9308613e-04 
-5.1554700e-04 0.0000000e+00 -8.4601442e-04 
-5.6668697e-04 0.0000000e+00 -8.9849718e-04 
-5.1488454e-04 0.0000000e+00 -9.5053442e-04 
-3.9021674e-04 0.0000000e+00 -1.0021261e-03 
-2.2276060e-04 0.0000000e+00 -1.0532723e-03 
-4.2593107e-05 0.0000000e+00 -1.1039728e-03 
1.2020873e-04 0.0000000e+00 -1.1542279e-03 
2.3556792e-04 0.0000000e+00 -1.2040373e-03 
2.7340744e-04 0.0000000e+00 -1.2534013e-03 
2.0365030e-04 0.0000000e+00 -1.3023197e-03 
-3.7804996e-06 0.0000000e+00 -1.3507925e-03 
-2.2017045e-04 0.0000000e+00 -1.3934470e-03 
-3.1348428e-04 0.0000000e+00 -1.4356561e-03 
-3.0881798e-04 0.0000000e+00 -1.4774195e-03 
-2.3126739e-04 0.0000000e+00 -1.5187374e-03 
-1.0592848e-04 0.0000000e+00 -1.5596098e-03 
4.2102860e-05 0.0000000e+00 -1.6000365e-03 
1.8773069e-04 0.0000000e+00 -1.6400178e-03 
3.0585911e-04 0.0000000e+00 -1.6795535e-03 
3.7139218e-04 0.0000000e+00 -1.7186437e-03 
3.5923399e-04 0.0000000e+00 -1.7572884e-03 
2.4428865e-04 0.0000000e+00 -1.7954874e-03 
1.4601983e-06 0.0000000e+00 -1.8332409e-03 
-2.3790833e-04 0.0000000e+00 -1.8651761e-03 
-3.4375652e-04 0.0000000e+00 -1.8966658e-03 
-3.4310424e-04 0.0000000e+00 -1.9277099e-03 
-2.6297130e-04 0.0000000e+00 -1.9583085e-03 
-1.3037754e-04 0.0000000e+00 -1.9884615e-03 
2.7657212e-05 0.0000000e+00 -2.0181690e-03 
1.8411310e-04 0.0000000e+00 -2.0474310e-03 
3.1197030e-04 0.0000000e+00 -2.0762472e-03 
3.8420898e-04 0.0000000e+00 -2.1046181e-03 
3.7380928e-04 0.0000000e+00 -2.1325434e-03 
2.5375138e-04 0.0000000e+00 -2.1600232e-03 
-2.9845573e-06 0.0000000e+00 -2.1870572e-03 
-2.6679281e-04 0.0000000e+00 -2.2082732e-03 
-4.0544607e-04 0.0000000e+00 -2.2290435e-03 
-4.4203183e-04 0.0000000e+00 -2.2493682e-03 
-3.9963753e-04 0.0000000e+00 -2.2692475e-03 
-3.0135064e-04 0.0000000e+00 -2.2886812e-03 
-1.7025860e-04 0.0000000e+00 -2.3076693e-03 
-2.9448922e-05 0.0000000e+00 -2.3262119e-03 
9.7990960e-05 0.0000000e+00 -2.3443091e-03 
1.8897357e-04 0.0000000e+00 -2.3619605e-03 
2.2041144e-04 0.0000000e+00 -2.3791664e-03 
1.6921714e-04 0.0000000e+00 -2.3959270e-03 
1.2303150e-05 0.0000000e+00 -2.4122417e-03 
-1.1529068e-04 0.0000000e+00 -2.4227384e-03 
-8.9331414e-05 0.0000000e+00 -2.4327892e-03 
5.0883187e-05 0.0000000e+00 -2.4423948e-03 
2.6605537e-04 0.0000000e+00 -2.4515546e-03 
5.1688735e-04 0.0000000e+00 -2.4602690e-03 
7.6408137e-04 0.0000000e+00 -2.4685378e-03 
9.6833974e-04 0.0000000e+00 -2.4763611e-03 
1.0903646e-03 0.0000000e+00 -2.4837388e-03 
1.0908582e-03 0.0000000e+00 -2.4906711e-03 
9.3052286e-04 0.0000000e+00 -2.4971575e-03 
5.7006074e-04 0.0000000e+00 -2.5031988e-03 
-2.9825871e-05 0.0000000e+00 -2.5087942e-03 
ROTATION 3 212  float
0.0000000e+00 -8.8559301e-04 0.0000000e+00 
0.0000000e+00 -8.6725334e-04 0.0000000e+00 
0.0000000e+00 -8.1223436e-04 0.0000000e+00 
0.0000000e+00 -7.2053605e-04 0.0000000e+00 
0.0000000e+00 -5.9215841e-04 0.0000000e+00 
0.0000000e+00 -4.2710151e-04 0.0000000e+00 
0.0000000e+00 -2.2536523e-04 0.0000000e+00 
0.0000000e+00 1.3050346e-05 0.0000000e+00 
0.0000000e+00 2.8814524e-04 0.0000000e+00 
0.0000000e+00 5.9991947e-04 0.0000000e+00 
0.0000000e+00 9.4837300e-04 0.0000000e+00 
0.0000000e+00 1.3335058e-03 0.0000000e+00 
0.0000000e+00 1.7553180e-03 0.0000000e+00 
0.0000000e+00 1.0427786e-03 0.0000000e+00 
0.0000000e+00 4.5054712e-04 0.0000000e+00 
0.0000000e+00 -2.1376323e-05 0.0000000e+00 
0.0000000e+00 -3.7299175e-04 0.0000000e+00 
0.0000000e+00 -6.0429919e-04 0.0000000e+00 
0.0000000e+00 -7.1529858e-04 0.0000000e+00 
0.0000000e+00 -7.0599001e-04 0.0000000e+00 
0.0000000e+00 -5.7637336e-04 0.0000000e+00 
0.0000000e+00 -3.2644876e-04 0.0000000e+00 
0.0000000e+00 4.3783886e-05 0.0000000e+00 
0.0000000e+00 5.3432456e-04 0.0000000e+00 
0.0000000e+00 1.1451732e-03 0.0000000e+00 
0.0000000e+00 6.0267700e-04 0.0000000e+00 
0.0000000e+00 1.6056444e-04 0.0000000e+00 
0.0000000e+00 -1.8116442e-04 0.0000000e+00 
0.0000000e+00 -4.2250959e-04 0.0000000e+00 
0.0000000e+00 -5.6347111e-04 0.0000000e+00 
0.0000000e+00 -6.0404895e-04 0.0000000e+00 
0.0000000e+00 -5.4424308e-04 0.0000000e+00 
0.0000000e+00 -3.8405359e-04 0.0000000e+00 
0.0000000e+00 -1.2348041e-04 0.0000000e+00 
0.0000000e+00 2.3747646e-04 0.0000000e+00 
0.0000000e+00 6.9881702e-04 0.0000000e+00 
0.0000000e+00 1.2605413e-03 0.0000000e+00 
0.0000000e+00 6.7242025e-04 0.0000000e+00 
0.0000000e+00 1.9237859e-04 0.0000000e+00 
0.0000000e+00 -1.7958370e-04 0.0000000e+00 
0.0000000e+00 -4.4346665e-04 0.0000000e+00 
0.0000000e+00 -5.9927022e-04 0.0000000e+00 
0.0000000e+00 -6.4699451e-04 0.0000000e+00 
0.0000000e+00 -5.8663939e-04 0.0000000e+00 
0.0000000e+00 -4.1820496e-04 0.0000000e+00 
0.0000000e+00 -1.4169117e-04 0.0000000e+00 
0.0000000e+00 2.4290195e-04 0.0000000e+00 
0.0000000e+00 7.3557446e-04 0.0000000e+00 
0.0000000e+00 1.3363262e-03 0.0000000e+00 
0.0000000e+00 7.8953139e-04 0.0000000e+00 
0.0000000e+00 3.3508640e-04 0.0000000e+00 
0.0000000e+00 -2.7008757e-05 0.0000000e+00 
0.0000000e+00 -2.9675403e-04 0.0000000e+00 
0.0000000e+00 -4.7414948e-04 0.0000000e+00 
0.0000000e+00 -5.5919506e-04 0.0000000e+00 
0.0000000e+00 -5.5189076e-04 0.0000000e+00 
0.0000000e+00 -4.5223662e-04 0.0000000e+00 
0.0000000e+00 -2.6023263e-04 0.0000000e+00 
0.0000000e+00 2.4121236e-05 0.0000000e+00 
0.0000000e+00 4.0082497e-04 0.0000000e+00 
0.0000000e+00 8.6987851e-04 0.0000000e+00 
0.0000000e+00 1.7707061e-04 0.0000000e+00 
0.0000000e+00 -3.5854624e-04 0.0000000e+00 
0.0000000e+00 -7.3697208e-04 0.0000000e+00 
0.0000000e+00 -9.5820683e-04 0.0000000e+00 
0.0000000e+00 -1.0222506e-03 0.0000000e+00 
0.0000000e+00 -9.2910323e-04 0.0000000e+00 
0.0000000e+00 -6.7876489e-04 0.0000000e+00 
0.0000000e+00 -2.7123551e-04 0.0000000e+00 
0.0000000e+00 2.9348495e-04 0.0000000e+00 
0.0000000e+00 1.0153964e-03 0.0000000e+00 
0.0000000e+00 1.8944989e-03 0.0000000e+00 
0.0000000e+00 2.9307925e-03 0.0000000e+00 
0.0000000e+00 3.5392714e-03 0.0000000e+00 
0.0000000e+00 3.0308173e-03 0.0000000e+00 
0.0000000e+00 3.1269575e-03 0.0000000e+00 
0.0000000e+00 3.1901116e-03 0.0000000e+00 
0.0000000e+00 2.8014053e-03 0.0000000e+00 
0.0000000e+00 4.5188335e-03 0.0000000e+00 
0.0000000e+00 4.1905851e-03 0.0000000e+00 
0.0000000e+00 3.7838216e-03 0.0000000e+00 
0.0000000e+00 3.8607337e-03 0.0000000e+00 
0.0000000e+00 3.9112573e-03 0.0000000e+00 
0.0000000e+00 3.6002919e-03 0.0000000e+00 
0.0000000e+00 4.9742344e-03 0.0000000e+00 
0.0000000e+00 3.9357864e-03 0.0000000e+00 
0.0000000e+00 3.6307143e-03 0.0000000e+00 
0.0000000e+00 3.6883983e-03 0.0000000e+00 
0.0000000e+00 3.7262908e-03 0.0000000e+00 
0.0000000e+00 3.4930669e-03 0.0000000e+00 
0.0000000e+00 4.5235236e-03 0.0000000e+00 
0.0000000e+00 3.0014042e-03 0.0000000e+00 
0.0000000e+00 2.7980227e-03 0.0000000e+00 
0.0000000e+00 2.8364786e-03 0.0000000e+00 
0.0000000e+00 2.8617405e-03 0.0000000e+00 
0.0000000e+00 2.7062579e-03 0.0000000e+00 
0.0000000e+00 3.3932291e-03 0.0000000e+00 
0.0000000e+00 1.6139662e-03 0.0000000e+00 
0.0000000e+00 1.5122753e-03 0.0000000e+00 
0.0000000e+00 1.5315034e-03 0.0000000e+00 
0.0000000e+00 1.5441342e-03 0.0000000e+00 
0.0000000e+00 1.4663929e-03 0.0000000e+00 
0.0000000e+00 1.8098786e-03 0.0000000e+00 
0.0000000e+00 -8.9348529e-17 0.0000000e+00 
0.0000000e+00 4.2322987e-17 0.0000000e+00 
0.0000000e+00 1.0815874e-16 0.0000000e+00 
0.0000000e+00 -4.7025540e-18 0.0000000e+00 
0.0000000e+00 1.5988684e-16 0.0000000e+00 
0.0000000e+00 2.6221870e-17 0.0000000e+00 
0.0000000e+00 -1.6139662e-03 0.0000000e+00 
0.0000000e+00 -1.5122753e-03 0.0000000e+00 
0.0000000e+00 -1.5315034e-03 0.0000000e+00 
0.0000000e+00 -1.5441342e-03 0.0000000e+00 
0.0000000e+00 -1.4663929e-03 0.0000000e+00 
0.0000000e+00 -1.8098786e-03 0.0000000e+00 
0.0000000e+00 -3.0014042e-03 0.0000000e+00 
0.0000000e+00 -2.7980227e-03 0.0000000e+00 
0.0000000e+00 -2.8364786e-03 0.0000000e+00 
0.0000000e+00 -2.8617405e-03 0.0000000e+00 
0.0000000e+00 -2.7062579e-03 0.0000000e+00 
0.0000000e+00 -3.3932291e-03 0.0000000e+00 
0.0000000e+00 -3.9357864e-03 0.0000000e+00 
0.0000000e+00 -3.6307143e-03 0.0000000e+00 
0.0000000e+00 -3.6883983e-03 0.0000000e+00 
0.0000000e+00 -3.7262908e-03 0.0000000e+00 
0.0000000e+00 -3.4930669e-03 0.0000000e+00 
0.0000000e+00 -4.5235236e-03 0.0000000e+00 
0.0000000e+00 -4.1905851e-03 0.0000000e+00 
0.0000000e+00 -3.7838216e-03 0.0000000e+00 
0.0000000e+00 -3.8607337e-03 0.0000000e+00 
0.0000000e+00 -3.9112573e-03 0.0000000e+00 
0.0000000e+00 -3.6002919e-03 0.0000000e+00 
0.0000000e+00 -4.9742344e-03 0.0000000e+00 
0.0000000e+00 -3.5392714e-03 0.0000000e+00 
0.0000000e+00 -3.0308173e-03 0.0000000e+00 
0.0000000e+00 -3.1269575e-03 0.0000000e+00 
0.0000000e+00 -3.1901116e-03 0.0000000e+00 
0.0000000e+00 -2.8014053e-03 0.0000000e+00 
0.0000000e+00 -4.5188335e-03 0.0000000e+00 
0.0000000e+00 8.8559301e-04 0.0000000e+00 
0.0000000e+00 8.6725334e-04 0.0000000e+00 
0.0000000e+00 8.1223436e-04 0.0000000e+00 
0.0000000e+00 7.2053605e-04 0.0000000e+00 
0.0000000e+00 5.9215841e-04 0.0000000e+00 
0.0000000e+00 4.2710151e-04 0.0000000e+00 
0.0000000e+00 2.2536523e-04 0.0000000e+00 
0.0000000e+00 -1.3050346e-05 0.0000000e+00 
0.0000000e+00 -2.8814524e-04 0.0000000e+00 
0.0000000e+00 -5.9991947e-04 0.0000000e+00 
0.0000000e+00 -9.4837300e-04 0.0000000e+00 
0.0000000e+00 -1.3335058e-03 0.0000000e+00 
0.0000000e+00 -1.7553180e-03 0.0000000e+00 
0.0000000e+00 -1.0427786e-03 0.0000000e+00 
0.0000000e+00 -4.5054712e-04 0.0000000e+00 
0.0000000e+00 2.1376323e-05 0.0000000e+00 
0.0000000e+00 3.7299175e-04 0.0000000e+00 
0.0000000e+00 6.0429919e-04 0.0000000e+00 
0.0000000e+00 7.1529858e-04 0.0000000e+00 
0.0000000e+00 7.0599001e-04 0.0000000e+00 
0.0000000e+00 5.7637336e-04 0.0000000e+00 
0.0000000e+00 3.2644876e-04 0.0000000e+00 
0.0000000e+00 -4.3783886e-05 0.0000000e+00 
0.0000000e+00 -5.3432456e-04 0.0000000e+00 
0.0000000e+00 -1.1451732e-03 0.0000000e+00 
0.0000000e+00 -6.0267700e-04 0.0000000e+00 
0.0000000e+00 -1.6056444e-04 0.0000000e+00 
0.0000000e+00 1.8116442e-04 0.0000000e+00 
0.0000000e+00 4.2250959e-04 0.0000000e+00 
0.0000000e+00 5.6347111e-04 0.0000000e+00 
0.0000000e+00 6.0404895e-04 0.0000000e+00 
0.0000000e+00 5.4424308e-04 0.0000000e+00 
0.0000000e+00 3.8405359e-04 0.0000000e+00 
0.0000000e+00 1.2348041e-04 0.0000000e+00 
0.0000000e+00 -2.3747646e-04 0.0000000e+00 
0.0000000e+00 -6.9881702e-04 0.0000000e+00 
0.0000000e+00 -1.2605413e-03 0.0000000e+00 
0.0000000e+00 -6.7242025e-04 0.0000000e+00 
0.0000000e+00 -1.9237859e-04 0.0000000e+00 
0.0000000e+00 1.7958370e-04 0.0000000e+00 
0.0000000e+00 4.4346665e-04 0.0000000e+00 
0.0000000e+00 5.9927022e-04 0.0000000e+00 
0.0000000e+00 6.4699451e-04 0.0000000e+00 
0.0000000e+00 5.8663939e-04 0.0000000e+00 
0.0000000e+00 4.1820496e-04 0.0000000e+00 
0.0000000e+00 1.4169117e-04 0.0000000e+00 
0.0000000e+00 -2.4290195e-04 0.0000000e+00 
0.0000000e+00 -7.3557446e-04 0.0000000e+00 
0.0000000e+00 -1.3363262e-03 0.0000000e+00 
0.0000000e+00 -7.8953139e-04 0.0000000e+00 
0.0000000e+00 -3.3508640e-04 0.0000000e+00 
0.0000000e+00 2.7008757e-05 0.0000000e+00 
0.0000000e+00 2.9675403e-04 0.0000000e+00 
0.0000000e+00 4.7414948e-04 0.0000000e+00 
0.0000000e+00 5.5919506e-04 0.0000000e+00 
0.0000000e+00 5.5189076e-04 0.0000000e+00 
0.0000000e+00 4.5223662e-04 0.0000000e+00 
0.0000000e+00 2.6023263e-04 0.0000000e+00 
0.0000000e+00 -2.4121236e-05 0.0000000e+00 
0.0000000e+00 -4.0082497e-04 0.0000000e+00 
0.0000000e+00 -8.6987851e-04 0.0000000e+00 
0.0000000e+00 -1.7707061e-04 0.0000000e+00 
0.0000000e+00 3.5854624e-04 0.0000000e+00 
0.0000000e+00 7.3697208e-04 0.0000000e+00 
0.0000000e+00 9.5820683e-04 0.0000000e+00 