# vtk DataFile Version 4.0
vtk output
ASCII
DATASET UNSTRUCTURED_GRID
POINTS 11 float
4.0000000e-06 0.0000000e+00 0.0000000e+00 
1.0000000e-01 0.0000000e+00 0.0000000e+00 
2.0000000e-01 0.0000000e+00 0.0000000e+00 
3.0000001e-01 0.0000000e+00 0.0000000e+00 
4.0000001e-01 0.0000000e+00 0.0000000e+00 
5.0000000e-01 0.0000000e+00 0.0000000e+00 
6.0000002e-01 0.0000000e+00 0.0000000e+00 
6.9999999e-01 0.0000000e+00 0.0000000e+00 
8.0000001e-01 0.0000000e+00 0.0000000e+00 
8.9999998e-01 0.0000000e+00 0.0000000e+00 
1.0000000e+00 0.0000000e+00 0.0000000e+00 

CELLS 10 30
2 0 1
2 1 2
2 2 3
2 3 4
2 4 5
2 5 6
2 6 7
2 7 8
2 8 9
2 9 10

CELL_TYPES 10
3
3
3
3
3
3
3
3
3
3
POINT_DATA 11
FIELD FieldData 5
DISPLACEMENT 3 11  float
0.0000000e+00 0.0000000e+00 0.0000000e+00 
0.0000000e+00 0.0000000e+00 0.0000000e+00 
0.0000000e+00 0.0000000e+00 0.0000000e+00 
0.0000000e+00 0.0000000e+00 0.0000000e+00 
0.0000000e+00 0.0000000e+00 0.0000000e+00 
0.0000000e+00 0.0000000e+00 0.0000000e+00 
0.0000000e+00 0.0000000e+00 0.0000000e+00 
0.0000000e+00 0.0000000e+00 0.0000000e+00 
0.0000000e+00 0.0000000e+00 0.0000000e+00 
0.0000000e+00 0.0000000e+00 0.0000000e+00 
0.0000000e+00 0.0000000e+00 0.0000000e+00 
ROTATION 3 11  float
0.0000000e+00 0.0000000e+00 0.0000000e+00 
0.0000000e+00 0.0000000e+00 0.0000000e+00 
0.0000000e+00 0.0000000e+00 0.0000000e+00 
0.0000000e+00 0.0000000e+00 0.0000000e+00 
0.0000000e+00 0.0000000e+00 0.0000000e+00 
0.0000000e+00 0.0000000e+00 0.0000000e+00 
0.0000000e+00 0.0000000e+00 0.0000000e+00 
0.0000000e+00 0.0000000e+00 0.0000000e+00 
0.0000000e+00 0.0000000e+00 0.0000000e+00 
0.0000000e+00 0.0000000e+00 0.0000000e+00 
0.0000000e+00 0.0000000e+00 0.0000000e+00 
ADJOINT_DISPLACEMENT 3 11  float
0.0000000e+00 0.0000000e+00 0.0000000e+00 
0.0000000e+00 0.0000000e+00 7.2494871e-03 
0.0000000e+00 0.0000000e+00 2.7999137e-02 
0.0000000e+00 0.0000000e+00 6.0748927e-02 
0.0000000e+00 0.0000000e+00 1.0399885e-01 
0.0000000e+00 0.0000000e+00 1.5624888e-01 
0.0000000e+00 0.0000000e+00 1.1599899e-01 
0.0000000e+00 0.0000000e+00 8.1749178e-02 
0.0000000e+00 0.0000000e+00 5.1999424e-02 
0.0000000e+00 0.0000000e+00 2.5249703e-02 
0.0000000e+00 0.0000000e+00 0.0000000e+00 
ADJOINT_ROTATION 3 11  float
0.0000000e+00 0.0000000e+00 0.0000000e+00 
0.0000000e+00 -1.4249571e-01 0.0000000e+00 
0.0000000e+00 -2.6999724e-01 0.0000000e+00 
0.0000000e+00 -3.8249859e-01 0.0000000e+00 
0.0000000e+00 -4.7999975e-01 0.0000000e+00 
0.0000000e+00 -5.6250077e-01 0.0000000e+00 
0.0000000e+00 3.6999843e-01 0.0000000e+00 
0.0000000e+00 3.1749782e-01 0.0000000e+00 
0.0000000e+00 2.7999735e-01 0.0000000e+00 
0.0000000e+00 2.5749710e-01 0.0000000e+00 
0.0000000e+00 2.4999700e-01 0.0000000e+00 
SHAPE_SENSITIVITY 3 11  float
0.0000000e+00 0.0000000e+00 0.0000000e+00 
0.0000000e+00 0.0000000e+00 0.0000000e+00 
0.0000000e+00 0.0000000e+00 0.0000000e+00 
0.0000000e+00 0.0000000e+00 0.0000000e+00 
0.0000000e+00 0.0000000e+00 0.0000000e+00 
0.0000000e+00 0.0000000e+00 0.0000000e+00 
0.0000000e+00 0.0000000e+00 0.0000000e+00 
0.0000000e+00 0.0000000e+00 0.0000000e+00 
0.0000000e+00 0.0000000e+00 0.0000000e+00 
0.0000000e+00 0.0000000e+00 0.0000000e+00 
0.0000000e+00 0.0000000e+00 0.0000000e+00 
CELL_DATA 10
FIELD FieldData 2
I22_SENSITIVITY 1 10  float
0.0000000e+00
0.0000000e+00
0.0000000e+00
0.0000000e+00
0.0000000e+00
0.0000000e+00
0.0000000e+00
0.0000000e+00
0.0000000e+00
0.0000000e+00
YOUNG_MODULUS_SENSITIVITY 1 10  float
0.0000000e+00
0.0000000e+00
0.0000000e+00
0.0000000e+00
0.0000000e+00
0.0000000e+00
0.0000000e+00
0.0000000e+00
0.0000000e+00
0.0000000e+00
