# vtk DataFile Version 4.0
vtk output
ASCII
DATASET UNSTRUCTURED_GRID
POINTS 61 float
0.0000000e+00 0.0000000e+00 0.0000000e+00 
0.0000000e+00 2.0000000e-01 0.0000000e+00 
0.0000000e+00 4.0000001e-01 0.0000000e+00 
0.0000000e+00 6.0000002e-01 0.0000000e+00 
0.0000000e+00 8.0000001e-01 0.0000000e+00 
0.0000000e+00 1.0000000e+00 0.0000000e+00 
0.0000000e+00 1.2000000e+00 0.0000000e+00 
0.0000000e+00 1.4000000e+00 0.0000000e+00 
0.0000000e+00 1.6000000e+00 0.0000000e+00 
0.0000000e+00 1.8000000e+00 0.0000000e+00 
0.0000000e+00 2.0000000e+00 0.0000000e+00 
0.0000000e+00 2.2000000e+00 0.0000000e+00 
0.0000000e+00 2.4000001e+00 0.0000000e+00 
0.0000000e+00 2.5999999e+00 0.0000000e+00 
0.0000000e+00 2.8000000e+00 0.0000000e+00 
0.0000000e+00 3.0000000e+00 0.0000000e+00 
0.0000000e+00 3.2000000e+00 0.0000000e+00 
0.0000000e+00 3.4000001e+00 0.0000000e+00 
0.0000000e+00 3.5999999e+00 0.0000000e+00 
0.0000000e+00 3.8000000e+00 0.0000000e+00 
0.0000000e+00 4.0000000e+00 0.0000000e+00 
2.0000000e-01 4.0000000e+00 0.0000000e+00 
4.0000001e-01 4.0000000e+00 0.0000000e+00 
6.0000002e-01 4.0000000e+00 0.0000000e+00 
8.0000001e-01 4.0000000e+00 0.0000000e+00 
1.0000000e+00 4.0000000e+00 0.0000000e+00 
1.0000000e+00 4.0000000e+00 0.0000000e+00 
1.2000000e+00 4.0000000e+00 0.0000000e+00 
1.4000000e+00 4.0000000e+00 0.0000000e+00 
1.6000000e+00 4.0000000e+00 0.0000000e+00 
1.8000000e+00 4.0000000e+00 0.0000000e+00 
2.0000000e+00 4.0000000e+00 0.0000000e+00 
2.0000000e+00 3.8000000e+00 0.0000000e+00 
2.0000000e+00 3.5999999e+00 0.0000000e+00 
2.0000000e+00 3.4000001e+00 0.0000000e+00 
2.0000000e+00 3.2000000e+00 0.0000000e+00 
2.0000000e+00 3.0000000e+00 0.0000000e+00 
2.0000000e+00 2.8000000e+00 0.0000000e+00 
2.0000000e+00 2.5999999e+00 0.0000000e+00 
2.0000000e+00 2.4000001e+00 0.0000000e+00 
2.0000000e+00 2.2000000e+00 0.0000000e+00 
2.0000000e+00 2.0000000e+00 0.0000000e+00 
2.0000000e+00 1.8000000e+00 0.0000000e+00 
2.0000000e+00 1.6000000e+00 0.0000000e+00 
2.0000000e+00 1.4000000e+00 0.0000000e+00 
2.0000000e+00 1.2000000e+00 0.0000000e+00 
2.0000000e+00 1.0000000e+00 0.0000000e+00 
2.0000000e+00 8.0000001e-01 0.0000000e+00 
2.0000000e+00 6.0000002e-01 0.0000000e+00 
2.0000000e+00 4.0000001e-01 0.0000000e+00 
2.0000000e+00 2.0000000e-01 0.0000000e+00 
2.0000000e+00 0.0000000e+00 0.0000000e+00 
2.0000000e-01 2.0000000e+00 0.0000000e+00 
4.0000001e-01 2.0000000e+00 0.0000000e+00 
6.0000002e-01 2.0000000e+00 0.0000000e+00 
8.0000001e-01 2.0000000e+00 0.0000000e+00 
1.0000000e+00 2.0000000e+00 0.0000000e+00 
1.2000000e+00 2.0000000e+00 0.0000000e+00 
1.4000000e+00 2.0000000e+00 0.0000000e+00 
1.6000000e+00 2.0000000e+00 0.0000000e+00 
1.8000000e+00 2.0000000e+00 0.0000000e+00 

CELLS 60 180
2 0 1
2 1 2
2 2 3
2 3 4
2 4 5
2 5 6
2 6 7
2 7 8
2 8 9
2 9 10
2 10 11
2 11 12
2 12 13
2 13 14
2 14 15
2 15 16
2 16 17
2 17 18
2 18 19
2 19 20
2 20 21
2 21 22
2 22 23
2 23 24
2 24 25
2 26 27
2 27 28
2 28 29
2 29 30
2 30 31
2 31 32
2 32 33
2 33 34
2 34 35
2 35 36
2 36 37
2 37 38
2 38 39
2 39 40
2 40 41
2 41 42
2 42 43
2 43 44
2 44 45
2 45 46
2 46 47
2 47 48
2 48 49
2 49 50
2 50 51
2 10 52
2 52 53
2 53 54
2 54 55
2 55 56
2 56 57
2 57 58
2 58 59
2 59 60
2 60 41

CELL_TYPES 60
3
3
3
3
3
3
3
3
3
3
3
3
3
3
3
3
3
3
3
3
3
3
3
3
3
3
3
3
3
3
3
3
3
3
3
3
3
3
3
3
3
3
3
3
3
3
3
3
3
3
3
3
3
3
3
3
3
3
3
3
POINT_DATA 61
FIELD FieldData 4
DISPLACEMENT 3 61  float
0.0000000e+00 0.0000000e+00 0.0000000e+00 
6.2472041e-04 3.8850969e-17 0.0000000e+00 
2.2191650e-03 7.7653770e-17 0.0000000e+00 
4.3637590e-03 1.1641569e-16 0.0000000e+00 
6.6389274e-03 1.5517329e-16 0.0000000e+00 
8.6250957e-03 1.9400681e-16 0.0000000e+00 
9.9026877e-03 2.3288371e-16 0.0000000e+00 
1.0052131e-02 2.7330460e-16 0.0000000e+00 
8.6538475e-03 3.1574373e-16 0.0000000e+00 
5.2882652e-03 3.5943968e-16 0.0000000e+00 
-4.6419210e-04 4.0422795e-16 0.0000000e+00 
-9.3764132e-03 4.4542292e-16 0.0000000e+00 
-2.0800238e-02 4.8678046e-16 0.0000000e+00 
-3.3023674e-02 5.2820223e-16 0.0000000e+00 
-4.4334725e-02 5.6954490e-16 0.0000000e+00 
-5.3021394e-02 6.1080710e-16 0.0000000e+00 
-5.7371691e-02 6.5176120e-16 0.0000000e+00 
-5.5673614e-02 6.9504406e-16 0.0000000e+00 
-4.6215173e-02 7.3741105e-16 0.0000000e+00 
-2.7284369e-02 7.8047172e-16 0.0000000e+00 
2.8307915e-03 8.2536733e-16 0.0000000e+00 
2.7562273e-03 -4.2726178e-02 0.0000000e+00 
2.6816630e-03 -9.8348707e-02 0.0000000e+00 
2.6070988e-03 -1.6686758e-01 0.0000000e+00 
2.5325345e-03 -2.4828282e-01 0.0000000e+00 
5.5885006e-15 -3.4234115e-01 0.0000000e+00 
5.5885006e-15 -3.4234115e-01 0.0000000e+00 
-2.5325345e-03 -2.4828282e-01 0.0000000e+00 
-2.6070988e-03 -1.6686758e-01 0.0000000e+00 
-2.6816630e-03 -9.8348707e-02 0.0000000e+00 
-2.7562273e-03 -4.2726178e-02 0.0000000e+00 
-2.8307915e-03 3.1562727e-16 0.0000000e+00 
2.7284369e-02 2.9269096e-16 0.0000000e+00 
4.6215173e-02 2.7262669e-16 0.0000000e+00 
5.5673614e-02 2.5009450e-16 0.0000000e+00 
5.7371691e-02 2.3029606e-16 0.0000000e+00 
5.3021394e-02 2.1431159e-16 0.0000000e+00 
4.4334725e-02 1.9903772e-16 0.0000000e+00 
3.3023674e-02 1.8424471e-16 0.0000000e+00 
2.0800238e-02 1.6963124e-16 0.0000000e+00 
9.3764132e-03 1.5487185e-16 0.0000000e+00 
4.6419210e-04 1.3965420e-16 0.0000000e+00 
-5.2882652e-03 1.2662325e-16 0.0000000e+00 
-8.6538475e-03 1.1326424e-16 0.0000000e+00 
-1.0052131e-02 9.9538905e-17 0.0000000e+00 
-9.9026877e-03 8.5545219e-17 0.0000000e+00 
-8.6250957e-03 7.1349701e-17 0.0000000e+00 
-6.6389274e-03 5.7026599e-17 0.0000000e+00 
-4.3637590e-03 4.2651252e-17 0.0000000e+00 
-2.2191650e-03 2.8299894e-17 0.0000000e+00 
-6.2472041e-04 1.4060879e-17 0.0000000e+00 
0.0000000e+00 0.0000000e+00 0.0000000e+00 
-3.7135367e-04 6.3771778e-03 0.0000000e+00 
-2.7851525e-04 1.1337205e-02 0.0000000e+00 
-1.8567684e-04 1.4880082e-02 0.0000000e+00 
-9.2838418e-05 1.7005807e-02 0.0000000e+00 
2.9109071e-15 1.7714383e-02 0.0000000e+00 
9.2838418e-05 1.7005807e-02 0.0000000e+00 
1.8567684e-04 1.4880082e-02 0.0000000e+00 
2.7851525e-04 1.1337205e-02 0.0000000e+00 
3.7135367e-04 6.3771778e-03 0.0000000e+00 
ROTATION 3 61  float
0.0000000e+00 0.0000000e+00 0.0000000e+00 
0.0000000e+00 0.0000000e+00 -5.8975583e-03 
0.0000000e+00 0.0000000e+00 -9.6972417e-03 
0.0000000e+00 0.0000000e+00 -1.1399051e-02 
0.0000000e+00 0.0000000e+00 -1.1002987e-02 
0.0000000e+00 0.0000000e+00 -8.5090473e-03 
0.0000000e+00 0.0000000e+00 -3.9172336e-03 
0.0000000e+00 0.0000000e+00 2.7724546e-03 
0.0000000e+00 0.0000000e+00 1.1560017e-02 
0.0000000e+00 0.0000000e+00 2.2445453e-02 
0.0000000e+00 0.0000000e+00 3.5428766e-02 
0.0000000e+00 0.0000000e+00 5.2266780e-02 
0.0000000e+00 0.0000000e+00 6.0544815e-02 
0.0000000e+00 0.0000000e+00 6.0262877e-02 
0.0000000e+00 0.0000000e+00 5.1420964e-02 
0.0000000e+00 0.0000000e+00 3.4019075e-02 
0.0000000e+00 0.0000000e+00 8.0572087e-03 
0.0000000e+00 0.0000000e+00 -2.6464634e-02 
0.0000000e+00 0.0000000e+00 -6.9546454e-02 
0.0000000e+00 0.0000000e+00 -1.2118825e-01 
0.0000000e+00 0.0000000e+00 -1.8139002e-01 
0.0000000e+00 0.0000000e+00 -2.4587177e-01 
0.0000000e+00 0.0000000e+00 -3.1035352e-01 
0.0000000e+00 0.0000000e+00 -3.7483528e-01 
0.0000000e+00 0.0000000e+00 -4.3931705e-01 
0.0000000e+00 0.0000000e+00 -5.0000000e-01 
0.0000000e+00 0.0000000e+00 5.0000000e-01 
0.0000000e+00 0.0000000e+00 4.3931705e-01 
0.0000000e+00 0.0000000e+00 3.7483528e-01 
0.0000000e+00 0.0000000e+00 3.1035352e-01 
0.0000000e+00 0.0000000e+00 2.4587177e-01 
0.0000000e+00 0.0000000e+00 1.8139002e-01 
0.0000000e+00 0.0000000e+00 1.2118825e-01 
0.0000000e+00 0.0000000e+00 6.9546454e-02 
0.0000000e+00 0.0000000e+00 2.6464634e-02 
0.0000000e+00 0.0000000e+00 -8.0572087e-03 
0.0000000e+00 0.0000000e+00 -3.4019075e-02 
0.0000000e+00 0.0000000e+00 -5.1420964e-02 
0.0000000e+00 0.0000000e+00 -6.0262877e-02 
0.0000000e+00 0.0000000e+00 -6.0544815e-02 
0.0000000e+00 0.0000000e+00 -5.2266780e-02 
0.0000000e+00 0.0000000e+00 -3.5428766e-02 
0.0000000e+00 0.0000000e+00 -2.2445453e-02 
0.0000000e+00 0.0000000e+00 -1.1560017e-02 
0.0000000e+00 0.0000000e+00 -2.7724546e-03 
0.0000000e+00 0.0000000e+00 3.9172336e-03 
0.0000000e+00 0.0000000e+00 8.5090473e-03 
0.0000000e+00 0.0000000e+00 1.1002987e-02 
0.0000000e+00 0.0000000e+00 1.1399051e-02 
0.0000000e+00 0.0000000e+00 9.6972417e-03 
0.0000000e+00 0.0000000e+00 5.8975583e-03 
0.0000000e+00 0.0000000e+00 0.0000000e+00 
0.0000000e+00 0.0000000e+00 2.8343013e-02 
0.0000000e+00 0.0000000e+00 2.1257259e-02 
0.0000000e+00 0.0000000e+00 1.4171506e-02 
0.0000000e+00 0.0000000e+00 7.0857531e-03 
0.0000000e+00 0.0000000e+00 9.7955369e-16 
0.0000000e+00 0.0000000e+00 -7.0857531e-03 
0.0000000e+00 0.0000000e+00 -1.4171506e-02 
0.0000000e+00 0.0000000e+00 -2.1257259e-02 
0.0000000e+00 0.0000000e+00 -2.8343013e-02 
REACTION 3 61  float
-5.4523738e+04 -2.7405186e+03 0.0000000e+00 
-8.8724915e+01 -1.5784974e+04 0.0000000e+00 
-1.3748857e+02 -1.5189791e+04 0.0000000e+00 
-4.5458889e+01 -4.2677852e+03 0.0000000e+00 
9.3571571e+01 9.1046113e+03 0.0000000e+00 
1.3557169e+02 1.7053207e+04 0.0000000e+00 
4.7715942e+01 1.1699418e+04 0.0000000e+00 
6.9955040e+01 -1.4837308e+04 0.0000000e+00 
8.7635852e+02 -7.0414914e+04 0.0000000e+00 
3.7345183e+03 -1.6280895e+05 0.0000000e+00 
-2.9058803e+05 -3.4377153e+05 0.0000000e+00 
1.8580430e+04 -3.7638469e+05 0.0000000e+00 
7.9726069e+03 -1.3926469e+05 0.0000000e+00 
-9.0112598e+03 1.5815273e+05 0.0000000e+00 
-1.8782484e+04 3.8675028e+05 0.0000000e+00 
-1.3490284e+04 4.1594978e+05 0.0000000e+00 
-2.0019163e+03 1.1286188e+05 0.0000000e+00 
-2.1028670e+04 -6.5299875e+05 0.0000000e+00 
-1.4494031e+05 -1.9958919e+06 0.0000000e+00 
-4.9063791e+05 -3.9886138e+06 0.0000000e+00 
-1.2432215e+07 8.4601410e+06 0.0000000e+00 
-8.4935680e+06 2.0810656e+06 0.0000000e+00 
-1.0079302e+07 3.1445445e+06 0.0000000e+00 
-1.1302006e+07 4.3047340e+06 0.0000000e+00 
-6.3022720e+06 4.4885320e+06 0.0000000e+00 
4.9043656e+07 -1.5818119e+07 0.0000000e+00 
-4.9043656e+07 -1.5818119e+07 0.0000000e+00 
6.3022720e+06 4.4885320e+06 0.0000000e+00 
1.1302006e+07 4.3047340e+06 0.0000000e+00 
1.0079302e+07 3.1445445e+06 0.0000000e+00 
8.4935680e+06 2.0810656e+06 0.0000000e+00 
1.2432215e+07 8.4601410e+06 0.0000000e+00 
4.9063791e+05 -3.9886138e+06 0.0000000e+00 
1.4494031e+05 -1.9958919e+06 0.0000000e+00 
2.1028670e+04 -6.5299875e+05 0.0000000e+00 
2.0019163e+03 1.1286188e+05 0.0000000e+00 
1.3490284e+04 4.1594978e+05 0.0000000e+00 
1.8782484e+04 3.8675028e+05 0.0000000e+00 
9.0112598e+03 1.5815273e+05 0.0000000e+00 
-7.9726069e+03 -1.3926469e+05 0.0000000e+00 
-1.8580430e+04 -3.7638469e+05 0.0000000e+00 
2.9058803e+05 -3.4377153e+05 0.0000000e+00 
-3.7345183e+03 -1.6280895e+05 0.0000000e+00 
-8.7635852e+02 -7.0414914e+04 0.0000000e+00 
-6.9955040e+01 -1.4837308e+04 0.0000000e+00 
-4.7715942e+01 1.1699418e+04 0.0000000e+00 
-1.3557169e+02 1.7053207e+04 0.0000000e+00 
-9.3571571e+01 9.1046113e+03 0.0000000e+00 
4.5458889e+01 -4.2677852e+03 0.0000000e+00 
1.3748857e+02 -1.5189791e+04 0.0000000e+00 
8.8724915e+01 -1.5784974e+04 0.0000000e+00 
5.4523738e+04 -2.7405186e+03 0.0000000e+00 
1.1949078e+05 4.2640708e+03 0.0000000e+00 
8.9674852e+04 2.8166814e+03 0.0000000e+00 
5.9810281e+04 1.7818992e+03 0.0000000e+00 
2.9913258e+04 1.1606567e+03 0.0000000e+00 
4.3655746e-09 9.5351367e+02 0.0000000e+00 
-2.9913258e+04 1.1606567e+03 0.0000000e+00 
-5.9810281e+04 1.7818993e+03 0.0000000e+00 
-8.9674852e+04 2.8166814e+03 0.0000000e+00 
-1.1949078e+05 4.2640708e+03 0.0000000e+00 
REACTION_MOMENT 3 61  float
0.0000000e+00 0.0000000e+00 3.6104215e+04 
0.0000000e+00 0.0000000e+00 -5.2702308e+00 
0.0000000e+00 0.0000000e+00 -1.8491014e+01 
0.0000000e+00 0.0000000e+00 -2.9113651e+01 
0.0000000e+00 0.0000000e+00 -2.6326876e+01 
0.0000000e+00 0.0000000e+00 -1.2984991e+01 
0.0000000e+00 0.0000000e+00 -2.3476055e+00 
0.0000000e+00 0.0000000e+00 2.4540334e+00 
0.0000000e+00 0.0000000e+00 4.6218651e+01 
0.0000000e+00 0.0000000e+00 2.7662726e+02 
0.0000000e+00 0.0000000e+00 1.9535413e+03 
0.0000000e+00 0.0000000e+00 2.9007651e+03 
0.0000000e+00 0.0000000e+00 4.4110605e+03 
0.0000000e+00 0.0000000e+00 4.3521113e+03 
0.0000000e+00 0.0000000e+00 2.7707690e+03 
0.0000000e+00 0.0000000e+00 9.2456085e+02 
0.0000000e+00 0.0000000e+00 8.1059341e+01 
0.0000000e+00 0.0000000e+00 -8.6486670e+02 
0.0000000e+00 0.0000000e+00 -8.8930752e+03 
0.0000000e+00 0.0000000e+00 -4.1145805e+04 
0.0000000e+00 0.0000000e+00 -1.2593748e+05 
0.0000000e+00 0.0000000e+00 -2.9616875e+05 
0.0000000e+00 0.0000000e+00 -5.7462356e+05 
0.0000000e+00 0.0000000e+00 -9.7437400e+05 
0.0000000e+00 0.0000000e+00 -1.3685501e+06 
-0.0000000e+00 -0.0000000e+00 -1.0895971e+06 
0.0000000e+00 0.0000000e+00 1.0895971e+06 
0.0000000e+00 0.0000000e+00 1.3685501e+06 
0.0000000e+00 0.0000000e+00 9.7437400e+05 
0.0000000e+00 0.0000000e+00 5.7462356e+05 
0.0000000e+00 0.0000000e+00 2.9616875e+05 
0.0000000e+00 0.0000000e+00 1.2593748e+05 
0.0000000e+00 0.0000000e+00 4.1145805e+04 
0.0000000e+00 0.0000000e+00 8.8930752e+03 
0.0000000e+00 0.0000000e+00 8.6486670e+02 
0.0000000e+00 0.0000000e+00 -8.1059341e+01 
0.0000000e+00 0.0000000e+00 -9.2456085e+02 
0.0000000e+00 0.0000000e+00 -2.7707690e+03 
0.0000000e+00 0.0000000e+00 -4.3521113e+03 
0.0000000e+00 0.0000000e+00 -4.4110605e+03 
0.0000000e+00 0.0000000e+00 -2.9007651e+03 
0.0000000e+00 0.0000000e+00 -1.9535413e+03 
0.0000000e+00 0.0000000e+00 -2.7662726e+02 
0.0000000e+00 0.0000000e+00 -4.6218651e+01 
0.0000000e+00 0.0000000e+00 -2.4540334e+00 
0.0000000e+00 0.0000000e+00 2.3476055e+00 
0.0000000e+00 0.0000000e+00 1.2984991e+01 
0.0000000e+00 0.0000000e+00 2.6326876e+01 
0.0000000e+00 0.0000000e+00 2.9113651e+01 
0.0000000e+00 0.0000000e+00 1.8491014e+01 
0.0000000e+00 0.0000000e+00 5.2702308e+00 
0.0000000e+00 0.0000000e+00 -3.6104215e+04 
0.0000000e+00 0.0000000e+00 1.3073074e+03 
0.0000000e+00 0.0000000e+00 8.2568109e+02 
0.0000000e+00 0.0000000e+00 4.7669977e+02 
0.0000000e+00 0.0000000e+00 2.1621553e+02 
0.0000000e+00 0.0000000e+00 1.2626697e-07 
0.0000000e+00 0.0000000e+00 -2.1621553e+02 
0.0000000e+00 0.0000000e+00 -4.7669977e+02 
0.0000000e+00 0.0000000e+00 -8.2568109e+02 
0.0000000e+00 0.0000000e+00 -1.3073074e+03 
CELL_DATA 60
FIELD FieldData 2
FORCE 3 60  float
2.9108149e+03 -5.4514914e+04 0.0000000e+00 
1.8960271e+04 -5.4463043e+04 0.0000000e+00 
3.4300395e+04 -5.4385297e+04 0.0000000e+00 
3.8603914e+04 -5.4359805e+04 0.0000000e+00 
2.9420240e+04 -5.4412371e+04 0.0000000e+00 
1.2173569e+04 -5.4489617e+04 0.0000000e+00 
1.6656905e+02 -5.4518441e+04 0.0000000e+00 
1.4582110e+04 -5.4551879e+04 0.0000000e+00 
8.4464586e+04 -5.5001188e+04 0.0000000e+00 
2.4665156e+05 -5.6952594e+04 0.0000000e+00 
5.9152356e+05 2.1292361e+05 0.0000000e+00 
9.7097588e+05 2.0258439e+05 0.0000000e+00 
1.1112670e+06 1.9817645e+05 0.0000000e+00 
9.5194531e+05 2.0315962e+05 0.0000000e+00 
5.6200362e+05 2.1361912e+05 0.0000000e+00 
1.4110086e+05 2.2129825e+05 0.0000000e+00 
2.1504893e+04 2.2250302e+05 0.0000000e+00 
6.6612831e+05 2.3301141e+05 0.0000000e+00 
2.6550832e+06 3.0790956e+05 0.0000000e+00 
6.6513115e+06 5.6233631e+05 0.0000000e+00 
1.2958411e+07 9.2947738e+05 0.0000000e+00 
2.1618550e+07 1.9869486e+06 0.0000000e+00 
3.2018712e+07 3.5475572e+06 0.0000000e+00 
4.3857956e+07 5.6271985e+06 0.0000000e+00 
5.1079588e+07 6.8094855e+06 0.0000000e+00 
5.1079588e+07 -6.8094855e+06 0.0000000e+00 
4.3857956e+07 -5.6271985e+06 0.0000000e+00 
3.2018712e+07 -3.5475572e+06 0.0000000e+00 
2.1618550e+07 -1.9869486e+06 0.0000000e+00 
1.2958411e+07 -9.2947738e+05 0.0000000e+00 
6.6513115e+06 -5.6233631e+05 0.0000000e+00 
2.6550832e+06 -3.0790956e+05 0.0000000e+00 
6.6612831e+05 -2.3301141e+05 0.0000000e+00 
2.1504893e+04 -2.2250302e+05 0.0000000e+00 
1.4110086e+05 -2.2129825e+05 0.0000000e+00 
5.6200362e+05 -2.1361912e+05 0.0000000e+00 
9.5194531e+05 -2.0315962e+05 0.0000000e+00 
1.1112670e+06 -1.9817645e+05 0.0000000e+00 
9.7097588e+05 -2.0258439e+05 0.0000000e+00 
5.9152356e+05 -2.1292361e+05 0.0000000e+00 
2.4665156e+05 5.6952594e+04 0.0000000e+00 
8.4464586e+04 5.5001188e+04 0.0000000e+00 
1.4582110e+04 5.4551879e+04 0.0000000e+00 
1.6656905e+02 5.4518441e+04 0.0000000e+00 
1.2173569e+04 5.4489617e+04 0.0000000e+00 
2.9420240e+04 5.4412371e+04 0.0000000e+00 
3.8603914e+04 5.4359805e+04 0.0000000e+00 
3.4300395e+04 5.4385297e+04 0.0000000e+00 
1.8960271e+04 5.4463043e+04 0.0000000e+00 
2.9108149e+03 5.4514914e+04 0.0000000e+00 
5.7951150e+05 -7.9642686e+03 0.0000000e+00 
4.5999356e+05 -5.1647002e+03 0.0000000e+00 
3.7030794e+05 -3.1368845e+03 0.0000000e+00 
3.1049506e+05 -1.6610996e+03 0.0000000e+00 
2.8058184e+05 -5.1684576e+02 0.0000000e+00 
2.8058184e+05 5.1684576e+02 0.0000000e+00 
3.1049506e+05 1.6610996e+03 0.0000000e+00 
3.7030794e+05 3.1368845e+03 0.0000000e+00 
4.5999356e+05 5.1647002e+03 0.0000000e+00 
5.7951150e+05 7.9642686e+03 0.0000000e+00 
MOMENT 3 60  float
0.0000000e+00 0.0000000e+00 3.0652695e+04 
0.0000000e+00 0.0000000e+00 1.9749430e+04 
0.0000000e+00 0.0000000e+00 8.8456191e+03 
0.0000000e+00 0.0000000e+00 -2.0586692e+03 
0.0000000e+00 0.0000000e+00 -1.2962834e+04 
0.0000000e+00 0.0000000e+00 -2.3866396e+04 
0.0000000e+00 0.0000000e+00 -3.4769664e+04 
0.0000000e+00 0.0000000e+00 -4.5674375e+04 
0.0000000e+00 0.0000000e+00 -5.6584375e+04 
0.0000000e+00 0.0000000e+00 -6.7506258e+04 
0.0000000e+00 0.0000000e+00 -8.7594984e+04 
0.0000000e+00 0.0000000e+00 -4.3089266e+04 
0.0000000e+00 0.0000000e+00 1.4678761e+03 
0.0000000e+00 0.0000000e+00 4.6023039e+04 
0.0000000e+00 0.0000000e+00 9.0524281e+04 
0.0000000e+00 0.0000000e+00 1.3496595e+05 
0.0000000e+00 0.0000000e+00 1.7943319e+05 
0.0000000e+00 0.0000000e+00 2.2414659e+05 
0.0000000e+00 0.0000000e+00 2.6950928e+05 
0.0000000e+00 0.0000000e+00 3.1615962e+05 
0.0000000e+00 0.0000000e+00 3.4210088e+05 
0.0000000e+00 0.0000000e+00 3.4710788e+05 
0.0000000e+00 0.0000000e+00 3.5352103e+05 
0.0000000e+00 0.0000000e+00 3.6138284e+05 
0.0000000e+00 0.0000000e+00 3.4489675e+05 
0.0000000e+00 0.0000000e+00 3.4489675e+05 
0.0000000e+00 0.0000000e+00 3.6138284e+05 
0.0000000e+00 0.0000000e+00 3.5352103e+05 
0.0000000e+00 0.0000000e+00 3.4710788e+05 
0.0000000e+00 0.0000000e+00 3.4210088e+05 
0.0000000e+00 0.0000000e+00 3.1615962e+05 
0.0000000e+00 0.0000000e+00 2.6950928e+05 
0.0000000e+00 0.0000000e+00 2.2414659e+05 
0.0000000e+00 0.0000000e+00 1.7943319e+05 
0.0000000e+00 0.0000000e+00 1.3496595e+05 
0.0000000e+00 0.0000000e+00 9.0524281e+04 
0.0000000e+00 0.0000000e+00 4.6023039e+04 
0.0000000e+00 0.0000000e+00 1.4678761e+03 
0.0000000e+00 0.0000000e+00 -4.3089266e+04 
0.0000000e+00 0.0000000e+00 -8.7594984e+04 
0.0000000e+00 0.0000000e+00 -6.7506258e+04 
0.0000000e+00 0.0000000e+00 -5.6584375e+04 
0.0000000e+00 0.0000000e+00 -4.5674375e+04 
0.0000000e+00 0.0000000e+00 -3.4769664e+04 
0.0000000e+00 0.0000000e+00 -2.3866396e+04 
0.0000000e+00 0.0000000e+00 -1.2962834e+04 
0.0000000e+00 0.0000000e+00 -2.0586692e+03 
0.0000000e+00 0.0000000e+00 8.8456191e+03 
0.0000000e+00 0.0000000e+00 1.9749430e+04 
0.0000000e+00 0.0000000e+00 3.0652695e+04 
0.0000000e+00 0.0000000e+00 3.6860938e+04 
0.0000000e+00 0.0000000e+00 3.6854176e+04 
0.0000000e+00 0.0000000e+00 3.6849105e+04 
0.0000000e+00 0.0000000e+00 3.6845723e+04 
0.0000000e+00 0.0000000e+00 3.6844035e+04 
0.0000000e+00 0.0000000e+00 3.6844035e+04 
0.0000000e+00 0.0000000e+00 3.6845723e+04 
0.0000000e+00 0.0000000e+00 3.6849105e+04 
0.0000000e+00 0.0000000e+00 3.6854176e+04 
0.0000000e+00 0.0000000e+00 3.6860938e+04 
