# vtk DataFile Version 4.0
vtk output
ASCII
DATASET UNSTRUCTURED_GRID
POINTS 212 float
0.0000000e+00 0.0000000e+00 0.0000000e+00 
0.0000000e+00 0.0000000e+00 2.5000000e-01 
0.0000000e+00 0.0000000e+00 5.0000000e-01 
0.0000000e+00 0.0000000e+00 7.5000000e-01 
0.0000000e+00 0.0000000e+00 1.0000000e+00 
0.0000000e+00 0.0000000e+00 1.2500000e+00 
0.0000000e+00 0.0000000e+00 1.5000000e+00 
0.0000000e+00 0.0000000e+00 1.7500000e+00 
0.0000000e+00 0.0000000e+00 2.0000000e+00 
0.0000000e+00 0.0000000e+00 2.2500000e+00 
0.0000000e+00 0.0000000e+00 2.5000000e+00 
0.0000000e+00 0.0000000e+00 2.7500000e+00 
0.0000000e+00 0.0000000e+00 3.0000000e+00 
0.0000000e+00 0.0000000e+00 3.2500000e+00 
0.0000000e+00 0.0000000e+00 3.5000000e+00 
0.0000000e+00 0.0000000e+00 3.7500000e+00 
0.0000000e+00 0.0000000e+00 4.0000000e+00 
0.0000000e+00 0.0000000e+00 4.2500000e+00 
0.0000000e+00 0.0000000e+00 4.5000000e+00 
0.0000000e+00 0.0000000e+00 4.7500000e+00 
0.0000000e+00 0.0000000e+00 5.0000000e+00 
0.0000000e+00 0.0000000e+00 5.2500000e+00 
0.0000000e+00 0.0000000e+00 5.5000000e+00 
0.0000000e+00 0.0000000e+00 5.7500000e+00 
0.0000000e+00 0.0000000e+00 6.0000000e+00 
0.0000000e+00 0.0000000e+00 6.2500000e+00 
0.0000000e+00 0.0000000e+00 6.5000000e+00 
0.0000000e+00 0.0000000e+00 6.7500000e+00 
0.0000000e+00 0.0000000e+00 7.0000000e+00 
0.0000000e+00 0.0000000e+00 7.2500000e+00 
0.0000000e+00 0.0000000e+00 7.5000000e+00 
0.0000000e+00 0.0000000e+00 7.7500000e+00 
0.0000000e+00 0.0000000e+00 8.0000000e+00 
0.0000000e+00 0.0000000e+00 8.2500000e+00 
0.0000000e+00 0.0000000e+00 8.5000000e+00 
0.0000000e+00 0.0000000e+00 8.7500000e+00 
0.0000000e+00 0.0000000e+00 9.0000000e+00 
0.0000000e+00 0.0000000e+00 9.2500000e+00 
0.0000000e+00 0.0000000e+00 9.5000000e+00 
0.0000000e+00 0.0000000e+00 9.7500000e+00 
0.0000000e+00 0.0000000e+00 1.0000000e+01 
0.0000000e+00 0.0000000e+00 1.0250000e+01 
0.0000000e+00 0.0000000e+00 1.0500000e+01 
0.0000000e+00 0.0000000e+00 1.0750000e+01 
0.0000000e+00 0.0000000e+00 1.1000000e+01 
0.0000000e+00 0.0000000e+00 1.1250000e+01 
0.0000000e+00 0.0000000e+00 1.1500000e+01 
0.0000000e+00 0.0000000e+00 1.1750000e+01 
0.0000000e+00 0.0000000e+00 1.2000000e+01 
0.0000000e+00 0.0000000e+00 1.2250000e+01 
0.0000000e+00 0.0000000e+00 1.2500000e+01 
0.0000000e+00 0.0000000e+00 1.2750000e+01 
0.0000000e+00 0.0000000e+00 1.3000000e+01 
0.0000000e+00 0.0000000e+00 1.3250000e+01 
0.0000000e+00 0.0000000e+00 1.3500000e+01 
0.0000000e+00 0.0000000e+00 1.3750000e+01 
0.0000000e+00 0.0000000e+00 1.4000000e+01 
0.0000000e+00 0.0000000e+00 1.4250000e+01 
0.0000000e+00 0.0000000e+00 1.4500000e+01 
0.0000000e+00 0.0000000e+00 1.4750000e+01 
0.0000000e+00 0.0000000e+00 1.5000000e+01 
0.0000000e+00 0.0000000e+00 1.5250000e+01 
0.0000000e+00 0.0000000e+00 1.5500000e+01 
0.0000000e+00 0.0000000e+00 1.5750000e+01 
0.0000000e+00 0.0000000e+00 1.6000000e+01 
0.0000000e+00 0.0000000e+00 1.6250000e+01 
0.0000000e+00 0.0000000e+00 1.6500000e+01 
0.0000000e+00 0.0000000e+00 1.6750000e+01 
0.0000000e+00 0.0000000e+00 1.7000000e+01 
0.0000000e+00 0.0000000e+00 1.7250000e+01 
0.0000000e+00 0.0000000e+00 1.7500000e+01 
0.0000000e+00 0.0000000e+00 1.7750000e+01 
0.0000000e+00 0.0000000e+00 1.8000000e+01 
5.0000000e-01 0.0000000e+00 3.0000000e+00 
5.0000000e-01 0.0000000e+00 6.0000000e+00 
5.0000000e-01 0.0000000e+00 9.0000000e+00 
5.0000000e-01 0.0000000e+00 1.2000000e+01 
5.0000000e-01 0.0000000e+00 1.5000000e+01 
5.0000000e-01 0.0000000e+00 1.8000000e+01 
1.0000000e+00 0.0000000e+00 3.0000000e+00 
1.0000000e+00 0.0000000e+00 6.0000000e+00 
1.0000000e+00 0.0000000e+00 9.0000000e+00 
1.0000000e+00 0.0000000e+00 1.2000000e+01 
1.0000000e+00 0.0000000e+00 1.5000000e+01 
1.0000000e+00 0.0000000e+00 1.8000000e+01 
1.5000000e+00 0.0000000e+00 3.0000000e+00 
1.5000000e+00 0.0000000e+00 6.0000000e+00 
1.5000000e+00 0.0000000e+00 9.0000000e+00 
1.5000000e+00 0.0000000e+00 1.2000000e+01 
1.5000000e+00 0.0000000e+00 1.5000000e+01 
1.5000000e+00 0.0000000e+00 1.8000000e+01 
2.0000000e+00 0.0000000e+00 3.0000000e+00 
2.0000000e+00 0.0000000e+00 6.0000000e+00 
2.0000000e+00 0.0000000e+00 9.0000000e+00 
2.0000000e+00 0.0000000e+00 1.2000000e+01 
2.0000000e+00 0.0000000e+00 1.5000000e+01 
2.0000000e+00 0.0000000e+00 1.8000000e+01 
2.5000000e+00 0.0000000e+00 3.0000000e+00 
2.5000000e+00 0.0000000e+00 6.0000000e+00 
2.5000000e+00 0.0000000e+00 9.0000000e+00 
2.5000000e+00 0.0000000e+00 1.2000000e+01 
2.5000000e+00 0.0000000e+00 1.5000000e+01 
2.5000000e+00 0.0000000e+00 1.8000000e+01 
3.0000000e+00 0.0000000e+00 3.0000000e+00 
3.0000000e+00 0.0000000e+00 6.0000000e+00 
3.0000000e+00 0.0000000e+00 9.0000000e+00 
3.0000000e+00 0.0000000e+00 1.2000000e+01 
3.0000000e+00 0.0000000e+00 1.5000000e+01 
3.0000000e+00 0.0000000e+00 1.8000000e+01 
3.5000000e+00 0.0000000e+00 3.0000000e+00 
3.5000000e+00 0.0000000e+00 6.0000000e+00 
3.5000000e+00 0.0000000e+00 9.0000000e+00 
3.5000000e+00 0.0000000e+00 1.2000000e+01 
3.5000000e+00 0.0000000e+00 1.5000000e+01 
3.5000000e+00 0.0000000e+00 1.8000000e+01 
4.0000000e+00 0.0000000e+00 3.0000000e+00 
4.0000000e+00 0.0000000e+00 6.0000000e+00 
4.0000000e+00 0.0000000e+00 9.0000000e+00 
4.0000000e+00 0.0000000e+00 1.2000000e+01 
4.0000000e+00 0.0000000e+00 1.5000000e+01 
4.0000000e+00 0.0000000e+00 1.8000000e+01 
4.5000000e+00 0.0000000e+00 3.0000000e+00 
4.5000000e+00 0.0000000e+00 6.0000000e+00 
4.5000000e+00 0.0000000e+00 9.0000000e+00 
4.5000000e+00 0.0000000e+00 1.2000000e+01 
4.5000000e+00 0.0000000e+00 1.5000000e+01 
4.5000000e+00 0.0000000e+00 1.8000000e+01 
5.0000000e+00 0.0000000e+00 3.0000000e+00 
5.0000000e+00 0.0000000e+00 6.0000000e+00 
5.0000000e+00 0.0000000e+00 9.0000000e+00 
5.0000000e+00 0.0000000e+00 1.2000000e+01 
5.0000000e+00 0.0000000e+00 1.5000000e+01 
5.0000000e+00 0.0000000e+00 1.8000000e+01 
5.5000000e+00 0.0000000e+00 3.0000000e+00 
5.5000000e+00 0.0000000e+00 6.0000000e+00 
5.5000000e+00 0.0000000e+00 9.0000000e+00 
5.5000000e+00 0.0000000e+00 1.2000000e+01 
5.5000000e+00 0.0000000e+00 1.5000000e+01 
5.5000000e+00 0.0000000e+00 1.8000000e+01 
6.0000000e+00 0.0000000e+00 0.0000000e+00 
6.0000000e+00 0.0000000e+00 2.5000000e-01 
6.0000000e+00 0.0000000e+00 5.0000000e-01 
6.0000000e+00 0.0000000e+00 7.5000000e-01 
6.0000000e+00 0.0000000e+00 1.0000000e+00 
6.0000000e+00 0.0000000e+00 1.2500000e+00 
6.0000000e+00 0.0000000e+00 1.5000000e+00 
6.0000000e+00 0.0000000e+00 1.7500000e+00 
6.0000000e+00 0.0000000e+00 2.0000000e+00 
6.0000000e+00 0.0000000e+00 2.2500000e+00 
6.0000000e+00 0.0000000e+00 2.5000000e+00 
6.0000000e+00 0.0000000e+00 2.7500000e+00 
6.0000000e+00 0.0000000e+00 3.0000000e+00 
6.0000000e+00 0.0000000e+00 3.2500000e+00 
6.0000000e+00 0.0000000e+00 3.5000000e+00 
6.0000000e+00 0.0000000e+00 3.7500000e+00 
6.0000000e+00 0.0000000e+00 4.0000000e+00 
6.0000000e+00 0.0000000e+00 4.2500000e+00 
6.0000000e+00 0.0000000e+00 4.5000000e+00 
6.0000000e+00 0.0000000e+00 4.7500000e+00 
6.0000000e+00 0.0000000e+00 5.0000000e+00 
6.0000000e+00 0.0000000e+00 5.2500000e+00 
6.0000000e+00 0.0000000e+00 5.5000000e+00 
6.0000000e+00 0.0000000e+00 5.7500000e+00 
6.0000000e+00 0.0000000e+00 6.0000000e+00 
6.0000000e+00 0.0000000e+00 6.2500000e+00 
6.0000000e+00 0.0000000e+00 6.5000000e+00 
6.0000000e+00 0.0000000e+00 6.7500000e+00 
6.0000000e+00 0.0000000e+00 7.0000000e+00 
6.0000000e+00 0.0000000e+00 7.2500000e+00 
6.0000000e+00 0.0000000e+00 7.5000000e+00 
6.0000000e+00 0.0000000e+00 7.7500000e+00 
6.0000000e+00 0.0000000e+00 8.0000000e+00 
6.0000000e+00 0.0000000e+00 8.2500000e+00 
6.0000000e+00 0.0000000e+00 8.5000000e+00 
6.0000000e+00 0.0000000e+00 8.7500000e+00 
6.0000000e+00 0.0000000e+00 9.0000000e+00 
6.0000000e+00 0.0000000e+00 9.2500000e+00 
6.0000000e+00 0.0000000e+00 9.5000000e+00 
6.0000000e+00 0.0000000e+00 9.7500000e+00 
6.0000000e+00 0.0000000e+00 1.0000000e+01 
6.0000000e+00 0.0000000e+00 1.0250000e+01 
6.0000000e+00 0.0000000e+00 1.0500000e+01 
6.0000000e+00 0.0000000e+00 1.0750000e+01 
6.0000000e+00 0.0000000e+00 1.1000000e+01 
6.0000000e+00 0.0000000e+00 1.1250000e+01 
6.0000000e+00 0.0000000e+00 1.1500000e+01 
6.0000000e+00 0.0000000e+00 1.1750000e+01 
6.0000000e+00 0.0000000e+00 1.2000000e+01 
6.0000000e+00 0.0000000e+00 1.2250000e+01 
6.0000000e+00 0.0000000e+00 1.2500000e+01 
6.0000000e+00 0.0000000e+00 1.2750000e+01 
6.0000000e+00 0.0000000e+00 1.3000000e+01 
6.0000000e+00 0.0000000e+00 1.3250000e+01 
6.0000000e+00 0.0000000e+00 1.3500000e+01 
6.0000000e+00 0.0000000e+00 1.3750000e+01 
6.0000000e+00 0.0000000e+00 1.4000000e+01 
6.0000000e+00 0.0000000e+00 1.4250000e+01 
6.0000000e+00 0.0000000e+00 1.4500000e+01 
6.0000000e+00 0.0000000e+00 1.4750000e+01 
6.0000000e+00 0.0000000e+00 1.5000000e+01 
6.0000000e+00 0.0000000e+00 1.5250000e+01 
6.0000000e+00 0.0000000e+00 1.5500000e+01 
6.0000000e+00 0.0000000e+00 1.5750000e+01 
6.0000000e+00 0.0000000e+00 1.6000000e+01 
6.0000000e+00 0.0000000e+00 1.6250000e+01 
6.0000000e+00 0.0000000e+00 1.6500000e+01 
6.0000000e+00 0.0000000e+00 1.6750000e+01 
6.0000000e+00 0.0000000e+00 1.7000000e+01 
6.0000000e+00 0.0000000e+00 1.7250000e+01 
6.0000000e+00 0.0000000e+00 1.7500000e+01 
6.0000000e+00 0.0000000e+00 1.7750000e+01 
6.0000000e+00 0.0000000e+00 1.8000000e+01 

CELLS 216 648
2 0 1
2 1 2
2 2 3
2 3 4
2 4 5
2 5 6
2 6 7
2 7 8
2 8 9
2 9 10
2 10 11
2 11 12
2 12 13
2 13 14
2 14 15
2 15 16
2 16 17
2 17 18
2 18 19
2 19 20
2 20 21
2 21 22
2 22 23
2 23 24
2 24 25
2 25 26
2 26 27
2 27 28
2 28 29
2 29 30
2 30 31
2 31 32
2 32 33
2 33 34
2 34 35
2 35 36
2 36 37
2 37 38
2 38 39
2 39 40
2 40 41
2 41 42
2 42 43
2 43 44
2 44 45
2 45 46
2 46 47
2 47 48
2 48 49
2 49 50
2 50 51
2 51 52
2 52 53
2 53 54
2 54 55
2 55 56
2 56 57
2 57 58
2 58 59
2 59 60
2 60 61
2 61 62
2 62 63
2 63 64
2 64 65
2 65 66
2 66 67
2 67 68
2 68 69
2 69 70
2 70 71
2 71 72
2 139 140
2 140 141
2 141 142
2 142 143
2 143 144
2 144 145
2 145 146
2 146 147
2 147 148
2 148 149
2 149 150
2 150 151
2 151 152
2 152 153
2 153 154
2 154 155
2 155 156
2 156 157
2 157 158
2 158 159
2 159 160
2 160 161
2 161 162
2 162 163
2 163 164
2 164 165
2 165 166
2 166 167
2 167 168
2 168 169
2 169 170
2 170 171
2 171 172
2 172 173
2 173 174
2 174 175
2 175 176
2 176 177
2 177 178
2 178 179
2 179 180
2 180 181
2 181 182
2 182 183
2 183 184
2 184 185
2 185 186
2 186 187
2 187 188
2 188 189
2 189 190
2 190 191
2 191 192
2 192 193
2 193 194
2 194 195
2 195 196
2 196 197
2 197 198
2 198 199
2 199 200
2 200 201
2 201 202
2 202 203
2 203 204
2 204 205
2 205 206
2 206 207
2 207 208
2 208 209
2 209 210
2 210 211
2 12 73
2 73 79
2 79 85
2 85 91
2 91 97
2 97 103
2 103 109
2 109 115
2 115 121
2 121 127
2 127 133
2 133 151
2 24 74
2 74 80
2 80 86
2 86 92
2 92 98
2 98 104
2 104 110
2 110 116
2 116 122
2 122 128
2 128 134
2 134 163
2 36 75
2 75 81
2 81 87
2 87 93
2 93 99
2 99 105
2 105 111
2 111 117
2 117 123
2 123 129
2 129 135
2 135 175
2 48 76
2 76 82
2 82 88
2 88 94
2 94 100
2 100 106
2 106 112
2 112 118
2 118 124
2 124 130
2 130 136
2 136 187
2 60 77
2 77 83
2 83 89
2 89 95
2 95 101
2 101 107
2 107 113
2 113 119
2 119 125
2 125 131
2 131 137
2 137 199
2 72 78
2 78 84
2 84 90
2 90 96
2 96 102
2 102 108
2 108 114
2 114 120
2 120 126
2 126 132
2 132 138
2 138 211

CELL_TYPES 216
3
3
3
3
3
3
3
3
3
3
3
3
3
3
3
3
3
3
3
3
3
3
3
3
3
3
3
3
3
3
3
3
3
3
3
3
3
3
3
3
3
3
3
3
3
3
3
3
3
3
3
3
3
3
3
3
3
3
3
3
3
3
3
3
3
3
3
3
3
3
3
3
3
3
3
3
3
3
3
3
3
3
3
3
3
3
3
3
3
3
3
3
3
3
3
3
3
3
3
3
3
3
3
3
3
3
3
3
3
3
3
3
3
3
3
3
3
3
3
3
3
3
3
3
3
3
3
3
3
3
3
3
3
3
3
3
3
3
3
3
3
3
3
3
3
3
3
3
3
3
3
3
3
3
3
3
3
3
3
3
3
3
3
3
3
3
3
3
3
3
3
3
3
3
3
3
3
3
3
3
3
3
3
3
3
3
3
3
3
3
3
3
3
3
3
3
3
3
3
3
3
3
3
3
3
3
3
3
3
3
3
3
3
3
3
3
POINT_DATA 212
FIELD FieldData 3
ADJOINT_DISPLACEMENT 3 212  float
0.0000000e+00 0.0000000e+00 0.0000000e+00 
-1.2159589e-02 0.0000000e+00 -2.5290786e-15 
-2.4239374e-02 0.0000000e+00 -5.0581572e-15 
-3.6159556e-02 0.0000000e+00 -7.5872358e-15 
-4.7840331e-02 0.0000000e+00 -1.0116314e-14 
-5.9201900e-02 0.0000000e+00 -1.2645393e-14 
-7.0164457e-02 0.0000000e+00 -1.5174472e-14 
-8.0648199e-02 0.0000000e+00 -1.7703549e-14 
-9.0573326e-02 0.0000000e+00 -2.0232629e-14 
-9.9860035e-02 0.0000000e+00 -2.2761707e-14 
-1.0842852e-01 0.0000000e+00 -2.5290786e-14 
-1.1619899e-01 0.0000000e+00 -2.7819864e-14 
-1.2309163e-01 0.0000000e+00 -3.0348943e-14 
-1.3024846e-01 0.0000000e+00 2.3070939e-05 
-1.3918804e-01 0.0000000e+00 4.6141879e-05 
-1.5039548e-01 0.0000000e+00 6.9212816e-05 
-1.6435587e-01 0.0000000e+00 9.2283757e-05 
-1.8155430e-01 0.0000000e+00 1.1535469e-04 
-2.0247585e-01 0.0000000e+00 1.3842563e-04 
-2.2760561e-01 0.0000000e+00 1.6149657e-04 
-2.5742868e-01 0.0000000e+00 1.8456751e-04 
-2.9243013e-01 0.0000000e+00 2.0763844e-04 
-3.3309510e-01 0.0000000e+00 2.3070938e-04 
-3.7990862e-01 0.0000000e+00 2.5378031e-04 
-4.3335578e-01 0.0000000e+00 2.7685126e-04 
-4.8671657e-01 0.0000000e+00 2.5251176e-04 
-5.3327668e-01 0.0000000e+00 2.2817227e-04 
-5.7352990e-01 0.0000000e+00 2.0383277e-04 
-6.0797018e-01 0.0000000e+00 1.7949328e-04 
-6.3709122e-01 0.0000000e+00 1.5515377e-04 
-6.6138691e-01 0.0000000e+00 1.3081428e-04 
-6.8135113e-01 0.0000000e+00 1.0647478e-04 
-6.9747758e-01 0.0000000e+00 8.2135281e-05 
-7.1026021e-01 0.0000000e+00 5.7795787e-05 
-7.2019279e-01 0.0000000e+00 3.3456290e-05 
-7.2776920e-01 0.0000000e+00 9.1167922e-06 
-7.3348314e-01 0.0000000e+00 -1.5222705e-05 
-7.3865157e-01 0.0000000e+00 -2.0299776e-05 
-7.4418724e-01 0.0000000e+00 -2.5376847e-05 
-7.4997783e-01 0.0000000e+00 -3.0453919e-05 
-7.5591123e-01 0.0000000e+00 -3.5530989e-05 
-7.6187509e-01 0.0000000e+00 -4.0608062e-05 
-7.6775724e-01 0.0000000e+00 -4.5685130e-05 
-7.7344543e-01 0.0000000e+00 -5.0762203e-05 
-7.7882737e-01 0.0000000e+00 -5.5839275e-05 
-7.8379095e-01 0.0000000e+00 -6.0916347e-05 
-7.8822380e-01 0.0000000e+00 -6.5993416e-05 
-7.9201382e-01 0.0000000e+00 -7.1070484e-05 
-7.9504865e-01 0.0000000e+00 -7.6147560e-05 
-7.9749769e-01 0.0000000e+00 -7.7204772e-05 
-7.9962146e-01 0.0000000e+00 -7.8261983e-05 
-8.0144471e-01 0.0000000e+00 -7.9319194e-05 
-8.0299205e-01 0.0000000e+00 -8.0376405e-05 
-8.0428821e-01 0.0000000e+00 -8.1433616e-05 
-8.0535787e-01 0.0000000e+00 -8.2490827e-05 
-8.0622572e-01 0.0000000e+00 -8.3548039e-05 
-8.0691648e-01 0.0000000e+00 -8.4605250e-05 
-8.0745482e-01 0.0000000e+00 -8.5662461e-05 
-8.0786538e-01 0.0000000e+00 -8.6719672e-05 
-8.0817294e-01 0.0000000e+00 -8.7776883e-05 
-8.0840206e-01 0.0000000e+00 -8.8834095e-05 
-8.0861217e-01 0.0000000e+00 -8.9045439e-05 
-8.0884296e-01 0.0000000e+00 -8.9256784e-05 
-8.0908996e-01 0.0000000e+00 -8.9468136e-05 
-8.0934846e-01 0.0000000e+00 -8.9679481e-05 
-8.0961400e-01 0.0000000e+00 -8.9890833e-05 
-8.0988199e-01 0.0000000e+00 -9.0102178e-05 
-8.1014788e-01 0.0000000e+00 -9.0313522e-05 
-8.1040704e-01 0.0000000e+00 -9.0524874e-05 
-8.1065500e-01 0.0000000e+00 -9.0736219e-05 
-8.1088710e-01 0.0000000e+00 -9.0947571e-05 
-8.1109881e-01 0.0000000e+00 -9.1158916e-05 
-8.1128561e-01 0.0000000e+00 -9.1370261e-05 
-1.2321289e-01 0.0000000e+00 8.6302701e-03 
-4.3335766e-01 0.0000000e+00 1.4236577e-01 
-7.3335308e-01 0.0000000e+00 6.4228917e-03 
-7.9507804e-01 0.0000000e+00 4.1786712e-03 
-8.0839580e-01 0.0000000e+00 1.6020375e-04 
-8.1128657e-01 0.0000000e+00 1.9777630e-04 
-1.2333414e-01 0.0000000e+00 9.9590318e-03 
-4.3335953e-01 0.0000000e+00 3.3857369e-01 
-7.3322296e-01 0.0000000e+00 6.9048232e-03 
-7.9510748e-01 0.0000000e+00 6.6633914e-03 
-8.0838954e-01 0.0000000e+00 1.5648476e-04 
-8.1128758e-01 0.0000000e+00 3.8460662e-04 
-1.2345540e-01 0.0000000e+00 5.7059960e-03 
-4.3336141e-01 0.0000000e+00 5.8536667e-01 
-7.3309290e-01 0.0000000e+00 2.8663946e-03 
-7.9513687e-01 0.0000000e+00 7.6776538e-03 
-8.0838323e-01 0.0000000e+00 -3.6940328e-05 
-8.1128854e-01 0.0000000e+00 4.8487456e-04 
-1.2357665e-01 0.0000000e+00 -2.4091275e-03 
-4.3336329e-01 0.0000000e+00 3.7921068e-01 
-7.3296279e-01 0.0000000e+00 -4.2565702e-03 
-7.9516625e-01 0.0000000e+00 7.5210985e-03 
-8.0837697e-01 0.0000000e+00 -3.5702076e-04 
-8.1128949e-01 0.0000000e+00 5.1433407e-04 
-1.2369790e-01 0.0000000e+00 -1.2666628e-02 
-4.3336517e-01 0.0000000e+00 2.1657175e-01 
-7.3283273e-01 0.0000000e+00 -1.3028248e-02 
-7.9519564e-01 0.0000000e+00 6.4933677e-03 
-8.0837071e-01 0.0000000e+00 -7.4070576e-04 
-8.1129050e-01 0.0000000e+00 4.8873894e-04 
-1.2381916e-01 0.0000000e+00 -2.3346795e-02 
-4.3336704e-01 0.0000000e+00 9.3915939e-02 
-7.3270261e-01 0.0000000e+00 -2.2012815e-02 
-7.9522502e-01 0.0000000e+00 4.8941011e-03 
-8.0836439e-01 0.0000000e+00 -1.1249445e-03 
-8.1129146e-01 0.0000000e+00 4.2384307e-04 
-1.2394041e-01 0.0000000e+00 -3.2729916e-02 
-4.3336892e-01 0.0000000e+00 7.7092326e-03 
-7.3257250e-01 0.0000000e+00 -2.9774448e-02 
-7.9525441e-01 0.0000000e+00 3.0229399e-03 
-8.0835813e-01 0.0000000e+00 -1.4466865e-03 
-8.1129247e-01 0.0000000e+00 3.3540037e-04 
-1.2406167e-01 0.0000000e+00 -3.9096285e-02 
-4.3337080e-01 0.0000000e+00 -4.5582335e-02 
-7.3244244e-01 0.0000000e+00 -3.4877323e-02 
-7.9528379e-01 0.0000000e+00 1.1795254e-03 
-8.0835187e-01 0.0000000e+00 -1.6428807e-03 
-8.1129342e-01 0.0000000e+00 2.3916473e-04 
-1.2418292e-01 0.0000000e+00 -4.0726189e-02 
-4.3337268e-01 0.0000000e+00 -6.9492750e-02 
-7.3231232e-01 0.0000000e+00 -3.5885617e-02 
-7.9531318e-01 0.0000000e+00 -3.3650207e-04 
-8.0834556e-01 0.0000000e+00 -1.6504766e-03 
-8.1129444e-01 0.0000000e+00 1.5089002e-04 
-1.2430417e-01 0.0000000e+00 -3.5899915e-02 
-4.3337455e-01 0.0000000e+00 -6.7555986e-02 
-7.3218226e-01 0.0000000e+00 -3.1363506e-02 
-7.9534256e-01 0.0000000e+00 -1.2255014e-03 
-8.0833930e-01 0.0000000e+00 -1.4064232e-03 
-8.1129539e-01 0.0000000e+00 8.6330117e-05 
-1.2442543e-01 0.0000000e+00 -2.2897756e-02 
-4.3337643e-01 0.0000000e+00 -4.3306027e-02 
-7.3205215e-01 0.0000000e+00 -1.9875169e-02 
-7.9537195e-01 0.0000000e+00 -1.1878319e-03 
-8.0833304e-01 0.0000000e+00 -8.4766990e-04 
-8.1129640e-01 0.0000000e+00 6.1238905e-05 
0.0000000e+00 0.0000000e+00 0.0000000e+00 
-8.4769372e-03 0.0000000e+00 2.7739069e-15 
-1.7033678e-02 0.0000000e+00 5.5478147e-15 
-2.5750021e-02 0.0000000e+00 8.3217226e-15 
-3.4705773e-02 0.0000000e+00 1.1095606e-14 
-4.3980733e-02 0.0000000e+00 1.3869511e-14 
-5.3654701e-02 0.0000000e+00 1.6643427e-14 
-6.3807487e-02 0.0000000e+00 1.9417344e-14 
-7.4518882e-02 0.0000000e+00 2.2191294e-14 
-8.5868701e-02 0.0000000e+00 2.4965369e-14 
-9.7936735e-02 0.0000000e+00 2.7739504e-14 
-1.1080279e-01 0.0000000e+00 3.0513559e-14 
-1.2454668e-01 0.0000000e+00 3.3287744e-14 
-1.4060596e-01 0.0000000e+00 -2.3070939e-05 
-1.6004159e-01 0.0000000e+00 -4.6141879e-05 
-1.8236850e-01 0.0000000e+00 -6.9212816e-05 
-2.0710160e-01 0.0000000e+00 -9.2283757e-05 
-2.3375580e-01 0.0000000e+00 -1.1535469e-04 
-2.6184598e-01 0.0000000e+00 -1.3842563e-04 
-2.9088712e-01 0.0000000e+00 -1.6149657e-04 
-3.2039404e-01 0.0000000e+00 -1.8456751e-04 
-3.4988174e-01 0.0000000e+00 -2.0763844e-04 
-3.7886506e-01 0.0000000e+00 -2.3070938e-04 
-4.0685895e-01 0.0000000e+00 -2.5378031e-04 
-4.3337831e-01 0.0000000e+00 -2.7685126e-04 
-4.5984223e-01 0.0000000e+00 -2.5251176e-04 
-4.8766404e-01 0.0000000e+00 -2.2817227e-04 
-5.1634985e-01 0.0000000e+00 -2.0383277e-04 
-5.4540592e-01 0.0000000e+00 -1.7949328e-04 
-5.7433832e-01 0.0000000e+00 -1.5515377e-04 
-6.0265326e-01 0.0000000e+00 -1.3081428e-04 
-6.2985694e-01 0.0000000e+00 -1.0647478e-04 
-6.5545547e-01 0.0000000e+00 -8.2135281e-05 
-6.7895514e-01 0.0000000e+00 -5.7795787e-05 
-6.9986200e-01 0.0000000e+00 -3.3456290e-05 
-7.1768224e-01 0.0000000e+00 -9.1167922e-06 
-7.3192209e-01 0.0000000e+00 1.5222705e-05 
-7.4341840e-01 0.0000000e+00 2.0299776e-05 
-7.5341219e-01 0.0000000e+00 2.5376847e-05 
-7.6201564e-01 0.0000000e+00 3.0453919e-05 
-7.6934099e-01 0.0000000e+00 3.5530989e-05 
-7.7550054e-01 0.0000000e+00 4.0608062e-05 
-7.8060645e-01 0.0000000e+00 4.5685130e-05 
-7.8477103e-01 0.0000000e+00 5.0762203e-05 
-7.8810644e-01 0.0000000e+00 5.5839275e-05 
-7.9072493e-01 0.0000000e+00 6.0916347e-05 
-7.9273880e-01 0.0000000e+00 6.5993416e-05 
-7.9426014e-01 0.0000000e+00 7.1070484e-05 
-7.9540133e-01 0.0000000e+00 7.6147560e-05 
-7.9644251e-01 0.0000000e+00 7.7204772e-05 
-7.9757249e-01 0.0000000e+00 7.8261983e-05 
-7.9876661e-01 0.0000000e+00 7.9319194e-05 
-8.0000019e-01 0.0000000e+00 8.0376405e-05 
-8.0124855e-01 0.0000000e+00 8.1433616e-05 
-8.0248702e-01 0.0000000e+00 8.2490827e-05 
-8.0369085e-01 0.0000000e+00 8.3548039e-05 
-8.0483538e-01 0.0000000e+00 8.4605250e-05 
-8.0589592e-01 0.0000000e+00 8.5662461e-05 
-8.0684775e-01 0.0000000e+00 8.6719672e-05 
-8.0766630e-01 0.0000000e+00 8.7776883e-05 
-8.0832672e-01 0.0000000e+00 8.8834095e-05 
-8.0886441e-01 0.0000000e+00 8.9045439e-05 
-8.0933416e-01 0.0000000e+00 8.9256784e-05 
-8.0974042e-01 0.0000000e+00 8.9468136e-05 
-8.1008792e-01 0.0000000e+00 8.9679481e-05 
-8.1038111e-01 0.0000000e+00 8.9890833e-05 
-8.1062460e-01 0.0000000e+00 9.0102178e-05 
-8.1082296e-01 0.0000000e+00 9.0313522e-05 
-8.1098074e-01 0.0000000e+00 9.0524874e-05 
-8.1110245e-01 0.0000000e+00 9.0736219e-05 
-8.1119281e-01 0.0000000e+00 9.0947571e-05 
-8.1125623e-01 0.0000000e+00 9.1158916e-05 
-8.1129736e-01 0.0000000e+00 9.1370261e-05 
ADJOINT_ROTATION 3 212  float
0.0000000e+00 -4.8691556e-02 0.0000000e+00 
0.0000000e+00 -4.8531950e-02 0.0000000e+00 
0.0000000e+00 -4.8053138e-02 0.0000000e+00 
0.0000000e+00 -4.7255117e-02 0.0000000e+00 
0.0000000e+00 -4.6137884e-02 0.0000000e+00 
0.0000000e+00 -4.4701446e-02 0.0000000e+00 
0.0000000e+00 -4.2945798e-02 0.0000000e+00 
0.0000000e+00 -4.0870938e-02 0.0000000e+00 
0.0000000e+00 -3.8476873e-02 0.0000000e+00 
0.0000000e+00 -3.5763599e-02 0.0000000e+00 
0.0000000e+00 -3.2731116e-02 0.0000000e+00 
0.0000000e+00 -2.9379424e-02 0.0000000e+00 
0.0000000e+00 -2.5708523e-02 0.0000000e+00 
0.0000000e+00 -3.1869415e-02 0.0000000e+00 
0.0000000e+00 -3.9970662e-02 0.0000000e+00 
0.0000000e+00 -5.0012272e-02 0.0000000e+00 
0.0000000e+00 -6.1994236e-02 0.0000000e+00 
0.0000000e+00 -7.5916559e-02 0.0000000e+00 
0.0000000e+00 -9.1779239e-02 0.0000000e+00 
0.0000000e+00 -1.0958228e-01 0.0000000e+00 
0.0000000e+00 -1.2932567e-01 0.0000000e+00 
0.0000000e+00 -1.5100943e-01 0.0000000e+00 
0.0000000e+00 -1.7463353e-01 0.0000000e+00 
0.0000000e+00 -2.0019801e-01 0.0000000e+00 
0.0000000e+00 -2.2770283e-01 0.0000000e+00 
0.0000000e+00 -1.9951250e-01 0.0000000e+00 
0.0000000e+00 -1.7329749e-01 0.0000000e+00 
0.0000000e+00 -1.4905779e-01 0.0000000e+00 
0.0000000e+00 -1.2679340e-01 0.0000000e+00 
0.0000000e+00 -1.0650433e-01 0.0000000e+00 
0.0000000e+00 -8.8190570e-02 0.0000000e+00 
0.0000000e+00 -7.1852125e-02 0.0000000e+00 
0.0000000e+00 -5.7489000e-02 0.0000000e+00 
0.0000000e+00 -4.5101184e-02 0.0000000e+00 
0.0000000e+00 -3.4688685e-02 0.0000000e+00 
0.0000000e+00 -2.6251500e-02 0.0000000e+00 
0.0000000e+00 -1.9789629e-02 0.0000000e+00 
0.0000000e+00 -2.1482952e-02 0.0000000e+00 
0.0000000e+00 -2.2727335e-02 0.0000000e+00 
0.0000000e+00 -2.3522779e-02 0.0000000e+00 
0.0000000e+00 -2.3869283e-02 0.0000000e+00 
0.0000000e+00 -2.3766849e-02 0.0000000e+00 
0.0000000e+00 -2.3215475e-02 0.0000000e+00 
0.0000000e+00 -2.2215161e-02 0.0000000e+00 
0.0000000e+00 -2.0765906e-02 0.0000000e+00 
0.0000000e+00 -1.8867714e-02 0.0000000e+00 
0.0000000e+00 -1.6520582e-02 0.0000000e+00 
0.0000000e+00 -1.3724509e-02 0.0000000e+00 
0.0000000e+00 -1.0479497e-02 0.0000000e+00 
0.0000000e+00 -9.1291321e-03 0.0000000e+00 
0.0000000e+00 -7.8775212e-03 0.0000000e+00 
0.0000000e+00 -6.7246635e-03 0.0000000e+00 
0.0000000e+00 -5.6705596e-03 0.0000000e+00 
0.0000000e+00 -4.7152098e-03 0.0000000e+00 
0.0000000e+00 -3.8586138e-03 0.0000000e+00 
0.0000000e+00 -3.1007712e-03 0.0000000e+00 
0.0000000e+00 -2.4416829e-03 0.0000000e+00 
0.0000000e+00 -1.8813480e-03 0.0000000e+00 
0.0000000e+00 -1.4197670e-03 0.0000000e+00 
0.0000000e+00 -1.0569398e-03 0.0000000e+00 
0.0000000e+00 -7.9286640e-04 0.0000000e+00 
0.0000000e+00 -8.8484486e-04 0.0000000e+00 
0.0000000e+00 -9.5855829e-04 0.0000000e+00 
0.0000000e+00 -1.0140066e-03 0.0000000e+00 
0.0000000e+00 -1.0511898e-03 0.0000000e+00 
0.0000000e+00 -1.0701079e-03 0.0000000e+00 
0.0000000e+00 -1.0707610e-03 0.0000000e+00 
0.0000000e+00 -1.0531489e-03 0.0000000e+00 
0.0000000e+00 -1.0172717e-03 0.0000000e+00 
0.0000000e+00 -9.6312939e-04 0.0000000e+00 
0.0000000e+00 -8.9072203e-04 0.0000000e+00 
0.0000000e+00 -8.0004957e-04 0.0000000e+00 
0.0000000e+00 -6.9111196e-04 0.0000000e+00 
0.0000000e+00 -9.3857953e-03 0.0000000e+00 
0.0000000e+00 -3.3947483e-01 0.0000000e+00 
0.0000000e+00 -6.4414381e-03 0.0000000e+00 
0.0000000e+00 -6.6396585e-03 0.0000000e+00 
0.0000000e+00 -2.2430193e-04 0.0000000e+00 
0.0000000e+00 -4.7072559e-04 0.0000000e+00 
0.0000000e+00 3.4975111e-03 0.0000000e+00 
0.0000000e+00 -4.4417888e-01 0.0000000e+00 
0.0000000e+00 4.0351050e-03 0.0000000e+00 
0.0000000e+00 -3.3991020e-03 0.0000000e+00 
0.0000000e+00 2.1816100e-04 0.0000000e+00 
0.0000000e+00 -2.8184697e-04 0.0000000e+00 
0.0000000e+00 1.2941396e-02 0.0000000e+00 
0.0000000e+00 -5.4181498e-01 0.0000000e+00 
0.0000000e+00 1.1640001e-02 0.0000000e+00 
0.0000000e+00 -7.5782696e-04 0.0000000e+00 
0.0000000e+00 5.3452241e-04 0.0000000e+00 
0.0000000e+00 -1.2447612e-04 0.0000000e+00 
0.0000000e+00 1.8945860e-02 0.0000000e+00 
0.0000000e+00 3.6761689e-01 0.0000000e+00 
0.0000000e+00 1.6373251e-02 0.0000000e+00 
0.0000000e+00 1.2841664e-03 0.0000000e+00 
0.0000000e+00 7.2478235e-04 0.0000000e+00 
0.0000000e+00 1.3869550e-06 0.0000000e+00 
0.0000000e+00 2.1510905e-02 0.0000000e+00 
0.0000000e+00 2.8411674e-01 0.0000000e+00 
0.0000000e+00 1.8234853e-02 0.0000000e+00 
0.0000000e+00 2.7268780e-03 0.0000000e+00 
0.0000000e+00 7.8894076e-04 0.0000000e+00 
0.0000000e+00 9.5742274e-05 0.0000000e+00 
0.0000000e+00 2.0636527e-02 0.0000000e+00 
0.0000000e+00 2.0768453e-01 0.0000000e+00 
0.0000000e+00 1.7224807e-02 0.0000000e+00 
0.0000000e+00 3.5703077e-03 0.0000000e+00 
0.0000000e+00 7.2699768e-04 0.0000000e+00 
0.0000000e+00 1.5858983e-04 0.0000000e+00 
0.0000000e+00 1.6322726e-02 0.0000000e+00 
0.0000000e+00 1.3832028e-01 0.0000000e+00 
0.0000000e+00 1.3343116e-02 0.0000000e+00 
0.0000000e+00 3.8144561e-03 0.0000000e+00 
0.0000000e+00 5.3895306e-04 0.0000000e+00 
0.0000000e+00 1.8992962e-04 0.0000000e+00 
0.0000000e+00 8.5695079e-03 0.0000000e+00 
0.0000000e+00 7.6023988e-02 0.0000000e+00 
0.0000000e+00 6.5897773e-03 0.0000000e+00 
0.0000000e+00 3.4593223e-03 0.0000000e+00 
0.0000000e+00 2.2480696e-04 0.0000000e+00 
0.0000000e+00 1.8976165e-04 0.0000000e+00 
0.0000000e+00 -2.6231334e-03 0.0000000e+00 
0.0000000e+00 2.0795658e-02 0.0000000e+00 
0.0000000e+00 -3.0352089e-03 0.0000000e+00 
0.0000000e+00 2.5049071e-03 0.0000000e+00 
0.0000000e+00 -2.1544064e-04 0.0000000e+00 
0.0000000e+00 1.5808591e-04 0.0000000e+00 
0.0000000e+00 -1.7255194e-02 0.0000000e+00 
0.0000000e+00 -2.7364716e-02 0.0000000e+00 
0.0000000e+00 -1.5531842e-02 0.0000000e+00 
0.0000000e+00 9.5121004e-04 0.0000000e+00 
0.0000000e+00 -7.8178977e-04 0.0000000e+00 
0.0000000e+00 9.4902411e-05 0.0000000e+00 
0.0000000e+00 -3.5326678e-02 0.0000000e+00 
0.0000000e+00 -6.8457127e-02 0.0000000e+00 
0.0000000e+00 -3.0900123e-02 0.0000000e+00 
0.0000000e+00 -1.2017686e-03 0.0000000e+00 
0.0000000e+00 -1.4742403e-03 0.0000000e+00 
0.0000000e+00 2.1114614e-07 0.0000000e+00 
0.0000000e+00 -3.3854548e-02 0.0000000e+00 
0.0000000e+00 -3.4014154e-02 0.0000000e+00 
0.0000000e+00 -3.4492966e-02 0.0000000e+00 
0.0000000e+00 -3.5290986e-02 0.0000000e+00 
0.0000000e+00 -3.6408219e-02 0.0000000e+00 
0.0000000e+00 -3.7844658e-02 0.0000000e+00 
0.0000000e+00 -3.9600305e-02 0.0000000e+00 
0.0000000e+00 -4.1675165e-02 0.0000000e+00 
0.0000000e+00 -4.4069231e-02 0.0000000e+00 
0.0000000e+00 -4.6782505e-02 0.0000000e+00 
0.0000000e+00 -4.9814988e-02 0.0000000e+00 
0.0000000e+00 -5.3166680e-02 0.0000000e+00 
0.0000000e+00 -5.6837581e-02 0.0000000e+00 
0.0000000e+00 -7.1313217e-02 0.0000000e+00 
0.0000000e+00 -8.3848491e-02 0.0000000e+00 
0.0000000e+00 -9.4443411e-02 0.0000000e+00 
0.0000000e+00 -1.0309797e-01 0.0000000e+00 
0.0000000e+00 -1.0981218e-01 0.0000000e+00 
0.0000000e+00 -1.1458602e-01 0.0000000e+00 
0.0000000e+00 -1.1741951e-01 0.0000000e+00 
0.0000000e+00 -1.1831264e-01 0.0000000e+00 
0.0000000e+00 -1.1726541e-01 0.0000000e+00 
0.0000000e+00 -1.1427782e-01 0.0000000e+00 
0.0000000e+00 -1.0934988e-01 0.0000000e+00 
0.0000000e+00 -1.0248158e-01 0.0000000e+00 
0.0000000e+00 -1.0890069e-01 0.0000000e+00 
0.0000000e+00 -1.1334447e-01 0.0000000e+00 
0.0000000e+00 -1.1581294e-01 0.0000000e+00 
0.0000000e+00 -1.1630610e-01 0.0000000e+00 
0.0000000e+00 -1.1482394e-01 0.0000000e+00 
0.0000000e+00 -1.1136647e-01 0.0000000e+00 
0.0000000e+00 -1.0593369e-01 0.0000000e+00 
0.0000000e+00 -9.8525591e-02 0.0000000e+00 
0.0000000e+00 -8.9142174e-02 0.0000000e+00 
0.0000000e+00 -7.7783450e-02 0.0000000e+00 
0.0000000e+00 -6.4449407e-02 0.0000000e+00 
0.0000000e+00 -4.9140047e-02 0.0000000e+00 
0.0000000e+00 -4.2905379e-02 0.0000000e+00 
0.0000000e+00 -3.7119649e-02 0.0000000e+00 
0.0000000e+00 -3.1782862e-02 0.0000000e+00 
0.0000000e+00 -2.6895009e-02 0.0000000e+00 
0.0000000e+00 -2.2456098e-02 0.0000000e+00 
0.0000000e+00 -1.8466128e-02 0.0000000e+00 
0.0000000e+00 -1.4925095e-02 0.0000000e+00 
0.0000000e+00 -1.1833003e-02 0.0000000e+00 
0.0000000e+00 -9.1898497e-03 0.0000000e+00 
0.0000000e+00 -6.9956370e-03 0.0000000e+00 
0.0000000e+00 -5.2503631e-03 0.0000000e+00 
0.0000000e+00 -3.9540292e-03 0.0000000e+00 
0.0000000e+00 -4.3587387e-03 0.0000000e+00 
0.0000000e+00 -4.6646944e-03 0.0000000e+00 
0.0000000e+00 -4.8718960e-03 0.0000000e+00 
0.0000000e+00 -4.9803443e-03 0.0000000e+00 
0.0000000e+00 -4.9900385e-03 0.0000000e+00 
0.0000000e+00 -4.9009789e-03 0.0000000e+00 
0.0000000e+00 -4.7131656e-03 0.0000000e+00 
0.0000000e+00 -4.4265985e-03 0.0000000e+00 
0.0000000e+00 -4.0412778e-03 0.0000000e+00 
0.0000000e+00 -3.5572031e-03 0.0000000e+00 
0.0000000e+00 -2.9743747e-03 0.0000000e+00 
0.0000000e+00 -2.2927925e-03 0.0000000e+00 
0.0000000e+00 -2.0117674e-03 0.0000000e+00 
0.0000000e+00 -1.7490074e-03 0.0000000e+00 