# vtk DataFile Version 4.0
vtk output
ASCII
DATASET UNSTRUCTURED_GRID
POINTS 212 float
0.0000000e+00 0.0000000e+00 0.0000000e+00 
0.0000000e+00 0.0000000e+00 2.5000000e-01 
0.0000000e+00 0.0000000e+00 5.0000000e-01 
0.0000000e+00 0.0000000e+00 7.5000000e-01 
0.0000000e+00 0.0000000e+00 1.0000000e+00 
0.0000000e+00 0.0000000e+00 1.2500000e+00 
0.0000000e+00 0.0000000e+00 1.5000000e+00 
0.0000000e+00 0.0000000e+00 1.7500000e+00 
0.0000000e+00 0.0000000e+00 2.0000000e+00 
0.0000000e+00 0.0000000e+00 2.2500000e+00 
0.0000000e+00 0.0000000e+00 2.5000000e+00 
0.0000000e+00 0.0000000e+00 2.7500000e+00 
0.0000000e+00 0.0000000e+00 3.0000000e+00 
0.0000000e+00 0.0000000e+00 3.2500000e+00 
0.0000000e+00 0.0000000e+00 3.5000000e+00 
0.0000000e+00 0.0000000e+00 3.7500000e+00 
0.0000000e+00 0.0000000e+00 4.0000000e+00 
0.0000000e+00 0.0000000e+00 4.2500000e+00 
0.0000000e+00 0.0000000e+00 4.5000000e+00 
0.0000000e+00 0.0000000e+00 4.7500000e+00 
0.0000000e+00 0.0000000e+00 5.0000000e+00 
0.0000000e+00 0.0000000e+00 5.2500000e+00 
0.0000000e+00 0.0000000e+00 5.5000000e+00 
0.0000000e+00 0.0000000e+00 5.7500000e+00 
0.0000000e+00 0.0000000e+00 6.0000000e+00 
0.0000000e+00 0.0000000e+00 6.2500000e+00 
0.0000000e+00 0.0000000e+00 6.5000000e+00 
0.0000000e+00 0.0000000e+00 6.7500000e+00 
0.0000000e+00 0.0000000e+00 7.0000000e+00 
0.0000000e+00 0.0000000e+00 7.2500000e+00 
0.0000000e+00 0.0000000e+00 7.5000000e+00 
0.0000000e+00 0.0000000e+00 7.7500000e+00 
0.0000000e+00 0.0000000e+00 8.0000000e+00 
0.0000000e+00 0.0000000e+00 8.2500000e+00 
0.0000000e+00 0.0000000e+00 8.5000000e+00 
0.0000000e+00 0.0000000e+00 8.7500000e+00 
0.0000000e+00 0.0000000e+00 9.0000000e+00 
0.0000000e+00 0.0000000e+00 9.2500000e+00 
0.0000000e+00 0.0000000e+00 9.5000000e+00 
0.0000000e+00 0.0000000e+00 9.7500000e+00 
0.0000000e+00 0.0000000e+00 1.0000000e+01 
0.0000000e+00 0.0000000e+00 1.0250000e+01 
0.0000000e+00 0.0000000e+00 1.0500000e+01 
0.0000000e+00 0.0000000e+00 1.0750000e+01 
0.0000000e+00 0.0000000e+00 1.1000000e+01 
0.0000000e+00 0.0000000e+00 1.1250000e+01 
0.0000000e+00 0.0000000e+00 1.1500000e+01 
0.0000000e+00 0.0000000e+00 1.1750000e+01 
0.0000000e+00 0.0000000e+00 1.2000000e+01 
0.0000000e+00 0.0000000e+00 1.2250000e+01 
0.0000000e+00 0.0000000e+00 1.2500000e+01 
0.0000000e+00 0.0000000e+00 1.2750000e+01 
0.0000000e+00 0.0000000e+00 1.3000000e+01 
0.0000000e+00 0.0000000e+00 1.3250000e+01 
0.0000000e+00 0.0000000e+00 1.3500000e+01 
0.0000000e+00 0.0000000e+00 1.3750000e+01 
0.0000000e+00 0.0000000e+00 1.4000000e+01 
0.0000000e+00 0.0000000e+00 1.4250000e+01 
0.0000000e+00 0.0000000e+00 1.4500000e+01 
0.0000000e+00 0.0000000e+00 1.4750000e+01 
0.0000000e+00 0.0000000e+00 1.5000000e+01 
0.0000000e+00 0.0000000e+00 1.5250000e+01 
0.0000000e+00 0.0000000e+00 1.5500000e+01 
0.0000000e+00 0.0000000e+00 1.5750000e+01 
0.0000000e+00 0.0000000e+00 1.6000000e+01 
0.0000000e+00 0.0000000e+00 1.6250000e+01 
0.0000000e+00 0.0000000e+00 1.6500000e+01 
0.0000000e+00 0.0000000e+00 1.6750000e+01 
0.0000000e+00 0.0000000e+00 1.7000000e+01 
0.0000000e+00 0.0000000e+00 1.7250000e+01 
0.0000000e+00 0.0000000e+00 1.7500000e+01 
0.0000000e+00 0.0000000e+00 1.7750000e+01 
0.0000000e+00 0.0000000e+00 1.8000000e+01 
6.0000000e+00 0.0000000e+00 0.0000000e+00 
6.0000000e+00 0.0000000e+00 2.5000000e-01 
6.0000000e+00 0.0000000e+00 5.0000000e-01 
6.0000000e+00 0.0000000e+00 7.5000000e-01 
6.0000000e+00 0.0000000e+00 1.0000000e+00 
6.0000000e+00 0.0000000e+00 1.2500000e+00 
6.0000000e+00 0.0000000e+00 1.5000000e+00 
6.0000000e+00 0.0000000e+00 1.7500000e+00 
6.0000000e+00 0.0000000e+00 2.0000000e+00 
6.0000000e+00 0.0000000e+00 2.2500000e+00 
6.0000000e+00 0.0000000e+00 2.5000000e+00 
6.0000000e+00 0.0000000e+00 2.7500000e+00 
6.0000000e+00 0.0000000e+00 3.0000000e+00 
6.0000000e+00 0.0000000e+00 3.2500000e+00 
6.0000000e+00 0.0000000e+00 3.5000000e+00 
6.0000000e+00 0.0000000e+00 3.7500000e+00 
6.0000000e+00 0.0000000e+00 4.0000000e+00 
6.0000000e+00 0.0000000e+00 4.2500000e+00 
6.0000000e+00 0.0000000e+00 4.5000000e+00 
6.0000000e+00 0.0000000e+00 4.7500000e+00 
6.0000000e+00 0.0000000e+00 5.0000000e+00 
6.0000000e+00 0.0000000e+00 5.2500000e+00 
6.0000000e+00 0.0000000e+00 5.5000000e+00 
6.0000000e+00 0.0000000e+00 5.7500000e+00 
6.0000000e+00 0.0000000e+00 6.0000000e+00 
6.0000000e+00 0.0000000e+00 6.2500000e+00 
6.0000000e+00 0.0000000e+00 6.5000000e+00 
6.0000000e+00 0.0000000e+00 6.7500000e+00 
6.0000000e+00 0.0000000e+00 7.0000000e+00 
6.0000000e+00 0.0000000e+00 7.2500000e+00 
6.0000000e+00 0.0000000e+00 7.5000000e+00 
6.0000000e+00 0.0000000e+00 7.7500000e+00 
6.0000000e+00 0.0000000e+00 8.0000000e+00 
6.0000000e+00 0.0000000e+00 8.2500000e+00 
6.0000000e+00 0.0000000e+00 8.5000000e+00 
6.0000000e+00 0.0000000e+00 8.7500000e+00 
6.0000000e+00 0.0000000e+00 9.0000000e+00 
6.0000000e+00 0.0000000e+00 9.2500000e+00 
6.0000000e+00 0.0000000e+00 9.5000000e+00 
6.0000000e+00 0.0000000e+00 9.7500000e+00 
6.0000000e+00 0.0000000e+00 1.0000000e+01 
6.0000000e+00 0.0000000e+00 1.0250000e+01 
6.0000000e+00 0.0000000e+00 1.0500000e+01 
6.0000000e+00 0.0000000e+00 1.0750000e+01 
6.0000000e+00 0.0000000e+00 1.1000000e+01 
6.0000000e+00 0.0000000e+00 1.1250000e+01 
6.0000000e+00 0.0000000e+00 1.1500000e+01 
6.0000000e+00 0.0000000e+00 1.1750000e+01 
6.0000000e+00 0.0000000e+00 1.2000000e+01 
6.0000000e+00 0.0000000e+00 1.2250000e+01 
6.0000000e+00 0.0000000e+00 1.2500000e+01 
6.0000000e+00 0.0000000e+00 1.2750000e+01 
6.0000000e+00 0.0000000e+00 1.3000000e+01 
6.0000000e+00 0.0000000e+00 1.3250000e+01 
6.0000000e+00 0.0000000e+00 1.3500000e+01 
6.0000000e+00 0.0000000e+00 1.3750000e+01 
6.0000000e+00 0.0000000e+00 1.4000000e+01 
6.0000000e+00 0.0000000e+00 1.4250000e+01 
6.0000000e+00 0.0000000e+00 1.4500000e+01 
6.0000000e+00 0.0000000e+00 1.4750000e+01 
6.0000000e+00 0.0000000e+00 1.5000000e+01 
6.0000000e+00 0.0000000e+00 1.5250000e+01 
6.0000000e+00 0.0000000e+00 1.5500000e+01 
6.0000000e+00 0.0000000e+00 1.5750000e+01 
6.0000000e+00 0.0000000e+00 1.6000000e+01 
6.0000000e+00 0.0000000e+00 1.6250000e+01 
6.0000000e+00 0.0000000e+00 1.6500000e+01 
6.0000000e+00 0.0000000e+00 1.6750000e+01 
6.0000000e+00 0.0000000e+00 1.7000000e+01 
6.0000000e+00 0.0000000e+00 1.7250000e+01 
6.0000000e+00 0.0000000e+00 1.7500000e+01 
6.0000000e+00 0.0000000e+00 1.7750000e+01 
6.0000000e+00 0.0000000e+00 1.8000000e+01 
5.0000000e-01 0.0000000e+00 3.0000000e+00 
1.0000000e+00 0.0000000e+00 3.0000000e+00 
1.5000000e+00 0.0000000e+00 3.0000000e+00 
2.0000000e+00 0.0000000e+00 3.0000000e+00 
2.5000000e+00 0.0000000e+00 3.0000000e+00 
3.0000000e+00 0.0000000e+00 3.0000000e+00 
3.5000000e+00 0.0000000e+00 3.0000000e+00 
4.0000000e+00 0.0000000e+00 3.0000000e+00 
4.5000000e+00 0.0000000e+00 3.0000000e+00 
5.0000000e+00 0.0000000e+00 3.0000000e+00 
5.5000000e+00 0.0000000e+00 3.0000000e+00 
5.0000000e-01 0.0000000e+00 6.0000000e+00 
1.0000000e+00 0.0000000e+00 6.0000000e+00 
1.5000000e+00 0.0000000e+00 6.0000000e+00 
2.0000000e+00 0.0000000e+00 6.0000000e+00 
2.5000000e+00 0.0000000e+00 6.0000000e+00 
3.0000000e+00 0.0000000e+00 6.0000000e+00 
3.5000000e+00 0.0000000e+00 6.0000000e+00 
4.0000000e+00 0.0000000e+00 6.0000000e+00 
4.5000000e+00 0.0000000e+00 6.0000000e+00 
5.0000000e+00 0.0000000e+00 6.0000000e+00 
5.5000000e+00 0.0000000e+00 6.0000000e+00 
5.0000000e-01 0.0000000e+00 9.0000000e+00 
1.0000000e+00 0.0000000e+00 9.0000000e+00 
1.5000000e+00 0.0000000e+00 9.0000000e+00 
2.0000000e+00 0.0000000e+00 9.0000000e+00 
2.5000000e+00 0.0000000e+00 9.0000000e+00 
3.0000000e+00 0.0000000e+00 9.0000000e+00 
3.5000000e+00 0.0000000e+00 9.0000000e+00 
4.0000000e+00 0.0000000e+00 9.0000000e+00 
4.5000000e+00 0.0000000e+00 9.0000000e+00 
5.0000000e+00 0.0000000e+00 9.0000000e+00 
5.5000000e+00 0.0000000e+00 9.0000000e+00 
5.0000000e-01 0.0000000e+00 1.2000000e+01 
1.0000000e+00 0.0000000e+00 1.2000000e+01 
1.5000000e+00 0.0000000e+00 1.2000000e+01 
2.0000000e+00 0.0000000e+00 1.2000000e+01 
2.5000000e+00 0.0000000e+00 1.2000000e+01 
3.0000000e+00 0.0000000e+00 1.2000000e+01 
3.5000000e+00 0.0000000e+00 1.2000000e+01 
4.0000000e+00 0.0000000e+00 1.2000000e+01 
4.5000000e+00 0.0000000e+00 1.2000000e+01 
5.0000000e+00 0.0000000e+00 1.2000000e+01 
5.5000000e+00 0.0000000e+00 1.2000000e+01 
5.0000000e-01 0.0000000e+00 1.5000000e+01 
1.0000000e+00 0.0000000e+00 1.5000000e+01 
1.5000000e+00 0.0000000e+00 1.5000000e+01 
2.0000000e+00 0.0000000e+00 1.5000000e+01 
2.5000000e+00 0.0000000e+00 1.5000000e+01 
3.0000000e+00 0.0000000e+00 1.5000000e+01 
3.5000000e+00 0.0000000e+00 1.5000000e+01 
4.0000000e+00 0.0000000e+00 1.5000000e+01 
4.5000000e+00 0.0000000e+00 1.5000000e+01 
5.0000000e+00 0.0000000e+00 1.5000000e+01 
5.5000000e+00 0.0000000e+00 1.5000000e+01 
5.0000000e-01 0.0000000e+00 1.8000000e+01 
1.0000000e+00 0.0000000e+00 1.8000000e+01 
1.5000000e+00 0.0000000e+00 1.8000000e+01 
2.0000000e+00 0.0000000e+00 1.8000000e+01 
2.5000000e+00 0.0000000e+00 1.8000000e+01 
3.0000000e+00 0.0000000e+00 1.8000000e+01 
3.5000000e+00 0.0000000e+00 1.8000000e+01 
4.0000000e+00 0.0000000e+00 1.8000000e+01 
4.5000000e+00 0.0000000e+00 1.8000000e+01 
5.0000000e+00 0.0000000e+00 1.8000000e+01 
5.5000000e+00 0.0000000e+00 1.8000000e+01 

CELLS 216 648
2 0 1
2 1 2
2 2 3
2 3 4
2 4 5
2 5 6
2 6 7
2 7 8
2 8 9
2 9 10
2 10 11
2 11 12
2 12 13
2 13 14
2 14 15
2 15 16
2 16 17
2 17 18
2 18 19
2 19 20
2 20 21
2 21 22
2 22 23
2 23 24
2 24 25
2 25 26
2 26 27
2 27 28
2 28 29
2 29 30
2 30 31
2 31 32
2 32 33
2 33 34
2 34 35
2 35 36
2 36 37
2 37 38
2 38 39
2 39 40
2 40 41
2 41 42
2 42 43
2 43 44
2 44 45
2 45 46
2 46 47
2 47 48
2 48 49
2 49 50
2 50 51
2 51 52
2 52 53
2 53 54
2 54 55
2 55 56
2 56 57
2 57 58
2 58 59
2 59 60
2 60 61
2 61 62
2 62 63
2 63 64
2 64 65
2 65 66
2 66 67
2 67 68
2 68 69
2 69 70
2 70 71
2 71 72
2 73 74
2 74 75
2 75 76
2 76 77
2 77 78
2 78 79
2 79 80
2 80 81
2 81 82
2 82 83
2 83 84
2 84 85
2 85 86
2 86 87
2 87 88
2 88 89
2 89 90
2 90 91
2 91 92
2 92 93
2 93 94
2 94 95
2 95 96
2 96 97
2 97 98
2 98 99
2 99 100
2 100 101
2 101 102
2 102 103
2 103 104
2 104 105
2 105 106
2 106 107
2 107 108
2 108 109
2 109 110
2 110 111
2 111 112
2 112 113
2 113 114
2 114 115
2 115 116
2 116 117
2 117 118
2 118 119
2 119 120
2 120 121
2 121 122
2 122 123
2 123 124
2 124 125
2 125 126
2 126 127
2 127 128
2 128 129
2 129 130
2 130 131
2 131 132
2 132 133
2 133 134
2 134 135
2 135 136
2 136 137
2 137 138
2 138 139
2 139 140
2 140 141
2 141 142
2 142 143
2 143 144
2 144 145
2 12 146
2 146 147
2 147 148
2 148 149
2 149 150
2 150 151
2 151 152
2 152 153
2 153 154
2 154 155
2 155 156
2 156 85
2 24 157
2 157 158
2 158 159
2 159 160
2 160 161
2 161 162
2 162 163
2 163 164
2 164 165
2 165 166
2 166 167
2 167 97
2 36 168
2 168 169
2 169 170
2 170 171
2 171 172
2 172 173
2 173 174
2 174 175
2 175 176
2 176 177
2 177 178
2 178 109
2 48 179
2 179 180
2 180 181
2 181 182
2 182 183
2 183 184
2 184 185
2 185 186
2 186 187
2 187 188
2 188 189
2 189 121
2 60 190
2 190 191
2 191 192
2 192 193
2 193 194
2 194 195
2 195 196
2 196 197
2 197 198
2 198 199
2 199 200
2 200 133
2 72 201
2 201 202
2 202 203
2 203 204
2 204 205
2 205 206
2 206 207
2 207 208
2 208 209
2 209 210
2 210 211
2 211 145

CELL_TYPES 216
3
3
3
3
3
3
3
3
3
3
3
3
3
3
3
3
3
3
3
3
3
3
3
3
3
3
3
3
3
3
3
3
3
3
3
3
3
3
3
3
3
3
3
3
3
3
3
3
3
3
3
3
3
3
3
3
3
3
3
3
3
3
3
3
3
3
3
3
3
3
3
3
3
3
3
3
3
3
3
3
3
3
3
3
3
3
3
3
3
3
3
3
3
3
3
3
3
3
3
3
3
3
3
3
3
3
3
3
3
3
3
3
3
3
3
3
3
3
3
3
3
3
3
3
3
3
3
3
3
3
3
3
3
3
3
3
3
3
3
3
3
3
3
3
3
3
3
3
3
3
3
3
3
3
3
3
3
3
3
3
3
3
3
3
3
3
3
3
3
3
3
3
3
3
3
3
3
3
3
3
3
3
3
3
3
3
3
3
3
3
3
3
3
3
3
3
3
3
3
3
3
3
3
3
3
3
3
3
3
3
3
3
3
3
3
3
POINT_DATA 212
FIELD FieldData 7
DISPLACEMENT 3 212  float
0.0000000e+00 0.0000000e+00 0.0000000e+00 
-1.4230213e-04 0.0000000e+00 -5.8158332e-07 
-2.7863448e-04 0.0000000e+00 -1.1631666e-06 
-4.0302722e-04 0.0000000e+00 -1.7447500e-06 
-5.0951057e-04 0.0000000e+00 -2.3263333e-06 
-5.9211475e-04 0.0000000e+00 -2.9079165e-06 
-6.4486993e-04 0.0000000e+00 -3.4894999e-06 
-6.6180638e-04 0.0000000e+00 -4.0710834e-06 
-6.3695421e-04 0.0000000e+00 -4.6526666e-06 
-5.6434370e-04 0.0000000e+00 -5.2342498e-06 
-4.3800499e-04 0.0000000e+00 -5.8158330e-06 
-2.5196836e-04 0.0000000e+00 -6.3974162e-06 
-2.6394375e-07 0.0000000e+00 -6.9789999e-06 
2.2624161e-04 0.0000000e+00 -7.4636523e-06 
3.4584643e-04 0.0000000e+00 -7.9483052e-06 
3.7826737e-04 0.0000000e+00 -8.4329577e-06 
3.4322130e-04 0.0000000e+00 -8.9176110e-06 
2.6042506e-04 0.0000000e+00 -9.4022635e-06 
1.4959558e-04 0.0000000e+00 -9.8869159e-06 
3.0449677e-05 0.0000000e+00 -1.0371569e-05 
-7.7295772e-05 0.0000000e+00 -1.0856222e-05 
-1.5392389e-04 0.0000000e+00 -1.1340874e-05 
-1.7971783e-04 0.0000000e+00 -1.1825528e-05 
-1.3496070e-04 0.0000000e+00 -1.2310180e-05 
6.4338323e-08 0.0000000e+00 -1.2794832e-05 
1.4122989e-04 0.0000000e+00 -1.3182555e-05 
2.0217457e-04 0.0000000e+00 -1.3570278e-05 
1.9926429e-04 0.0000000e+00 -1.3958000e-05 
1.4886499e-04 0.0000000e+00 -1.4345722e-05 
6.7342524e-05 0.0000000e+00 -1.4733444e-05 
-2.8937147e-05 0.0000000e+00 -1.5121166e-05 
-1.2360813e-04 0.0000000e+00 -1.5508887e-05 
-2.0030451e-04 0.0000000e+00 -1.5896610e-05 
-2.4266036e-04 0.0000000e+00 -1.6284333e-05 
-2.3430979e-04 0.0000000e+00 -1.6672055e-05 
-1.5888688e-04 0.0000000e+00 -1.7059778e-05 
-2.5712954e-08 0.0000000e+00 -1.7447499e-05 
1.5638139e-04 0.0000000e+00 -1.7738292e-05 
2.2533491e-04 0.0000000e+00 -1.8029083e-05 
2.2453997e-04 0.0000000e+00 -1.8319874e-05 
1.7170170e-04 0.0000000e+00 -1.8610666e-05 
8.4525251e-05 0.0000000e+00 -1.8901457e-05 
-1.9284274e-05 0.0000000e+00 -1.9192250e-05 
-1.2202173e-04 0.0000000e+00 -1.9483041e-05 
-2.0598200e-04 0.0000000e+00 -1.9773832e-05 
-2.5345993e-04 0.0000000e+00 -2.0064625e-05 
-2.4675042e-04 0.0000000e+00 -2.0355415e-05 
-1.6814834e-04 0.0000000e+00 -2.0646208e-05 
5.1453654e-08 0.0000000e+00 -2.0936999e-05 
1.7316204e-04 0.0000000e+00 -2.1130860e-05 
2.6470990e-04 0.0000000e+00 -2.1324720e-05 
2.8972028e-04 0.0000000e+00 -2.1518583e-05 
2.6321845e-04 0.0000000e+00 -2.1712443e-05 
2.0022964e-04 0.0000000e+00 -2.1906304e-05 
1.1577912e-04 0.0000000e+00 -2.2100166e-05 
2.4892131e-05 0.0000000e+00 -2.2294027e-05 
-5.7406069e-05 0.0000000e+00 -2.2487888e-05 
-1.1609023e-04 0.0000000e+00 -2.2681748e-05 
-1.3613510e-04 0.0000000e+00 -2.2875611e-05 
-1.0251543e-04 0.0000000e+00 -2.3069471e-05 
-2.0597035e-07 0.0000000e+00 -2.3263332e-05 
8.2442835e-05 0.0000000e+00 -2.3360262e-05 
6.4232285e-05 0.0000000e+00 -2.3457193e-05 
-2.9084757e-05 0.0000000e+00 -2.3554125e-05 
-1.7175541e-04 0.0000000e+00 -2.3651055e-05 
-3.3802679e-04 0.0000000e+00 -2.3747985e-05 
-5.0214602e-04 0.0000000e+00 -2.3844916e-05 
-6.3836027e-04 0.0000000e+00 -2.3941846e-05 
-7.2091661e-04 0.0000000e+00 -2.4038776e-05 
-7.2406215e-04 0.0000000e+00 -2.4135707e-05 
-6.2204408e-04 0.0000000e+00 -2.4232637e-05 
-3.8910951e-04 0.0000000e+00 -2.4329569e-05 
4.9445521e-07 0.0000000e+00 -2.4426499e-05 
0.0000000e+00 0.0000000e+00 0.0000000e+00 
1.4230213e-04 0.0000000e+00 -5.8158332e-07 
2.7863448e-04 0.0000000e+00 -1.1631666e-06 
4.0302722e-04 0.0000000e+00 -1.7447500e-06 
5.0951057e-04 0.0000000e+00 -2.3263333e-06 
5.9211475e-04 0.0000000e+00 -2.9079165e-06 
6.4486993e-04 0.0000000e+00 -3.4894999e-06 
6.6180638e-04 0.0000000e+00 -4.0710834e-06 
6.3695421e-04 0.0000000e+00 -4.6526666e-06 
5.6434370e-04 0.0000000e+00 -5.2342498e-06 
4.3800499e-04 0.0000000e+00 -5.8158330e-06 
2.5196836e-04 0.0000000e+00 -6.3974162e-06 
2.6394375e-07 0.0000000e+00 -6.9789999e-06 
-2.2624161e-04 0.0000000e+00 -7.4636523e-06 
-3.4584643e-04 0.0000000e+00 -7.9483052e-06 
-3.7826737e-04 0.0000000e+00 -8.4329577e-06 
-3.4322130e-04 0.0000000e+00 -8.9176110e-06 
-2.6042506e-04 0.0000000e+00 -9.4022635e-06 
-1.4959558e-04 0.0000000e+00 -9.8869159e-06 
-3.0449677e-05 0.0000000e+00 -1.0371569e-05 
7.7295772e-05 0.0000000e+00 -1.0856222e-05 
1.5392389e-04 0.0000000e+00 -1.1340874e-05 
1.7971783e-04 0.0000000e+00 -1.1825528e-05 
1.3496070e-04 0.0000000e+00 -1.2310180e-05 
-6.4338309e-08 0.0000000e+00 -1.2794832e-05 
-1.4122989e-04 0.0000000e+00 -1.3182555e-05 
-2.0217457e-04 0.0000000e+00 -1.3570278e-05 
-1.9926429e-04 0.0000000e+00 -1.3958000e-05 
-1.4886499e-04 0.0000000e+00 -1.4345722e-05 
-6.7342524e-05 0.0000000e+00 -1.4733444e-05 
2.8937147e-05 0.0000000e+00 -1.5121166e-05 
1.2360813e-04 0.0000000e+00 -1.5508887e-05 
2.0030451e-04 0.0000000e+00 -1.5896610e-05 
2.4266036e-04 0.0000000e+00 -1.6284333e-05 
2.3430979e-04 0.0000000e+00 -1.6672055e-05 
1.5888688e-04 0.0000000e+00 -1.7059778e-05 
2.5712968e-08 0.0000000e+00 -1.7447499e-05 
-1.5638139e-04 0.0000000e+00 -1.7738292e-05 
-2.2533491e-04 0.0000000e+00 -1.8029083e-05 
-2.2453997e-04 0.0000000e+00 -1.8319874e-05 
-1.7170170e-04 0.0000000e+00 -1.8610666e-05 
-8.4525251e-05 0.0000000e+00 -1.8901457e-05 
1.9284274e-05 0.0000000e+00 -1.9192250e-05 
1.2202173e-04 0.0000000e+00 -1.9483041e-05 
2.0598200e-04 0.0000000e+00 -1.9773832e-05 
2.5345993e-04 0.0000000e+00 -2.0064625e-05 
2.4675042e-04 0.0000000e+00 -2.0355415e-05 
1.6814834e-04 0.0000000e+00 -2.0646208e-05 
-5.1453636e-08 0.0000000e+00 -2.0936999e-05 
-1.7316204e-04 0.0000000e+00 -2.1130860e-05 
-2.6470990e-04 0.0000000e+00 -2.1324720e-05 
-2.8972028e-04 0.0000000e+00 -2.1518583e-05 
-2.6321845e-04 0.0000000e+00 -2.1712443e-05 
-2.0022964e-04 0.0000000e+00 -2.1906304e-05 
-1.1577912e-04 0.0000000e+00 -2.2100166e-05 
-2.4892131e-05 0.0000000e+00 -2.2294027e-05 
5.7406069e-05 0.0000000e+00 -2.2487888e-05 
1.1609023e-04 0.0000000e+00 -2.2681748e-05 
1.3613510e-04 0.0000000e+00 -2.2875611e-05 
1.0251543e-04 0.0000000e+00 -2.3069471e-05 
2.0597038e-07 0.0000000e+00 -2.3263332e-05 
-8.2442835e-05 0.0000000e+00 -2.3360262e-05 
-6.4232285e-05 0.0000000e+00 -2.3457193e-05 
2.9084757e-05 0.0000000e+00 -2.3554125e-05 
1.7175541e-04 0.0000000e+00 -2.3651055e-05 
3.3802679e-04 0.0000000e+00 -2.3747985e-05 
5.0214602e-04 0.0000000e+00 -2.3844916e-05 
6.3836027e-04 0.0000000e+00 -2.3941846e-05 
7.2091661e-04 0.0000000e+00 -2.4038776e-05 
7.2406215e-04 0.0000000e+00 -2.4135707e-05 
6.2204408e-04 0.0000000e+00 -2.4232637e-05 
3.8910951e-04 0.0000000e+00 -2.4329569e-05 
-4.9445521e-07 0.0000000e+00 -2.4426499e-05 
-2.1995312e-07 0.0000000e+00 -9.0819731e-04 
-1.7596250e-07 0.0000000e+00 -2.2047723e-03 
-1.3197187e-07 0.0000000e+00 -3.5611757e-03 
-8.7981249e-08 0.0000000e+00 -4.7164401e-03 
-4.3990621e-08 0.0000000e+00 -5.4841605e-03 
3.7722498e-15 0.0000000e+00 -5.7524941e-03 
4.3990628e-08 0.0000000e+00 -5.4841605e-03 
8.7981256e-08 0.0000000e+00 -4.7164401e-03 
1.3197187e-07 0.0000000e+00 -3.5611757e-03 
1.7596250e-07 0.0000000e+00 -2.2047723e-03 
2.1995314e-07 0.0000000e+00 -9.0819731e-04 
5.3615267e-08 0.0000000e+00 -7.3105207e-04 
4.2892214e-08 0.0000000e+00 -1.8779319e-03 
3.2169162e-08 0.0000000e+00 -3.1179052e-03 
2.1446111e-08 0.0000000e+00 -4.1900054e-03 
1.0723058e-08 0.0000000e+00 -4.9078274e-03 
5.9632513e-15 0.0000000e+00 -5.1595285e-03 
-1.0723046e-08 0.0000000e+00 -4.9078274e-03 
-2.1446098e-08 0.0000000e+00 -4.1900054e-03 
-3.2169151e-08 0.0000000e+00 -3.1179052e-03 
-4.2892204e-08 0.0000000e+00 -1.8779319e-03 
-5.3615256e-08 0.0000000e+00 -7.3105207e-04 
-2.1427459e-08 0.0000000e+00 -7.7109598e-04 
-1.7141966e-08 0.0000000e+00 -1.9469322e-03 
-1.2856472e-08 0.0000000e+00 -3.2094272e-03 
-8.5709795e-09 0.0000000e+00 -4.2976146e-03 
-4.2854857e-09 0.0000000e+00 -5.0250888e-03 
7.5566249e-15 0.0000000e+00 -5.2800071e-03 
4.2855008e-09 0.0000000e+00 -5.0250888e-03 
8.5709946e-09 0.0000000e+00 -4.2976146e-03 
1.2856487e-08 0.0000000e+00 -3.2094272e-03 
1.7141980e-08 0.0000000e+00 -1.9469322e-03 
2.1427475e-08 0.0000000e+00 -7.7109598e-04 
4.2878046e-08 0.0000000e+00 -7.9817092e-04 
3.4302438e-08 0.0000000e+00 -1.9933044e-03 
2.5726832e-08 0.0000000e+00 -3.2708081e-03 
1.7151224e-08 0.0000000e+00 -4.3697162e-03 
8.5756167e-09 0.0000000e+00 -5.1036226e-03 
9.0649635e-15 0.0000000e+00 -5.3606853e-03 
-8.5755989e-09 0.0000000e+00 -5.1036226e-03 
-1.7151207e-08 0.0000000e+00 -4.3697162e-03 
-2.5726813e-08 0.0000000e+00 -3.2708081e-03 
-3.4302420e-08 0.0000000e+00 -1.9933044e-03 
-4.2878028e-08 0.0000000e+00 -7.9817092e-04 
-1.7164196e-07 0.0000000e+00 -6.5889501e-04 
-1.3731356e-07 0.0000000e+00 -1.7381719e-03 
-1.0298517e-07 0.0000000e+00 -2.9255655e-03 
-6.8656774e-08 0.0000000e+00 -3.9601084e-03 
-3.4328384e-08 0.0000000e+00 -4.6553966e-03 
1.0596175e-14 0.0000000e+00 -4.8995861e-03 
3.4328405e-08 0.0000000e+00 -4.6553966e-03 
6.8656796e-08 0.0000000e+00 -3.9601084e-03 
1.0298519e-07 0.0000000e+00 -2.9255655e-03 
1.3731359e-07 0.0000000e+00 -1.7381719e-03 
1.7164199e-07 0.0000000e+00 -6.5889501e-04 
4.1204601e-07 0.0000000e+00 -1.2739685e-03 
3.2963680e-07 0.0000000e+00 -2.8555358e-03 
2.4722760e-07 0.0000000e+00 -4.4335993e-03 
1.6481842e-07 0.0000000e+00 -5.7471925e-03 
8.2409208e-08 0.0000000e+00 -6.6099106e-03 
1.1270005e-14 0.0000000e+00 -6.9099101e-03 
-8.2409187e-08 0.0000000e+00 -6.6099106e-03 
-1.6481839e-07 0.0000000e+00 -5.7471925e-03 
-2.4722760e-07 0.0000000e+00 -4.4335993e-03 
-3.2963678e-07 0.0000000e+00 -2.8555358e-03 
-4.1204598e-07 0.0000000e+00 -1.2739685e-03 
ROTATION 3 212  float
0.0000000e+00 -5.7318842e-04 0.0000000e+00 
0.0000000e+00 -5.6124880e-04 0.0000000e+00 
0.0000000e+00 -5.2543002e-04 0.0000000e+00 
0.0000000e+00 -4.6573207e-04 0.0000000e+00 
0.0000000e+00 -3.8215492e-04 0.0000000e+00 
0.0000000e+00 -2.7469860e-04 0.0000000e+00 
0.0000000e+00 -1.4336308e-04 0.0000000e+00 
0.0000000e+00 1.1851611e-05 0.0000000e+00 
0.0000000e+00 1.9094549e-04 0.0000000e+00 
0.0000000e+00 3.9391857e-04 0.0000000e+00 
0.0000000e+00 6.2077079e-04 0.0000000e+00 
0.0000000e+00 8.7150227e-04 0.0000000e+00 
0.0000000e+00 1.1461129e-03 0.0000000e+00 
0.0000000e+00 6.7907618e-04 0.0000000e+00 
0.0000000e+00 2.9090693e-04 0.0000000e+00 
0.0000000e+00 -1.8394849e-05 0.0000000e+00 
0.0000000e+00 -2.4882916e-04 0.0000000e+00 
0.0000000e+00 -4.0039601e-04 0.0000000e+00 
0.0000000e+00 -4.7309537e-04 0.0000000e+00 
0.0000000e+00 -4.6692727e-04 0.0000000e+00 
0.0000000e+00 -3.8189170e-04 0.0000000e+00 
0.0000000e+00 -2.1798869e-04 0.0000000e+00 
0.0000000e+00 2.4781797e-05 0.0000000e+00 
0.0000000e+00 3.4641975e-04 0.0000000e+00 
0.0000000e+00 7.4692519e-04 0.0000000e+00 
0.0000000e+00 3.9330986e-04 0.0000000e+00 
0.0000000e+00 1.0515821e-04 0.0000000e+00 
0.0000000e+00 -1.1752980e-04 0.0000000e+00 
0.0000000e+00 -2.7475416e-04 0.0000000e+00 
0.0000000e+00 -3.6651487e-04 0.0000000e+00 
0.0000000e+00 -3.9281193e-04 0.0000000e+00 
0.0000000e+00 -3.5364533e-04 0.0000000e+00 
0.0000000e+00 -2.4901508e-04 0.0000000e+00 
0.0000000e+00 -7.8921184e-05 0.0000000e+00 
0.0000000e+00 1.5663636e-04 0.0000000e+00 
0.0000000e+00 4.5765756e-04 0.0000000e+00 
0.0000000e+00 8.2414242e-04 0.0000000e+00 
0.0000000e+00 4.3891781e-04 0.0000000e+00 
0.0000000e+00 1.2451374e-04 0.0000000e+00 
0.0000000e+00 -1.1906982e-04 0.0000000e+00 
0.0000000e+00 -2.9183287e-04 0.0000000e+00 
0.0000000e+00 -3.9377538e-04 0.0000000e+00 
0.0000000e+00 -4.2489739e-04 0.0000000e+00 
0.0000000e+00 -3.8519886e-04 0.0000000e+00 
0.0000000e+00 -2.7467983e-04 0.0000000e+00 
0.0000000e+00 -9.3340292e-05 0.0000000e+00 
0.0000000e+00 1.5881978e-04 0.0000000e+00 
0.0000000e+00 4.8180035e-04 0.0000000e+00 
0.0000000e+00 8.7560143e-04 0.0000000e+00 
0.0000000e+00 5.1930005e-04 0.0000000e+00 
0.0000000e+00 2.2309965e-04 0.0000000e+00 
0.0000000e+00 -1.2999734e-05 0.0000000e+00 
0.0000000e+00 -1.8899812e-04 0.0000000e+00 
0.0000000e+00 -3.0489548e-04 0.0000000e+00 
0.0000000e+00 -3.6069186e-04 0.0000000e+00 
0.0000000e+00 -3.5638720e-04 0.0000000e+00 
0.0000000e+00 -2.9198156e-04 0.0000000e+00 
0.0000000e+00 -1.6747491e-04 0.0000000e+00 
0.0000000e+00 1.7132761e-05 0.0000000e+00 
0.0000000e+00 2.6184143e-04 0.0000000e+00 
0.0000000e+00 5.6665111e-04 0.0000000e+00 
0.0000000e+00 1.1170792e-04 0.0000000e+00 
0.0000000e+00 -2.4022377e-04 0.0000000e+00 
0.0000000e+00 -4.8914395e-04 0.0000000e+00 
0.0000000e+00 -6.3505262e-04 0.0000000e+00 
0.0000000e+00 -6.7794987e-04 0.0000000e+00 
0.0000000e+00 -6.1783555e-04 0.0000000e+00 
0.0000000e+00 -4.5470972e-04 0.0000000e+00 
0.0000000e+00 -1.8857241e-04 0.0000000e+00 
0.0000000e+00 1.8057640e-04 0.0000000e+00 
0.0000000e+00 6.5273669e-04 0.0000000e+00 
0.0000000e+00 1.2279085e-03 0.0000000e+00 
0.0000000e+00 1.9060918e-03 0.0000000e+00 
0.0000000e+00 5.7318842e-04 0.0000000e+00 
0.0000000e+00 5.6124880e-04 0.0000000e+00 
0.0000000e+00 5.2543002e-04 0.0000000e+00 
0.0000000e+00 4.6573207e-04 0.0000000e+00 
0.0000000e+00 3.8215492e-04 0.0000000e+00 
0.0000000e+00 2.7469860e-04 0.0000000e+00 
0.0000000e+00 1.4336308e-04 0.0000000e+00 
0.0000000e+00 -1.1851611e-05 0.0000000e+00 
0.0000000e+00 -1.9094549e-04 0.0000000e+00 
0.0000000e+00 -3.9391857e-04 0.0000000e+00 
0.0000000e+00 -6.2077079e-04 0.0000000e+00 
0.0000000e+00 -8.7150227e-04 0.0000000e+00 
0.0000000e+00 -1.1461129e-03 0.0000000e+00 
0.0000000e+00 -6.7907618e-04 0.0000000e+00 
0.0000000e+00 -2.9090693e-04 0.0000000e+00 
0.0000000e+00 1.8394849e-05 0.0000000e+00 
0.0000000e+00 2.4882916e-04 0.0000000e+00 
0.0000000e+00 4.0039601e-04 0.0000000e+00 
0.0000000e+00 4.7309537e-04 0.0000000e+00 
0.0000000e+00 4.6692727e-04 0.0000000e+00 
0.0000000e+00 3.8189170e-04 0.0000000e+00 
0.0000000e+00 2.1798869e-04 0.0000000e+00 
0.0000000e+00 -2.4781797e-05 0.0000000e+00 
0.0000000e+00 -3.4641975e-04 0.0000000e+00 
0.0000000e+00 -7.4692519e-04 0.0000000e+00 
0.0000000e+00 -3.9330986e-04 0.0000000e+00 
0.0000000e+00 -1.0515821e-04 0.0000000e+00 
0.0000000e+00 1.1752980e-04 0.0000000e+00 
0.0000000e+00 2.7475416e-04 0.0000000e+00 
0.0000000e+00 3.6651487e-04 0.0000000e+00 
0.0000000e+00 3.9281193e-04 0.0000000e+00 
0.0000000e+00 3.5364533e-04 0.0000000e+00 
0.0000000e+00 2.4901508e-04 0.0000000e+00 
0.0000000e+00 7.8921184e-05 0.0000000e+00 
0.0000000e+00 -1.5663636e-04 0.0000000e+00 
0.0000000e+00 -4.5765756e-04 0.0000000e+00 
0.0000000e+00 -8.2414242e-04 0.0000000e+00 
0.0000000e+00 -4.3891781e-04 0.0000000e+00 
0.0000000e+00 -1.2451374e-04 0.0000000e+00 
0.0000000e+00 1.1906982e-04 0.0000000e+00 
0.0000000e+00 2.9183287e-04 0.0000000e+00 
0.0000000e+00 3.9377538e-04 0.0000000e+00 
0.0000000e+00 4.2489739e-04 0.0000000e+00 
0.0000000e+00 3.8519886e-04 0.0000000e+00 
0.0000000e+00 2.7467983e-04 0.0000000e+00 
0.0000000e+00 9.3340292e-05 0.0000000e+00 
0.0000000e+00 -1.5881978e-04 0.0000000e+00 
0.0000000e+00 -4.8180035e-04 0.0000000e+00 
0.0000000e+00 -8.7560143e-04 0.0000000e+00 
0.0000000e+00 -5.1930005e-04 0.0000000e+00 
0.0000000e+00 -2.2309965e-04 0.0000000e+00 
0.0000000e+00 1.2999734e-05 0.0000000e+00 
0.0000000e+00 1.8899812e-04 0.0000000e+00 
0.0000000e+00 3.0489548e-04 0.0000000e+00 
0.0000000e+00 3.6069186e-04 0.0000000e+00 
0.0000000e+00 3.5638720e-04 0.0000000e+00 
0.0000000e+00 2.9198156e-04 0.0000000e+00 
0.0000000e+00 1.6747491e-04 0.0000000e+00 
0.0000000e+00 -1.7132761e-05 0.0000000e+00 
0.0000000e+00 -2.6184143e-04 0.0000000e+00 
0.0000000e+00 -5.6665111e-04 0.0000000e+00 
0.0000000e+00 -1.1170792e-04 0.0000000e+00 
0.0000000e+00 2.4022377e-04 0.0000000e+00 
0.0000000e+00 4.8914395e-04 0.0000000e+00 
0.0000000e+00 6.3505262e-04 0.0000000e+00 
0.0000000e+00 6.7794987e-04 0.0000000e+00 
0.0000000e+00 6.1783555e-04 0.0000000e+00 
0.0000000e+00 4.5470972e-04 0.0000000e+00 
0.0000000e+00 1.8857241e-04 0.0000000e+00 
0.0000000e+00 -1.8057640e-04 0.0000000e+00 
0.0000000e+00 -6.5273669e-04 0.0000000e+00 
0.0000000e+00 -1.2279085e-03 0.0000000e+00 
0.0000000e+00 -1.9060918e-03 0.0000000e+00 
0.0000000e+00 2.3220633e-03 0.0000000e+00 
0.0000000e+00 2.7523942e-03 0.0000000e+00 
0.0000000e+00 2.5862295e-03 0.0000000e+00 
0.0000000e+00 1.9726928e-03 0.0000000e+00 
0.0000000e+00 1.0609084e-03 0.0000000e+00 
0.0000000e+00 -3.2741810e-16 0.0000000e+00 
0.0000000e+00 -1.0609084e-03 0.0000000e+00 
0.0000000e+00 -1.9726928e-03 0.0000000e+00 
0.0000000e+00 -2.5862295e-03 0.0000000e+00 
0.0000000e+00 -2.7523942e-03 0.0000000e+00 
0.0000000e+00 -2.3220633e-03 0.0000000e+00 
0.0000000e+00 1.9894070e-03 0.0000000e+00 
0.0000000e+00 2.4862692e-03 0.0000000e+00 
0.0000000e+00 2.3866356e-03 0.0000000e+00 
0.0000000e+00 1.8396303e-03 0.0000000e+00 
0.0000000e+00 9.9437707e-04 0.0000000e+00 
0.0000000e+00 -2.4556356e-16 0.0000000e+00 
0.0000000e+00 -9.9437707e-04 0.0000000e+00 
0.0000000e+00 -1.8396303e-03 0.0000000e+00 
0.0000000e+00 -2.3866356e-03 0.0000000e+00 
0.0000000e+00 -2.4862692e-03 0.0000000e+00 
0.0000000e+00 -1.9894070e-03 0.0000000e+00 
0.0000000e+00 2.0537546e-03 0.0000000e+00 
0.0000000e+00 2.5377471e-03 0.0000000e+00 
0.0000000e+00 2.4252441e-03 0.0000000e+00 
0.0000000e+00 1.8653694e-03 0.0000000e+00 
0.0000000e+00 1.0072467e-03 0.0000000e+00 
0.0000000e+00 -2.3343699e-16 0.0000000e+00 
0.0000000e+00 -1.0072467e-03 0.0000000e+00 
0.0000000e+00 -1.8653694e-03 0.0000000e+00 
0.0000000e+00 -2.4252441e-03 0.0000000e+00 
0.0000000e+00 -2.5377471e-03 0.0000000e+00 
0.0000000e+00 -2.0537546e-03 0.0000000e+00 
0.0000000e+00 2.0966372e-03 0.0000000e+00 
0.0000000e+00 2.5720533e-03 0.0000000e+00 
0.0000000e+00 2.4509737e-03 0.0000000e+00 
0.0000000e+00 1.8825224e-03 0.0000000e+00 
0.0000000e+00 1.0158231e-03 0.0000000e+00 
0.0000000e+00 -1.8189894e-16 0.0000000e+00 
0.0000000e+00 -1.0158231e-03 0.0000000e+00 
0.0000000e+00 -1.8825224e-03 0.0000000e+00 
0.0000000e+00 -2.4509737e-03 0.0000000e+00 
0.0000000e+00 -2.5720533e-03 0.0000000e+00 
0.0000000e+00 -2.0966372e-03 0.0000000e+00 
0.0000000e+00 1.8391786e-03 0.0000000e+00 
0.0000000e+00 2.3660865e-03 0.0000000e+00 
0.0000000e+00 2.2964985e-03 0.0000000e+00 
0.0000000e+00 1.7795389e-03 0.0000000e+00 
0.0000000e+00 9.6433144e-04 0.0000000e+00 
0.0000000e+00 -1.9705719e-16 0.0000000e+00 
0.0000000e+00 -9.6433144e-04 0.0000000e+00 
0.0000000e+00 -1.7795389e-03 0.0000000e+00 
0.0000000e+00 -2.2964985e-03 0.0000000e+00 
0.0000000e+00 -2.3660865e-03 0.0000000e+00 
0.0000000e+00 -1.8391786e-03 0.0000000e+00 
0.0000000e+00 2.9553792e-03 0.0000000e+00 
0.0000000e+00 3.2590469e-03 0.0000000e+00 
0.0000000e+00 2.9662189e-03 0.0000000e+00 