# vtk DataFile Version 4.0
vtk output
ASCII
DATASET UNSTRUCTURED_GRID
POINTS 14 float
0.0000000e+00 0.0000000e+00 0.0000000e+00 
0.0000000e+00 0.0000000e+00 3.0000000e+00 
0.0000000e+00 0.0000000e+00 6.0000000e+00 
0.0000000e+00 0.0000000e+00 9.0000000e+00 
0.0000000e+00 0.0000000e+00 1.2000000e+01 
0.0000000e+00 0.0000000e+00 1.5000000e+01 
0.0000000e+00 0.0000000e+00 1.8000000e+01 
6.0000000e+00 0.0000000e+00 0.0000000e+00 
6.0000000e+00 0.0000000e+00 3.0000000e+00 
6.0000000e+00 0.0000000e+00 6.0000000e+00 
6.0000000e+00 0.0000000e+00 9.0000000e+00 
6.0000000e+00 0.0000000e+00 1.2000000e+01 
6.0000000e+00 0.0000000e+00 1.5000000e+01 
6.0000000e+00 0.0000000e+00 1.8000000e+01 

CELLS 18 54
2 0 1
2 1 2
2 2 3
2 3 4
2 4 5
2 5 6
2 7 8
2 8 9
2 9 10
2 10 11
2 11 12
2 12 13
2 1 8
2 2 9
2 3 10
2 4 11
2 5 12
2 6 13

CELL_TYPES 18
3
3
3
3
3
3
3
3
3
3
3
3
3
3
3
3
3
3
POINT_DATA 14
FIELD FieldData 3
ADJOINT_DISPLACEMENT 3 14  float
0.0000000e+00 0.0000000e+00 0.0000000e+00 
-3.0487293e-01 0.0000000e+00 3.1032293e-16 
3.9917755e-01 0.0000000e+00 1.3197745e-03 
5.5763835e-01 0.0000000e+00 1.5949731e-03 
5.8885866e-01 0.0000000e+00 1.6523531e-03 
5.9736747e-01 0.0000000e+00 1.6642964e-03 
6.0038334e-01 0.0000000e+00 1.6666830e-03 
0.0000000e+00 0.0000000e+00 0.0000000e+00 
-3.2068744e-01 0.0000000e+00 -3.1006957e-16 
4.1136107e-01 0.0000000e+00 -1.3197745e-03 
5.5499649e-01 0.0000000e+00 -1.5949731e-03 
5.8941376e-01 0.0000000e+00 -1.6523531e-03 
5.9725469e-01 0.0000000e+00 -1.6642964e-03 
6.0040033e-01 0.0000000e+00 -1.6666830e-03 
ADJOINT_ROTATION 3 14  float
0.0000000e+00 -2.1644007e-01 0.0000000e+00 
0.0000000e+00 1.2800720e-01 0.0000000e+00 
0.0000000e+00 1.4384530e-01 0.0000000e+00 
0.0000000e+00 4.9003465e-03 0.0000000e+00 
0.0000000e+00 6.8427231e-03 0.0000000e+00 
0.0000000e+00 7.2253001e-04 0.0000000e+00 
0.0000000e+00 9.5302594e-04 0.0000000e+00 
0.0000000e+00 7.9199374e-03 0.0000000e+00 
0.0000000e+00 -3.3652732e-01 0.0000000e+00 
0.0000000e+00 2.2074172e-02 0.0000000e+00 
0.0000000e+00 3.0577622e-02 0.0000000e+00 
0.0000000e+00 1.4377008e-03 0.0000000e+00 
0.0000000e+00 1.8969137e-03 0.0000000e+00 
0.0000000e+00 5.3517648e-04 0.0000000e+00 
SHAPE_SENSITIVITY 3 14  float
0.0000000e+00 0.0000000e+00 0.0000000e+00 
0.0000000e+00 0.0000000e+00 0.0000000e+00 
0.0000000e+00 0.0000000e+00 0.0000000e+00 
0.0000000e+00 0.0000000e+00 0.0000000e+00 
0.0000000e+00 0.0000000e+00 0.0000000e+00 
0.0000000e+00 0.0000000e+00 0.0000000e+00 
0.0000000e+00 0.0000000e+00 0.0000000e+00 
0.0000000e+00 0.0000000e+00 0.0000000e+00 
0.0000000e+00 0.0000000e+00 0.0000000e+00 
0.0000000e+00 0.0000000e+00 0.0000000e+00 
0.0000000e+00 0.0000000e+00 0.0000000e+00 
0.0000000e+00 0.0000000e+00 0.0000000e+00 
0.0000000e+00 0.0000000e+00 0.0000000e+00 
0.0000000e+00 0.0000000e+00 0.0000000e+00 
CELL_DATA 18
FIELD FieldData 1
I22_SENSITIVITY 1 18  float
-1.3696415e+06
1.9139351e+06
-3.3349588e+05
7.8452023e+04
-1.7318740e+04
3.6820640e+03
-1.3696415e+06
2.3400602e+06
-3.4941156e+05
7.6343625e+04
-1.4452753e+04
1.0398577e+03
-9.1488106e+05
-1.5687389e+05
3.6212215e+04
-8.0416138e+03
1.1526970e+03
-1.3860916e+03
