# vtk DataFile Version 4.0
vtk output
ASCII
DATASET UNSTRUCTURED_GRID
POINTS 30 float
0.0000000e+00 0.0000000e+00 0.0000000e+00 
0.0000000e+00 0.0000000e+00 8.0000001e-01 
0.0000000e+00 0.0000000e+00 1.6000000e+00 
0.0000000e+00 0.0000000e+00 2.4000001e+00 
0.0000000e+00 0.0000000e+00 3.2000000e+00 
0.0000000e+00 0.0000000e+00 4.0000000e+00 
0.0000000e+00 0.0000000e+00 4.8000002e+00 
0.0000000e+00 0.0000000e+00 5.5999999e+00 
0.0000000e+00 0.0000000e+00 6.4000001e+00 
0.0000000e+00 0.0000000e+00 7.1999998e+00 
0.0000000e+00 0.0000000e+00 8.0000000e+00 
1.0000000e+01 0.0000000e+00 0.0000000e+00 
1.0000000e+01 0.0000000e+00 8.0000001e-01 
1.0000000e+01 0.0000000e+00 1.6000000e+00 
1.0000000e+01 0.0000000e+00 2.4000001e+00 
1.0000000e+01 0.0000000e+00 3.2000000e+00 
1.0000000e+01 0.0000000e+00 4.0000000e+00 
1.0000000e+01 0.0000000e+00 4.8000002e+00 
1.0000000e+01 0.0000000e+00 5.5999999e+00 
1.0000000e+01 0.0000000e+00 6.4000001e+00 
1.0000000e+01 0.0000000e+00 7.1999998e+00 
1.0000000e+01 0.0000000e+00 8.0000000e+00 
2.0000000e+00 0.0000000e+00 4.0000000e+00 
4.0000000e+00 0.0000000e+00 4.0000000e+00 
6.0000000e+00 0.0000000e+00 4.0000000e+00 
8.0000000e+00 0.0000000e+00 4.0000000e+00 
2.0000000e+00 0.0000000e+00 8.0000000e+00 
4.0000000e+00 0.0000000e+00 8.0000000e+00 
6.0000000e+00 0.0000000e+00 8.0000000e+00 
8.0000000e+00 0.0000000e+00 8.0000000e+00 

CELLS 30 90
2 0 1
2 1 2
2 2 3
2 3 4
2 4 5
2 5 6
2 6 7
2 7 8
2 8 9
2 9 10
2 11 12
2 12 13
2 13 14
2 14 15
2 15 16
2 16 17
2 17 18
2 18 19
2 19 20
2 20 21
2 5 22
2 22 23
2 23 24
2 24 25
2 25 16
2 10 26
2 26 27
2 27 28
2 28 29
2 29 21

CELL_TYPES 30
3
3
3
3
3
3
3
3
3
3
3
3
3
3
3
3
3
3
3
3
3
3
3
3
3
3
3
3
3
3
POINT_DATA 30
FIELD FieldData 7
DISPLACEMENT 3 30  float
0.0000000e+00 0.0000000e+00 0.0000000e+00 
-3.1521008e-03 0.0000000e+00 -1.0552581e-06 
-6.1706798e-03 0.0000000e+00 -2.1105161e-06 
-8.9202272e-03 0.0000000e+00 -6.4055507e-06 
-1.1257284e-02 0.0000000e+00 -1.0700585e-05 
-1.3036404e-02 0.0000000e+00 -1.4995619e-05 
-1.4377546e-02 0.0000000e+00 -1.9143561e-05 
-1.5490044e-02 0.0000000e+00 -2.1505644e-05 
-1.6403558e-02 0.0000000e+00 -2.3867726e-05 
-1.7145712e-02 0.0000000e+00 -2.4918038e-05 
-1.7701179e-02 0.0000000e+00 -2.8692613e-05 
0.0000000e+00 0.0000000e+00 0.0000000e+00 
-3.0393405e-03 0.0000000e+00 7.9357997e-06 
-6.0009887e-03 0.0000000e+00 1.5871599e-05 
-8.7838424e-03 0.0000000e+00 2.2571143e-05 
-1.1193166e-02 0.0000000e+00 2.9270688e-05 
-1.3010818e-02 0.0000000e+00 3.5970232e-05 
-1.4353775e-02 0.0000000e+00 4.1463358e-05 
-1.5481181e-02 0.0000000e+00 4.4998236e-05 
-1.6420372e-02 0.0000000e+00 4.7315483e-05 
-1.7165989e-02 0.0000000e+00 4.6441084e-05 
-1.7717900e-02 0.0000000e+00 4.5117442e-05 
-1.3043229e-02 0.0000000e+00 2.0930734e-03 
-1.3043309e-02 0.0000000e+00 1.3888336e-03 
-1.3034668e-02 0.0000000e+00 -8.1852259e-04 
-1.3022151e-02 0.0000000e+00 -1.8277746e-03 
-1.7699577e-02 0.0000000e+00 6.4196519e-04 
-1.7704546e-02 0.0000000e+00 4.9086177e-04 
-1.7709518e-02 0.0000000e+00 -1.9736204e-05 
-1.7714489e-02 0.0000000e+00 -3.6815740e-04 
ROTATION 3 30  float
0.0000000e+00 -3.9679431e-03 0.0000000e+00 
0.0000000e+00 -3.8844920e-03 0.0000000e+00 
0.0000000e+00 -3.6341380e-03 0.0000000e+00 
0.0000000e+00 -3.2094291e-03 0.0000000e+00 
0.0000000e+00 -2.6029120e-03 0.0000000e+00 
0.0000000e+00 -1.8145869e-03 0.0000000e+00 
0.0000000e+00 -1.5322315e-03 0.0000000e+00 
0.0000000e+00 -1.2576358e-03 0.0000000e+00 
0.0000000e+00 -1.0347707e-03 0.0000000e+00 
0.0000000e+00 -8.1203628e-04 0.0000000e+00 
0.0000000e+00 -5.8316084e-04 0.0000000e+00 
0.0000000e+00 -3.8153618e-03 0.0000000e+00 
0.0000000e+00 -3.7668038e-03 0.0000000e+00 
0.0000000e+00 -3.6211300e-03 0.0000000e+00 
0.0000000e+00 -3.2905582e-03 0.0000000e+00 
0.0000000e+00 -2.6873059e-03 0.0000000e+00 
0.0000000e+00 -1.8113735e-03 0.0000000e+00 
0.0000000e+00 -1.5408724e-03 0.0000000e+00 
0.0000000e+00 -1.2890035e-03 0.0000000e+00 
0.0000000e+00 -1.0528493e-03 0.0000000e+00 
0.0000000e+00 -8.1762148e-04 0.0000000e+00 
0.0000000e+00 -5.4239266e-04 0.0000000e+00 
0.0000000e+00 -3.0165398e-04 0.0000000e+00 
0.0000000e+00 9.1545901e-04 0.0000000e+00 
0.0000000e+00 1.0072119e-03 0.0000000e+00 
0.0000000e+00 -1.1939439e-04 0.0000000e+00 
0.0000000e+00 -1.0126716e-04 0.0000000e+00 
0.0000000e+00 2.0889795e-04 0.0000000e+00 
0.0000000e+00 2.5822740e-04 0.0000000e+00 
0.0000000e+00 4.6721190e-05 0.0000000e+00 
REACTION 3 30  float
8.2147334e+03 -0.0000000e+00 2.7700525e+03 
2.3283064e-10 -0.0000000e+00 -0.0000000e+00 
1.1077645e-09 -0.0000000e+00 -0.0000000e+00 
9.3132257e-10 -0.0000000e+00 -0.0000000e+00 
-1.8626451e-09 -0.0000000e+00 -0.0000000e+00 
2.8521754e-09 -0.0000000e+00 1.5825208e-10 
-6.6429493e-09 -0.0000000e+00 4.6657078e-10 
2.2118911e-09 -0.0000000e+00 7.2759576e-12 
-7.6033757e-10 -0.0000000e+00 4.2746251e-11 
2.9649527e-10 -0.0000000e+00 -1.4551915e-11 
4.2055035e-09 -0.0000000e+00 2.7284841e-12 
4.7799199e+03 -0.0000000e+00 -2.0831473e+04 
-6.9849193e-10 -0.0000000e+00 -0.0000000e+00 
-1.7389539e-09 -0.0000000e+00 -1.8189894e-11 
-8.1490725e-10 -0.0000000e+00 5.0931703e-11 
4.3073669e-09 -0.0000000e+00 -3.6379788e-11 
7.5669959e-09 -0.0000000e+00 3.4051482e-09 
-1.8662831e-09 -0.0000000e+00 -3.6379788e-12 
1.4360921e-09 -0.0000000e+00 9.0949470e-12 
-6.9121597e-10 -0.0000000e+00 5.5661076e-10 
3.6015990e-10 -0.0000000e+00 1.4551915e-11 
-5.4806151e-09 -0.0000000e+00 -2.3555913e-10 
7.6397555e-10 -0.0000000e+00 -8.9494279e-10 
-2.3592293e-09 -0.0000000e+00 -1.6007107e-10 
1.3642421e-10 -0.0000000e+00 -3.6561687e-10 
-4.1709427e-09 -0.0000000e+00 -6.2300387e-11 
-7.6834112e-09 -0.0000000e+00 -2.4556357e-11 
7.4505806e-09 -0.0000000e+00 2.1827873e-11 
-3.7252903e-09 -0.0000000e+00 -8.8448360e-10 
5.1495590e-09 -0.0000000e+00 -1.0459189e-11 
REACTION_MOMENT 3 30  float
-0.0000000e+00 -4.6566129e-10 -0.0000000e+00 
-0.0000000e+00 -2.3283064e-10 -0.0000000e+00 
-0.0000000e+00 -1.7462298e-09 -0.0000000e+00 
-0.0000000e+00 1.2805685e-09 -0.0000000e+00 
-0.0000000e+00 -1.3387762e-09 -0.0000000e+00 
-0.0000000e+00 -2.5283953e-09 -0.0000000e+00 
-0.0000000e+00 -5.2823452e-09 -0.0000000e+00 
-0.0000000e+00 -3.0559022e-10 -0.0000000e+00 
-0.0000000e+00 -1.6589183e-09 -0.0000000e+00 
-0.0000000e+00 1.0404619e-09 -0.0000000e+00 
-0.0000000e+00 4.9476512e-10 -0.0000000e+00 
-0.0000000e+00 2.3283064e-10 -0.0000000e+00 
-0.0000000e+00 4.0745363e-10 -0.0000000e+00 
-0.0000000e+00 3.4924597e-10 -0.0000000e+00 
-0.0000000e+00 1.4551915e-10 -0.0000000e+00 
-0.0000000e+00 -5.8207661e-10 -0.0000000e+00 
-0.0000000e+00 1.4551915e-10 -0.0000000e+00 
-0.0000000e+00 -1.0186341e-10 -0.0000000e+00 
-0.0000000e+00 -2.7648639e-10 -0.0000000e+00 
-0.0000000e+00 1.9645086e-09 -0.0000000e+00 
-0.0000000e+00 8.5856300e-10 -0.0000000e+00 
-0.0000000e+00 4.7293724e-10 -0.0000000e+00 
-0.0000000e+00 2.1827873e-11 -0.0000000e+00 
-0.0000000e+00 1.2005330e-10 -0.0000000e+00 
-0.0000000e+00 -4.0017767e-11 -0.0000000e+00 
-0.0000000e+00 -1.4551915e-11 -0.0000000e+00 
-0.0000000e+00 -8.1854523e-12 -0.0000000e+00 
-0.0000000e+00 7.2759576e-12 -0.0000000e+00 
-0.0000000e+00 -1.7962520e-11 -0.0000000e+00 
-0.0000000e+00 -3.6379788e-12 -0.0000000e+00 
VOLUME_ACCELERATION 3 30  float
0.0000000e+00 0.0000000e+00 0.0000000e+00 
0.0000000e+00 0.0000000e+00 0.0000000e+00 
0.0000000e+00 0.0000000e+00 0.0000000e+00 
0.0000000e+00 0.0000000e+00 0.0000000e+00 
0.0000000e+00 0.0000000e+00 0.0000000e+00 
0.0000000e+00 0.0000000e+00 0.0000000e+00 
0.0000000e+00 0.0000000e+00 0.0000000e+00 
0.0000000e+00 0.0000000e+00 0.0000000e+00 
0.0000000e+00 0.0000000e+00 0.0000000e+00 
0.0000000e+00 0.0000000e+00 0.0000000e+00 
0.0000000e+00 0.0000000e+00 0.0000000e+00 
0.0000000e+00 0.0000000e+00 0.0000000e+00 
0.0000000e+00 0.0000000e+00 0.0000000e+00 
0.0000000e+00 0.0000000e+00 0.0000000e+00 
0.0000000e+00 0.0000000e+00 0.0000000e+00 
0.0000000e+00 0.0000000e+00 0.0000000e+00 
0.0000000e+00 0.0000000e+00 0.0000000e+00 
0.0000000e+00 0.0000000e+00 0.0000000e+00 
0.0000000e+00 0.0000000e+00 0.0000000e+00 
0.0000000e+00 0.0000000e+00 0.0000000e+00 
0.0000000e+00 0.0000000e+00 0.0000000e+00 
0.0000000e+00 0.0000000e+00 0.0000000e+00 
0.0000000e+00 0.0000000e+00 0.0000000e+00 
0.0000000e+00 0.0000000e+00 0.0000000e+00 
0.0000000e+00 0.0000000e+00 0.0000000e+00 
0.0000000e+00 0.0000000e+00 0.0000000e+00 
0.0000000e+00 0.0000000e+00 0.0000000e+00 
0.0000000e+00 0.0000000e+00 0.0000000e+00 
0.0000000e+00 0.0000000e+00 0.0000000e+00 
0.0000000e+00 0.0000000e+00 0.0000000e+00 
POINT_LOAD 3 30  float
0.0000000e+00 0.0000000e+00 0.0000000e+00 
0.0000000e+00 0.0000000e+00 0.0000000e+00 
7.3363086e+02 0.0000000e+00 8.5044131e+03 
0.0000000e+00 0.0000000e+00 0.0000000e+00 
0.0000000e+00 0.0000000e+00 0.0000000e+00 
0.0000000e+00 0.0000000e+00 0.0000000e+00 
-4.3283911e+03 0.0000000e+00 -4.6878765e+03 
0.0000000e+00 0.0000000e+00 0.0000000e+00 
5.0793711e+03 0.0000000e+00 -3.4434006e+03 
-4.4620039e+03 0.0000000e+00 7.1511904e+03 
2.4675209e+02 0.0000000e+00 -9.2576143e+03 
0.0000000e+00 0.0000000e+00 0.0000000e+00 
0.0000000e+00 0.0000000e+00 0.0000000e+00 
8.6410645e+03 0.0000000e+00 3.2451694e+03 
0.0000000e+00 0.0000000e+00 0.0000000e+00 
0.0000000e+00 0.0000000e+00 0.0000000e+00 
0.0000000e+00 0.0000000e+00 0.0000000e+00 
-4.8754282e+03 0.0000000e+00 5.1404106e+03 
5.1626108e+03 0.0000000e+00 3.1962705e+03 
-3.7068591e+03 0.0000000e+00 8.3780811e+03 
7.7356299e+03 0.0000000e+00 1.1792582e+03 
-9.4168701e+03 0.0000000e+00 -7.3677998e+03 
-7.0822471e+03 0.0000000e+00 3.8869219e+03 
-9.1564736e+03 0.0000000e+00 9.1783359e+03 
-4.0705562e+03 0.0000000e+00 -7.7136006e+03 
1.2428619e+03 0.0000000e+00 -2.5709341e+03 
6.9015874e+03 0.0000000e+00 1.4034366e+03 
0.0000000e+00 0.0000000e+00 0.0000000e+00 
0.0000000e+00 0.0000000e+00 0.0000000e+00 
-1.6393331e+03 0.0000000e+00 1.8391581e+03 
POINT_MOMENT 3 30  float
0.0000000e+00 0.0000000e+00 0.0000000e+00 
0.0000000e+00 0.0000000e+00 0.0000000e+00 
0.0000000e+00 0.0000000e+00 0.0000000e+00 
0.0000000e+00 0.0000000e+00 0.0000000e+00 
0.0000000e+00 0.0000000e+00 0.0000000e+00 
0.0000000e+00 0.0000000e+00 0.0000000e+00 
0.0000000e+00 0.0000000e+00 0.0000000e+00 
0.0000000e+00 0.0000000e+00 0.0000000e+00 
0.0000000e+00 0.0000000e+00 0.0000000e+00 
0.0000000e+00 0.0000000e+00 0.0000000e+00 
0.0000000e+00 0.0000000e+00 0.0000000e+00 
0.0000000e+00 0.0000000e+00 0.0000000e+00 
0.0000000e+00 0.0000000e+00 0.0000000e+00 
0.0000000e+00 0.0000000e+00 0.0000000e+00 
0.0000000e+00 0.0000000e+00 0.0000000e+00 
0.0000000e+00 0.0000000e+00 0.0000000e+00 
0.0000000e+00 0.0000000e+00 0.0000000e+00 
0.0000000e+00 0.0000000e+00 0.0000000e+00 
0.0000000e+00 0.0000000e+00 0.0000000e+00 
0.0000000e+00 0.0000000e+00 0.0000000e+00 
0.0000000e+00 0.0000000e+00 0.0000000e+00 
0.0000000e+00 0.0000000e+00 0.0000000e+00 
0.0000000e+00 0.0000000e+00 0.0000000e+00 
0.0000000e+00 0.0000000e+00 0.0000000e+00 
0.0000000e+00 0.0000000e+00 0.0000000e+00 
0.0000000e+00 0.0000000e+00 0.0000000e+00 
0.0000000e+00 0.0000000e+00 0.0000000e+00 
0.0000000e+00 0.0000000e+00 0.0000000e+00 
0.0000000e+00 0.0000000e+00 0.0000000e+00 
0.0000000e+00 0.0000000e+00 0.0000000e+00 
CELL_DATA 30
FIELD FieldData 9
YOUNG_MODULUS 1 30  float
2.1000000e+11
2.1000000e+11
2.1000000e+11
2.1000000e+11
2.1000000e+11
2.1000000e+11
2.1000000e+11
2.1000000e+11
2.1000000e+11
2.1000000e+11
2.1000000e+11
2.1000000e+11
2.1000000e+11
2.1000000e+11
2.1000000e+11
2.1000000e+11
2.1000000e+11
2.1000000e+11
2.1000000e+11
2.1000000e+11
2.1000000e+11
2.1000000e+11
2.1000000e+11
2.1000000e+11
2.1000000e+11
2.1000000e+11
2.1000000e+11
2.1000000e+11
2.1000000e+11
2.1000000e+11
DENSITY 1 30  float
7.8500000e+03
7.8500000e+03
7.8500000e+03
7.8500000e+03
7.8500000e+03
7.8500000e+03
7.8500000e+03
7.8500000e+03
7.8500000e+03
7.8500000e+03
7.8500000e+03
7.8500000e+03
7.8500000e+03
7.8500000e+03
7.8500000e+03
7.8500000e+03
7.8500000e+03
7.8500000e+03
7.8500000e+03
7.8500000e+03
7.8500000e+03
7.8500000e+03
7.8500000e+03
7.8500000e+03
7.8500000e+03
7.8500000e+03
7.8500000e+03
7.8500000e+03
7.8500000e+03
7.8500000e+03
CROSS_AREA 1 30  float
9.9999998e-03
9.9999998e-03
9.9999998e-03
9.9999998e-03
9.9999998e-03
9.9999998e-03
9.9999998e-03
9.9999998e-03
9.9999998e-03
9.9999998e-03
9.9999998e-03
9.9999998e-03
9.9999998e-03
9.9999998e-03
9.9999998e-03
9.9999998e-03
9.9999998e-03
9.9999998e-03
9.9999998e-03
9.9999998e-03
9.9999998e-03
9.9999998e-03
9.9999998e-03
9.9999998e-03
9.9999998e-03
9.9999998e-03
9.9999998e-03
9.9999998e-03
9.9999998e-03
9.9999998e-03
I22 1 30  float
1.5000001e-04
1.5000001e-04
1.5000001e-04
1.5000001e-04
1.5000001e-04
1.5000001e-04
1.5000001e-04
1.5000001e-04
1.5000001e-04
1.5000001e-04
1.5000001e-04
1.5000001e-04
1.5000001e-04
1.5000001e-04
1.5000001e-04
1.5000001e-04
1.5000001e-04
1.5000001e-04
1.5000001e-04
1.5000001e-04
1.5000001e-04
1.5000001e-04
1.5000001e-04
1.5000001e-04
1.5000001e-04
1.5000001e-04
1.5000001e-04
1.5000001e-04
1.5000001e-04
1.5000001e-04
I33 1 30  float
1.5000001e-04
1.5000001e-04
1.5000001e-04
1.5000001e-04
1.5000001e-04
1.5000001e-04
1.5000001e-04
1.5000001e-04
1.5000001e-04
1.5000001e-04
1.5000001e-04
1.5000001e-04
1.5000001e-04
1.5000001e-04
1.5000001e-04
1.5000001e-04
1.5000001e-04
1.5000001e-04
1.5000001e-04
1.5000001e-04
1.5000001e-04
1.5000001e-04
1.5000001e-04
1.5000001e-04
1.5000001e-04
1.5000001e-04
1.5000001e-04
1.5000001e-04
1.5000001e-04
1.5000001e-04
TORSIONAL_INERTIA 1 30  float
3.0000001e-04
3.0000001e-04
3.0000001e-04
3.0000001e-04
3.0000001e-04
3.0000001e-04
3.0000001e-04
3.0000001e-04
3.0000001e-04
3.0000001e-04
3.0000001e-04
3.0000001e-04
3.0000001e-04
3.0000001e-04
3.0000001e-04
3.0000001e-04
3.0000001e-04
3.0000001e-04
3.0000001e-04
3.0000001e-04
3.0000001e-04
3.0000001e-04
3.0000001e-04
3.0000001e-04
3.0000001e-04
3.0000001e-04
3.0000001e-04
3.0000001e-04
3.0000001e-04
3.0000001e-04
POISSON_RATIO 1 30  float
3.0000001e-01
3.0000001e-01
3.0000001e-01
3.0000001e-01
3.0000001e-01
3.0000001e-01
3.0000001e-01
3.0000001e-01
3.0000001e-01
3.0000001e-01
3.0000001e-01
3.0000001e-01
3.0000001e-01
3.0000001e-01
3.0000001e-01
3.0000001e-01
3.0000001e-01
3.0000001e-01
3.0000001e-01
3.0000001e-01
3.0000001e-01
3.0000001e-01
3.0000001e-01
3.0000001e-01
3.0000001e-01
3.0000001e-01
3.0000001e-01
3.0000001e-01
3.0000001e-01
3.0000001e-01
MOMENT 3 30  float
0.0000000e+00 3.2858933e+03 0.0000000e+00 
0.0000000e+00 9.8576797e+03 0.0000000e+00 
0.0000000e+00 1.6722918e+04 0.0000000e+00 
0.0000000e+00 2.3881609e+04 0.0000000e+00 
0.0000000e+00 3.1040301e+04 0.0000000e+00 
0.0000000e+00 1.1117743e+04 0.0000000e+00 
0.0000000e+00 1.0812206e+04 0.0000000e+00 
0.0000000e+00 8.7753125e+03 0.0000000e+00 
0.0000000e+00 8.7701680e+03 0.0000000e+00 
0.0000000e+00 9.0119697e+03 0.0000000e+00 
0.0000000e+00 1.9119680e+03 0.0000000e+00 
0.0000000e+00 5.7359043e+03 0.0000000e+00 
0.0000000e+00 1.3016266e+04 0.0000000e+00 
0.0000000e+00 2.3753053e+04 0.0000000e+00 
0.0000000e+00 3.4489840e+04 0.0000000e+00 
0.0000000e+00 1.0650982e+04 0.0000000e+00 
0.0000000e+00 9.9173389e+03 0.0000000e+00 
0.0000000e+00 9.2985684e+03 0.0000000e+00 
0.0000000e+00 9.2620986e+03 0.0000000e+00 
0.0000000e+00 1.0837137e+04 0.0000000e+00 
0.0000000e+00 2.3828693e+04 0.0000000e+00 
0.0000000e+00 1.9169529e+04 0.0000000e+00 
0.0000000e+00 1.4451082e+03 0.0000000e+00 
0.0000000e+00 -1.7744049e+04 0.0000000e+00 
0.0000000e+00 -2.6648672e+04 0.0000000e+00 
0.0000000e+00 7.5898257e+03 0.0000000e+00 
0.0000000e+00 4.8851006e+03 0.0000000e+00 
0.0000000e+00 7.7693884e+02 0.0000000e+00 
0.0000000e+00 -3.3312229e+03 0.0000000e+00 
0.0000000e+00 -9.2785430e+03 0.0000000e+00 
FORCE 3 30  float
-2.7700525e+03 0.0000000e+00 8.2147334e+03 
-2.7700525e+03 0.0000000e+00 8.2147334e+03 
-1.1274466e+04 0.0000000e+00 8.9483643e+03 
-1.1274466e+04 0.0000000e+00 8.9483643e+03 
-1.1274466e+04 0.0000000e+00 8.9483643e+03 
-1.0888345e+04 0.0000000e+00 1.7822743e+03 
-6.2004683e+03 0.0000000e+00 -2.5461167e+03 
-6.2004683e+03 0.0000000e+00 -2.5461167e+03 
-2.7570676e+03 0.0000000e+00 2.5332544e+03 
-9.9082578e+03 0.0000000e+00 -1.9287494e+03 
2.0831473e+04 0.0000000e+00 4.7799199e+03 
2.0831473e+04 0.0000000e+00 4.7799199e+03 
1.7586305e+04 0.0000000e+00 1.3420984e+04 
1.7586305e+04 0.0000000e+00 1.3420984e+04 
1.7586305e+04 0.0000000e+00 1.3420984e+04 
1.4419460e+04 0.0000000e+00 1.5206598e+03 
9.2790488e+03 0.0000000e+00 -3.3547686e+03 
6.0827783e+03 0.0000000e+00 1.8078422e+03 
-2.2953027e+03 0.0000000e+00 -1.8990170e+03 
-3.4745610e+03 0.0000000e+00 5.8366128e+03 
-7.1660898e+03 0.0000000e+00 -3.8612076e+02 
-8.3842804e+01 0.0000000e+00 -4.2730425e+03 
9.0726299e+03 0.0000000e+00 -1.3451379e+04 
1.3143187e+04 0.0000000e+00 -5.7377783e+03 
1.1900324e+04 0.0000000e+00 -3.1668442e+03 
1.6819973e+03 0.0000000e+00 -6.5064423e+02 
-5.2195898e+03 0.0000000e+00 -2.0540808e+03 
-5.2195898e+03 0.0000000e+00 -2.0540808e+03 
-5.2195898e+03 0.0000000e+00 -2.0540808e+03 
-3.5802568e+03 0.0000000e+00 -3.8932390e+03 
