# vtk DataFile Version 4.0
vtk output
ASCII
DATASET UNSTRUCTURED_GRID
POINTS 32 float
0.0000000e+00 0.0000000e+00 0.0000000e+00 
0.0000000e+00 0.0000000e+00 1.5000000e+00 
0.0000000e+00 0.0000000e+00 3.0000000e+00 
0.0000000e+00 0.0000000e+00 4.5000000e+00 
0.0000000e+00 0.0000000e+00 6.0000000e+00 
0.0000000e+00 0.0000000e+00 7.5000000e+00 
0.0000000e+00 0.0000000e+00 9.0000000e+00 
0.0000000e+00 0.0000000e+00 1.0500000e+01 
0.0000000e+00 0.0000000e+00 1.2000000e+01 
0.0000000e+00 0.0000000e+00 1.3500000e+01 
0.0000000e+00 0.0000000e+00 1.5000000e+01 
0.0000000e+00 0.0000000e+00 1.6500000e+01 
0.0000000e+00 0.0000000e+00 1.8000000e+01 
3.0000000e+00 0.0000000e+00 3.0000000e+00 
3.0000000e+00 0.0000000e+00 6.0000000e+00 
3.0000000e+00 0.0000000e+00 9.0000000e+00 
3.0000000e+00 0.0000000e+00 1.2000000e+01 
3.0000000e+00 0.0000000e+00 1.5000000e+01 
3.0000000e+00 0.0000000e+00 1.8000000e+01 
6.0000000e+00 0.0000000e+00 0.0000000e+00 
6.0000000e+00 0.0000000e+00 1.5000000e+00 
6.0000000e+00 0.0000000e+00 3.0000000e+00 
6.0000000e+00 0.0000000e+00 4.5000000e+00 
6.0000000e+00 0.0000000e+00 6.0000000e+00 
6.0000000e+00 0.0000000e+00 7.5000000e+00 
6.0000000e+00 0.0000000e+00 9.0000000e+00 
6.0000000e+00 0.0000000e+00 1.0500000e+01 
6.0000000e+00 0.0000000e+00 1.2000000e+01 
6.0000000e+00 0.0000000e+00 1.3500000e+01 
6.0000000e+00 0.0000000e+00 1.5000000e+01 
6.0000000e+00 0.0000000e+00 1.6500000e+01 
6.0000000e+00 0.0000000e+00 1.8000000e+01 

CELLS 36 108
2 0 1
2 1 2
2 2 3
2 3 4
2 4 5
2 5 6
2 6 7
2 7 8
2 8 9
2 9 10
2 10 11
2 11 12
2 19 20
2 20 21
2 21 22
2 22 23
2 23 24
2 24 25
2 25 26
2 26 27
2 27 28
2 28 29
2 29 30
2 30 31
2 2 13
2 13 21
2 4 14
2 14 23
2 6 15
2 15 25
2 8 16
2 16 27
2 10 17
2 17 29
2 12 18
2 18 31

CELL_TYPES 36
3
3
3
3
3
3
3
3
3
3
3
3
3
3
3
3
3
3
3
3
3
3
3
3
3
3
3
3
3
3
3
3
3
3
3
3
POINT_DATA 32
FIELD FieldData 3
ADJOINT_DISPLACEMENT 3 32  float
0.0000000e+00 0.0000000e+00 0.0000000e+00 
-5.5609602e-01 0.0000000e+00 1.9472176e-15 
-1.1869224e+00 0.0000000e+00 3.8944351e-15 
-1.6938071e+00 0.0000000e+00 -3.9467432e-05 
-1.9044164e+00 0.0000000e+00 -7.8934863e-05 
-1.9965590e+00 0.0000000e+00 -8.7171720e-05 
-2.0540950e+00 0.0000000e+00 -9.5408570e-05 
-2.0765712e+00 0.0000000e+00 -9.7127471e-05 
-2.0854661e+00 0.0000000e+00 -9.8846373e-05 
-2.0894496e+00 0.0000000e+00 -9.9204459e-05 
-2.0920923e+00 0.0000000e+00 -9.9562538e-05 
-2.0931733e+00 0.0000000e+00 -9.9634155e-05 
-2.0936134e+00 0.0000000e+00 -9.9705765e-05 
-1.1869490e+00 0.0000000e+00 -6.5037274e-01 
-1.9043217e+00 0.0000000e+00 -2.3346944e-02 
-2.0541172e+00 0.0000000e+00 5.4406631e-03 
-2.0854611e+00 0.0000000e+00 -1.2704593e-03 
-2.0920932e+00 0.0000000e+00 3.0785895e-04 
-2.0936131e+00 0.0000000e+00 -1.2234195e-04 
0.0000000e+00 0.0000000e+00 0.0000000e+00 
-6.3085300e-01 0.0000000e+00 -1.9470795e-15 
-1.1869756e+00 0.0000000e+00 -3.8941391e-15 
-1.6322519e+00 0.0000000e+00 3.9467432e-05 
-1.9042269e+00 0.0000000e+00 7.8934863e-05 
-2.0108802e+00 0.0000000e+00 8.7171720e-05 
-2.0541394e+00 0.0000000e+00 9.5408570e-05 
-2.0732327e+00 0.0000000e+00 9.7127471e-05 
-2.0854559e+00 0.0000000e+00 9.8846373e-05 
-2.0902350e+00 0.0000000e+00 9.9204459e-05 
-2.0920944e+00 0.0000000e+00 9.9562538e-05 
-2.0929592e+00 0.0000000e+00 9.9634155e-05 
-2.0936129e+00 0.0000000e+00 9.9705765e-05 
ADJOINT_ROTATION 3 32  float
0.0000000e+00 -3.6242732e-01 0.0000000e+00 
0.0000000e+00 -3.8733745e-01 0.0000000e+00 
0.0000000e+00 -4.6206784e-01 0.0000000e+00 
0.0000000e+00 -2.2647148e-01 0.0000000e+00 
0.0000000e+00 -6.7034096e-02 0.0000000e+00 
0.0000000e+00 -5.2857805e-02 0.0000000e+00 
0.0000000e+00 -2.0892113e-02 0.0000000e+00 
0.0000000e+00 -9.7665461e-03 0.0000000e+00 
0.0000000e+00 -2.7839188e-03 0.0000000e+00 
0.0000000e+00 -2.3680357e-03 0.0000000e+00 
0.0000000e+00 -9.9584577e-04 0.0000000e+00 
0.0000000e+00 -4.7634076e-04 0.0000000e+00 
0.0000000e+00 -1.4101675e-04 0.0000000e+00 
0.0000000e+00 -5.2175160e-02 0.0000000e+00 
0.0000000e+00 4.1259896e-02 0.0000000e+00 
0.0000000e+00 8.5847983e-03 0.0000000e+00 
0.0000000e+00 1.7660225e-03 0.0000000e+00 
0.0000000e+00 3.4552196e-04 0.0000000e+00 
0.0000000e+00 6.1436142e-05 0.0000000e+00 
0.0000000e+00 -4.2887205e-01 0.0000000e+00 
0.0000000e+00 -4.0396193e-01 0.0000000e+00 
0.0000000e+00 -3.2923150e-01 0.0000000e+00 
0.0000000e+00 -2.5177693e-01 0.0000000e+00 
0.0000000e+00 -9.8163351e-02 0.0000000e+00 
0.0000000e+00 -4.7005922e-02 0.0000000e+00 
0.0000000e+00 -1.3637896e-02 0.0000000e+00 
0.0000000e+00 -1.1129350e-02 0.0000000e+00 
0.0000000e+00 -4.4778641e-03 0.0000000e+00 
0.0000000e+00 -2.0534622e-03 0.0000000e+00 
0.0000000e+00 -5.8536715e-04 0.0000000e+00 
0.0000000e+00 -5.3684373e-04 0.0000000e+00 
0.0000000e+00 -3.0413934e-04 0.0000000e+00 
SHAPE_SENSITIVITY 3 32  float
0.0000000e+00 0.0000000e+00 0.0000000e+00 
0.0000000e+00 0.0000000e+00 0.0000000e+00 
0.0000000e+00 0.0000000e+00 0.0000000e+00 
0.0000000e+00 0.0000000e+00 0.0000000e+00 
0.0000000e+00 0.0000000e+00 0.0000000e+00 
0.0000000e+00 0.0000000e+00 0.0000000e+00 
0.0000000e+00 0.0000000e+00 0.0000000e+00 
0.0000000e+00 0.0000000e+00 0.0000000e+00 
0.0000000e+00 0.0000000e+00 0.0000000e+00 
0.0000000e+00 0.0000000e+00 0.0000000e+00 
0.0000000e+00 0.0000000e+00 0.0000000e+00 
0.0000000e+00 0.0000000e+00 0.0000000e+00 
0.0000000e+00 0.0000000e+00 0.0000000e+00 
0.0000000e+00 0.0000000e+00 0.0000000e+00 
0.0000000e+00 0.0000000e+00 0.0000000e+00 
0.0000000e+00 0.0000000e+00 0.0000000e+00 
0.0000000e+00 0.0000000e+00 0.0000000e+00 
0.0000000e+00 0.0000000e+00 0.0000000e+00 
0.0000000e+00 0.0000000e+00 0.0000000e+00 
0.0000000e+00 0.0000000e+00 0.0000000e+00 
0.0000000e+00 0.0000000e+00 0.0000000e+00 
0.0000000e+00 0.0000000e+00 0.0000000e+00 
0.0000000e+00 0.0000000e+00 0.0000000e+00 
0.0000000e+00 0.0000000e+00 0.0000000e+00 
0.0000000e+00 0.0000000e+00 0.0000000e+00 
0.0000000e+00 0.0000000e+00 0.0000000e+00 
0.0000000e+00 0.0000000e+00 0.0000000e+00 
0.0000000e+00 0.0000000e+00 0.0000000e+00 
0.0000000e+00 0.0000000e+00 0.0000000e+00 
0.0000000e+00 0.0000000e+00 0.0000000e+00 
0.0000000e+00 0.0000000e+00 0.0000000e+00 
0.0000000e+00 0.0000000e+00 0.0000000e+00 
CELL_DATA 36
FIELD FieldData 1
I22_SENSITIVITY 1 36  float
8.3439131e+05
5.8407390e+06
2.3322754e+07
-1.0302839e+07
7.4007456e+05
-2.4768035e+06
8.6277625e+05
-4.7870716e+05
1.9963096e+04
-8.4493461e+04
3.9218570e+04
-4.6105551e+04
8.3439125e+05
5.8407390e+06
-6.2698205e+06
1.1991938e+07
-3.6114745e+06
2.1682325e+06
-1.3155980e+05
5.5634506e+05
-1.8520606e+05
6.9537719e+04
-2.9818182e+01
3.7624777e+04
-7.4928525e+06
-2.1536876e+07
-7.3398365e+06
6.6605740e+06
-1.3156186e+06
1.4902042e+06
-3.0648947e+05
2.6319231e+05
-6.6792555e+04
7.3589133e+04
-1.0970095e+04
1.8821479e+03
