# vtk DataFile Version 4.0
vtk output
ASCII
DATASET UNSTRUCTURED_GRID
POINTS 212 float
0.0000000e+00 0.0000000e+00 0.0000000e+00 
0.0000000e+00 0.0000000e+00 2.5000000e-01 
0.0000000e+00 0.0000000e+00 5.0000000e-01 
0.0000000e+00 0.0000000e+00 7.5000000e-01 
0.0000000e+00 0.0000000e+00 1.0000000e+00 
0.0000000e+00 0.0000000e+00 1.2500000e+00 
0.0000000e+00 0.0000000e+00 1.5000000e+00 
0.0000000e+00 0.0000000e+00 1.7500000e+00 
0.0000000e+00 0.0000000e+00 2.0000000e+00 
0.0000000e+00 0.0000000e+00 2.2500000e+00 
0.0000000e+00 0.0000000e+00 2.5000000e+00 
0.0000000e+00 0.0000000e+00 2.7500000e+00 
0.0000000e+00 0.0000000e+00 3.0000000e+00 
0.0000000e+00 0.0000000e+00 3.2500000e+00 
0.0000000e+00 0.0000000e+00 3.5000000e+00 
0.0000000e+00 0.0000000e+00 3.7500000e+00 
0.0000000e+00 0.0000000e+00 4.0000000e+00 
0.0000000e+00 0.0000000e+00 4.2500000e+00 
0.0000000e+00 0.0000000e+00 4.5000000e+00 
0.0000000e+00 0.0000000e+00 4.7500000e+00 
0.0000000e+00 0.0000000e+00 5.0000000e+00 
0.0000000e+00 0.0000000e+00 5.2500000e+00 
0.0000000e+00 0.0000000e+00 5.5000000e+00 
0.0000000e+00 0.0000000e+00 5.7500000e+00 
0.0000000e+00 0.0000000e+00 6.0000000e+00 
0.0000000e+00 0.0000000e+00 6.2500000e+00 
0.0000000e+00 0.0000000e+00 6.5000000e+00 
0.0000000e+00 0.0000000e+00 6.7500000e+00 
0.0000000e+00 0.0000000e+00 7.0000000e+00 
0.0000000e+00 0.0000000e+00 7.2500000e+00 
0.0000000e+00 0.0000000e+00 7.5000000e+00 
0.0000000e+00 0.0000000e+00 7.7500000e+00 
0.0000000e+00 0.0000000e+00 8.0000000e+00 
0.0000000e+00 0.0000000e+00 8.2500000e+00 
0.0000000e+00 0.0000000e+00 8.5000000e+00 
0.0000000e+00 0.0000000e+00 8.7500000e+00 
0.0000000e+00 0.0000000e+00 9.0000000e+00 
0.0000000e+00 0.0000000e+00 9.2500000e+00 
0.0000000e+00 0.0000000e+00 9.5000000e+00 
0.0000000e+00 0.0000000e+00 9.7500000e+00 
0.0000000e+00 0.0000000e+00 1.0000000e+01 
0.0000000e+00 0.0000000e+00 1.0250000e+01 
0.0000000e+00 0.0000000e+00 1.0500000e+01 
0.0000000e+00 0.0000000e+00 1.0750000e+01 
0.0000000e+00 0.0000000e+00 1.1000000e+01 
0.0000000e+00 0.0000000e+00 1.1250000e+01 
0.0000000e+00 0.0000000e+00 1.1500000e+01 
0.0000000e+00 0.0000000e+00 1.1750000e+01 
0.0000000e+00 0.0000000e+00 1.2000000e+01 
0.0000000e+00 0.0000000e+00 1.2250000e+01 
0.0000000e+00 0.0000000e+00 1.2500000e+01 
0.0000000e+00 0.0000000e+00 1.2750000e+01 
0.0000000e+00 0.0000000e+00 1.3000000e+01 
0.0000000e+00 0.0000000e+00 1.3250000e+01 
0.0000000e+00 0.0000000e+00 1.3500000e+01 
0.0000000e+00 0.0000000e+00 1.3750000e+01 
0.0000000e+00 0.0000000e+00 1.4000000e+01 
0.0000000e+00 0.0000000e+00 1.4250000e+01 
0.0000000e+00 0.0000000e+00 1.4500000e+01 
0.0000000e+00 0.0000000e+00 1.4750000e+01 
0.0000000e+00 0.0000000e+00 1.5000000e+01 
0.0000000e+00 0.0000000e+00 1.5250000e+01 
0.0000000e+00 0.0000000e+00 1.5500000e+01 
0.0000000e+00 0.0000000e+00 1.5750000e+01 
0.0000000e+00 0.0000000e+00 1.6000000e+01 
0.0000000e+00 0.0000000e+00 1.6250000e+01 
0.0000000e+00 0.0000000e+00 1.6500000e+01 
0.0000000e+00 0.0000000e+00 1.6750000e+01 
0.0000000e+00 0.0000000e+00 1.7000000e+01 
0.0000000e+00 0.0000000e+00 1.7250000e+01 
0.0000000e+00 0.0000000e+00 1.7500000e+01 
0.0000000e+00 0.0000000e+00 1.7750000e+01 
0.0000000e+00 0.0000000e+00 1.8000000e+01 
6.0000000e+00 0.0000000e+00 0.0000000e+00 
6.0000000e+00 0.0000000e+00 2.5000000e-01 
6.0000000e+00 0.0000000e+00 5.0000000e-01 
6.0000000e+00 0.0000000e+00 7.5000000e-01 
6.0000000e+00 0.0000000e+00 1.0000000e+00 
6.0000000e+00 0.0000000e+00 1.2500000e+00 
6.0000000e+00 0.0000000e+00 1.5000000e+00 
6.0000000e+00 0.0000000e+00 1.7500000e+00 
6.0000000e+00 0.0000000e+00 2.0000000e+00 
6.0000000e+00 0.0000000e+00 2.2500000e+00 
6.0000000e+00 0.0000000e+00 2.5000000e+00 
6.0000000e+00 0.0000000e+00 2.7500000e+00 
6.0000000e+00 0.0000000e+00 3.0000000e+00 
6.0000000e+00 0.0000000e+00 3.2500000e+00 
6.0000000e+00 0.0000000e+00 3.5000000e+00 
6.0000000e+00 0.0000000e+00 3.7500000e+00 
6.0000000e+00 0.0000000e+00 4.0000000e+00 
6.0000000e+00 0.0000000e+00 4.2500000e+00 
6.0000000e+00 0.0000000e+00 4.5000000e+00 
6.0000000e+00 0.0000000e+00 4.7500000e+00 
6.0000000e+00 0.0000000e+00 5.0000000e+00 
6.0000000e+00 0.0000000e+00 5.2500000e+00 
6.0000000e+00 0.0000000e+00 5.5000000e+00 
6.0000000e+00 0.0000000e+00 5.7500000e+00 
6.0000000e+00 0.0000000e+00 6.0000000e+00 
6.0000000e+00 0.0000000e+00 6.2500000e+00 
6.0000000e+00 0.0000000e+00 6.5000000e+00 
6.0000000e+00 0.0000000e+00 6.7500000e+00 
6.0000000e+00 0.0000000e+00 7.0000000e+00 
6.0000000e+00 0.0000000e+00 7.2500000e+00 
6.0000000e+00 0.0000000e+00 7.5000000e+00 
6.0000000e+00 0.0000000e+00 7.7500000e+00 
6.0000000e+00 0.0000000e+00 8.0000000e+00 
6.0000000e+00 0.0000000e+00 8.2500000e+00 
6.0000000e+00 0.0000000e+00 8.5000000e+00 
6.0000000e+00 0.0000000e+00 8.7500000e+00 
6.0000000e+00 0.0000000e+00 9.0000000e+00 
6.0000000e+00 0.0000000e+00 9.2500000e+00 
6.0000000e+00 0.0000000e+00 9.5000000e+00 
6.0000000e+00 0.0000000e+00 9.7500000e+00 
6.0000000e+00 0.0000000e+00 1.0000000e+01 
6.0000000e+00 0.0000000e+00 1.0250000e+01 
6.0000000e+00 0.0000000e+00 1.0500000e+01 
6.0000000e+00 0.0000000e+00 1.0750000e+01 
6.0000000e+00 0.0000000e+00 1.1000000e+01 
6.0000000e+00 0.0000000e+00 1.1250000e+01 
6.0000000e+00 0.0000000e+00 1.1500000e+01 
6.0000000e+00 0.0000000e+00 1.1750000e+01 
6.0000000e+00 0.0000000e+00 1.2000000e+01 
6.0000000e+00 0.0000000e+00 1.2250000e+01 
6.0000000e+00 0.0000000e+00 1.2500000e+01 
6.0000000e+00 0.0000000e+00 1.2750000e+01 
6.0000000e+00 0.0000000e+00 1.3000000e+01 
6.0000000e+00 0.0000000e+00 1.3250000e+01 
6.0000000e+00 0.0000000e+00 1.3500000e+01 
6.0000000e+00 0.0000000e+00 1.3750000e+01 
6.0000000e+00 0.0000000e+00 1.4000000e+01 
6.0000000e+00 0.0000000e+00 1.4250000e+01 
6.0000000e+00 0.0000000e+00 1.4500000e+01 
6.0000000e+00 0.0000000e+00 1.4750000e+01 
6.0000000e+00 0.0000000e+00 1.5000000e+01 
6.0000000e+00 0.0000000e+00 1.5250000e+01 
6.0000000e+00 0.0000000e+00 1.5500000e+01 
6.0000000e+00 0.0000000e+00 1.5750000e+01 
6.0000000e+00 0.0000000e+00 1.6000000e+01 
6.0000000e+00 0.0000000e+00 1.6250000e+01 
6.0000000e+00 0.0000000e+00 1.6500000e+01 
6.0000000e+00 0.0000000e+00 1.6750000e+01 
6.0000000e+00 0.0000000e+00 1.7000000e+01 
6.0000000e+00 0.0000000e+00 1.7250000e+01 
6.0000000e+00 0.0000000e+00 1.7500000e+01 
6.0000000e+00 0.0000000e+00 1.7750000e+01 
6.0000000e+00 0.0000000e+00 1.8000000e+01 
5.0000000e-01 0.0000000e+00 3.0000000e+00 
1.0000000e+00 0.0000000e+00 3.0000000e+00 
1.5000000e+00 0.0000000e+00 3.0000000e+00 
2.0000000e+00 0.0000000e+00 3.0000000e+00 
2.5000000e+00 0.0000000e+00 3.0000000e+00 
3.0000000e+00 0.0000000e+00 3.0000000e+00 
3.5000000e+00 0.0000000e+00 3.0000000e+00 
4.0000000e+00 0.0000000e+00 3.0000000e+00 
4.5000000e+00 0.0000000e+00 3.0000000e+00 
5.0000000e+00 0.0000000e+00 3.0000000e+00 
5.5000000e+00 0.0000000e+00 3.0000000e+00 
5.0000000e-01 0.0000000e+00 6.0000000e+00 
1.0000000e+00 0.0000000e+00 6.0000000e+00 
1.5000000e+00 0.0000000e+00 6.0000000e+00 
2.0000000e+00 0.0000000e+00 6.0000000e+00 
2.5000000e+00 0.0000000e+00 6.0000000e+00 
3.0000000e+00 0.0000000e+00 6.0000000e+00 
3.5000000e+00 0.0000000e+00 6.0000000e+00 
4.0000000e+00 0.0000000e+00 6.0000000e+00 
4.5000000e+00 0.0000000e+00 6.0000000e+00 
5.0000000e+00 0.0000000e+00 6.0000000e+00 
5.5000000e+00 0.0000000e+00 6.0000000e+00 
5.0000000e-01 0.0000000e+00 9.0000000e+00 
1.0000000e+00 0.0000000e+00 9.0000000e+00 
1.5000000e+00 0.0000000e+00 9.0000000e+00 
2.0000000e+00 0.0000000e+00 9.0000000e+00 
2.5000000e+00 0.0000000e+00 9.0000000e+00 
3.0000000e+00 0.0000000e+00 9.0000000e+00 
3.5000000e+00 0.0000000e+00 9.0000000e+00 
4.0000000e+00 0.0000000e+00 9.0000000e+00 
4.5000000e+00 0.0000000e+00 9.0000000e+00 
5.0000000e+00 0.0000000e+00 9.0000000e+00 
5.5000000e+00 0.0000000e+00 9.0000000e+00 
5.0000000e-01 0.0000000e+00 1.2000000e+01 
1.0000000e+00 0.0000000e+00 1.2000000e+01 
1.5000000e+00 0.0000000e+00 1.2000000e+01 
2.0000000e+00 0.0000000e+00 1.2000000e+01 
2.5000000e+00 0.0000000e+00 1.2000000e+01 
3.0000000e+00 0.0000000e+00 1.2000000e+01 
3.5000000e+00 0.0000000e+00 1.2000000e+01 
4.0000000e+00 0.0000000e+00 1.2000000e+01 
4.5000000e+00 0.0000000e+00 1.2000000e+01 
5.0000000e+00 0.0000000e+00 1.2000000e+01 
5.5000000e+00 0.0000000e+00 1.2000000e+01 
5.0000000e-01 0.0000000e+00 1.5000000e+01 
1.0000000e+00 0.0000000e+00 1.5000000e+01 
1.5000000e+00 0.0000000e+00 1.5000000e+01 
2.0000000e+00 0.0000000e+00 1.5000000e+01 
2.5000000e+00 0.0000000e+00 1.5000000e+01 
3.0000000e+00 0.0000000e+00 1.5000000e+01 
3.5000000e+00 0.0000000e+00 1.5000000e+01 
4.0000000e+00 0.0000000e+00 1.5000000e+01 
4.5000000e+00 0.0000000e+00 1.5000000e+01 
5.0000000e+00 0.0000000e+00 1.5000000e+01 
5.5000000e+00 0.0000000e+00 1.5000000e+01 
5.0000000e-01 0.0000000e+00 1.8000000e+01 
1.0000000e+00 0.0000000e+00 1.8000000e+01 
1.5000000e+00 0.0000000e+00 1.8000000e+01 
2.0000000e+00 0.0000000e+00 1.8000000e+01 
2.5000000e+00 0.0000000e+00 1.8000000e+01 
3.0000000e+00 0.0000000e+00 1.8000000e+01 
3.5000000e+00 0.0000000e+00 1.8000000e+01 
4.0000000e+00 0.0000000e+00 1.8000000e+01 
4.5000000e+00 0.0000000e+00 1.8000000e+01 
5.0000000e+00 0.0000000e+00 1.8000000e+01 
5.5000000e+00 0.0000000e+00 1.8000000e+01 

CELLS 216 648
2 0 1
2 1 2
2 2 3
2 3 4
2 4 5
2 5 6
2 6 7
2 7 8
2 8 9
2 9 10
2 10 11
2 11 12
2 12 13
2 13 14
2 14 15
2 15 16
2 16 17
2 17 18
2 18 19
2 19 20
2 20 21
2 21 22
2 22 23
2 23 24
2 24 25
2 25 26
2 26 27
2 27 28
2 28 29
2 29 30
2 30 31
2 31 32
2 32 33
2 33 34
2 34 35
2 35 36
2 36 37
2 37 38
2 38 39
2 39 40
2 40 41
2 41 42
2 42 43
2 43 44
2 44 45
2 45 46
2 46 47
2 47 48
2 48 49
2 49 50
2 50 51
2 51 52
2 52 53
2 53 54
2 54 55
2 55 56
2 56 57
2 57 58
2 58 59
2 59 60
2 60 61
2 61 62
2 62 63
2 63 64
2 64 65
2 65 66
2 66 67
2 67 68
2 68 69
2 69 70
2 70 71
2 71 72
2 73 74
2 74 75
2 75 76
2 76 77
2 77 78
2 78 79
2 79 80
2 80 81
2 81 82
2 82 83
2 83 84
2 84 85
2 85 86
2 86 87
2 87 88
2 88 89
2 89 90
2 90 91
2 91 92
2 92 93
2 93 94
2 94 95
2 95 96
2 96 97
2 97 98
2 98 99
2 99 100
2 100 101
2 101 102
2 102 103
2 103 104
2 104 105
2 105 106
2 106 107
2 107 108
2 108 109
2 109 110
2 110 111
2 111 112
2 112 113
2 113 114
2 114 115
2 115 116
2 116 117
2 117 118
2 118 119
2 119 120
2 120 121
2 121 122
2 122 123
2 123 124
2 124 125
2 125 126
2 126 127
2 127 128
2 128 129
2 129 130
2 130 131
2 131 132
2 132 133
2 133 134
2 134 135
2 135 136
2 136 137
2 137 138
2 138 139
2 139 140
2 140 141
2 141 142
2 142 143
2 143 144
2 144 145
2 12 146
2 146 147
2 147 148
2 148 149
2 149 150
2 150 151
2 151 152
2 152 153
2 153 154
2 154 155
2 155 156
2 156 85
2 24 157
2 157 158
2 158 159
2 159 160
2 160 161
2 161 162
2 162 163
2 163 164
2 164 165
2 165 166
2 166 167
2 167 97
2 36 168
2 168 169
2 169 170
2 170 171
2 171 172
2 172 173
2 173 174
2 174 175
2 175 176
2 176 177
2 177 178
2 178 109
2 48 179
2 179 180
2 180 181
2 181 182
2 182 183
2 183 184
2 184 185
2 185 186
2 186 187
2 187 188
2 188 189
2 189 121
2 60 190
2 190 191
2 191 192
2 192 193
2 193 194
2 194 195
2 195 196
2 196 197
2 197 198
2 198 199
2 199 200
2 200 133
2 72 201
2 201 202
2 202 203
2 203 204
2 204 205
2 205 206
2 206 207
2 207 208
2 208 209
2 209 210
2 210 211
2 211 145

CELL_TYPES 216
3
3
3
3
3
3
3
3
3
3
3
3
3
3
3
3
3
3
3
3
3
3
3
3
3
3
3
3
3
3
3
3
3
3
3
3
3
3
3
3
3
3
3
3
3
3
3
3
3
3
3
3
3
3
3
3
3
3
3
3
3
3
3
3
3
3
3
3
3
3
3
3
3
3
3
3
3
3
3
3
3
3
3
3
3
3
3
3
3
3
3
3
3
3
3
3
3
3
3
3
3
3
3
3
3
3
3
3
3
3
3
3
3
3
3
3
3
3
3
3
3
3
3
3
3
3
3
3
3
3
3
3
3
3
3
3
3
3
3
3
3
3
3
3
3
3
3
3
3
3
3
3
3
3
3
3
3
3
3
3
3
3
3
3
3
3
3
3
3
3
3
3
3
3
3
3
3
3
3
3
3
3
3
3
3
3
3
3
3
3
3
3
3
3
3
3
3
3
3
3
3
3
3
3
3
3
3
3
3
3
3
3
3
3
3
3
POINT_DATA 212
FIELD FieldData 3
ADJOINT_DISPLACEMENT 3 212  float
0.0000000e+00 0.0000000e+00 0.0000000e+00 
-9.8390435e-04 0.0000000e+00 -4.4660469e-16 
-1.9867958e-03 0.0000000e+00 -8.9320937e-16 
-3.0276617e-03 0.0000000e+00 -1.3398142e-15 
-4.1254889e-03 0.0000000e+00 -1.7864187e-15 
-5.2992650e-03 0.0000000e+00 -2.2330234e-15 
-6.5679769e-03 0.0000000e+00 -2.6796283e-15 
-7.9506123e-03 0.0000000e+00 -3.1262330e-15 
-9.4661573e-03 0.0000000e+00 -3.5728375e-15 
-1.1133600e-02 0.0000000e+00 -4.0194424e-15 
-1.2971927e-02 0.0000000e+00 -4.4660469e-15 
-1.5000126e-02 0.0000000e+00 -4.9126518e-15 
-1.7237185e-02 0.0000000e+00 -5.3592567e-15 
-1.9897437e-02 0.0000000e+00 4.7873968e-08 
-2.3106571e-02 0.0000000e+00 9.5747943e-08 
-2.6750600e-02 0.0000000e+00 1.4362192e-07 
-3.0715540e-02 0.0000000e+00 1.9149589e-07 
-3.4887403e-02 0.0000000e+00 2.3936985e-07 
-3.9152209e-02 0.0000000e+00 2.8724384e-07 
-4.3395963e-02 0.0000000e+00 3.3511782e-07 
-4.7504686e-02 0.0000000e+00 3.8299180e-07 
-5.1364388e-02 0.0000000e+00 4.3086575e-07 
-5.4861091e-02 0.0000000e+00 4.7873976e-07 
-5.7880800e-02 0.0000000e+00 5.2661369e-07 
-6.0309533e-02 0.0000000e+00 5.7448767e-07 
-6.2700704e-02 0.0000000e+00 8.1385917e-07 
-6.6013157e-02 0.0000000e+00 1.0532307e-06 
-7.0741042e-02 0.0000000e+00 1.2926021e-06 
-7.7378497e-02 0.0000000e+00 1.5319736e-06 
-8.6419672e-02 0.0000000e+00 1.7713451e-06 
-9.8358706e-02 0.0000000e+00 2.0107166e-06 
-1.1368976e-01 0.0000000e+00 2.2500878e-06 
-1.3290697e-01 0.0000000e+00 2.4894593e-06 
-1.5650448e-01 0.0000000e+00 2.7288309e-06 
-1.8497644e-01 0.0000000e+00 2.9682024e-06 
-2.1881701e-01 0.0000000e+00 3.2075739e-06 
-2.5852031e-01 0.0000000e+00 3.4469454e-06 
-2.9822126e-01 0.0000000e+00 3.2070477e-06 
-3.3205485e-01 0.0000000e+00 2.9671503e-06 
-3.6051548e-01 0.0000000e+00 2.7272526e-06 
-3.8409749e-01 0.0000000e+00 2.4873552e-06 
-4.0329525e-01 0.0000000e+00 2.2474576e-06 
-4.1860309e-01 0.0000000e+00 2.0075599e-06 
-4.3051544e-01 0.0000000e+00 1.7676625e-06 
-4.3952665e-01 0.0000000e+00 1.5277650e-06 
-4.4613102e-01 0.0000000e+00 1.2878673e-06 
-4.5082298e-01 0.0000000e+00 1.0479698e-06 
-4.5409688e-01 0.0000000e+00 8.0807234e-07 
-4.5644706e-01 0.0000000e+00 5.6817476e-07 
-4.5882672e-01 0.0000000e+00 5.1819649e-07 
-4.6178299e-01 0.0000000e+00 4.6821819e-07 
-4.6520111e-01 0.0000000e+00 4.1823989e-07 
-4.6896636e-01 0.0000000e+00 3.6826160e-07 
-4.7296399e-01 0.0000000e+00 3.1828330e-07 
-4.7707921e-01 0.0000000e+00 2.6830500e-07 
-4.8119730e-01 0.0000000e+00 2.1832672e-07 
-4.8520353e-01 0.0000000e+00 1.6834842e-07 
-4.8898315e-01 0.0000000e+00 1.1837012e-07 
-4.9242139e-01 0.0000000e+00 6.8391834e-08 
-4.9540353e-01 0.0000000e+00 1.8413537e-08 
-4.9781480e-01 0.0000000e+00 -3.1564756e-08 
-4.9975026e-01 0.0000000e+00 -4.1560348e-08 
-5.0139618e-01 0.0000000e+00 -5.1555940e-08 
-5.0277478e-01 0.0000000e+00 -6.1551532e-08 
-5.0390822e-01 0.0000000e+00 -7.1547127e-08 
-5.0481868e-01 0.0000000e+00 -8.1542716e-08 
-5.0552845e-01 0.0000000e+00 -9.1538311e-08 
-5.0605965e-01 0.0000000e+00 -1.0153390e-07 
-5.0643444e-01 0.0000000e+00 -1.1152949e-07 
-5.0667512e-01 0.0000000e+00 -1.2152509e-07 
-5.0680381e-01 0.0000000e+00 -1.3152068e-07 
-5.0684273e-01 0.0000000e+00 -1.4151627e-07 
-5.0681406e-01 0.0000000e+00 -1.5151186e-07 
0.0000000e+00 0.0000000e+00 0.0000000e+00 
-1.8885342e-03 0.0000000e+00 4.2383202e-16 
-3.7580812e-03 0.0000000e+00 8.4766568e-16 
-5.5896537e-03 0.0000000e+00 1.2714998e-15 
-7.3642652e-03 0.0000000e+00 1.6953352e-15 
-9.0629272e-03 0.0000000e+00 2.1191720e-15 
-1.0666654e-02 0.0000000e+00 2.5430072e-15 
-1.2156458e-02 0.0000000e+00 2.9668400e-15 
-1.3513351e-02 0.0000000e+00 3.3906759e-15 
-1.4718346e-02 0.0000000e+00 3.8145112e-15 
-1.5752457e-02 0.0000000e+00 4.2383470e-15 
-1.6596697e-02 0.0000000e+00 4.6621837e-15 
-1.7232077e-02 0.0000000e+00 5.0860208e-15 
-1.7803319e-02 0.0000000e+00 -4.7873968e-08 
-1.8543787e-02 0.0000000e+00 -9.5747943e-08 
-1.9567469e-02 0.0000000e+00 -1.4362192e-07 
-2.0988353e-02 0.0000000e+00 -1.9149589e-07 
-2.2920420e-02 0.0000000e+00 -2.3936985e-07 
-2.5477657e-02 0.0000000e+00 -2.8724384e-07 
-2.8774053e-02 0.0000000e+00 -3.3511782e-07 
-3.2923590e-02 0.0000000e+00 -3.8299180e-07 
-3.8040258e-02 0.0000000e+00 -4.3086575e-07 
-4.4238038e-02 0.0000000e+00 -4.7873976e-07 
-5.1630918e-02 0.0000000e+00 -5.2661369e-07 
-6.0332883e-02 0.0000000e+00 -5.7448767e-07 
-7.1226746e-02 0.0000000e+00 -8.1385917e-07 
-8.4789909e-02 0.0000000e+00 -1.0532307e-06 
-1.0052821e-01 0.0000000e+00 -1.2926021e-06 
-1.1794751e-01 0.0000000e+00 -1.5319736e-06 
-1.3655366e-01 0.0000000e+00 -1.7713451e-06 
-1.5585253e-01 0.0000000e+00 -2.0107166e-06 
-1.7534995e-01 0.0000000e+00 -2.2500881e-06 
-1.9455178e-01 0.0000000e+00 -2.4894593e-06 
-2.1296388e-01 0.0000000e+00 -2.7288309e-06 
-2.3009211e-01 0.0000000e+00 -2.9682024e-06 
-2.4544230e-01 0.0000000e+00 -3.2075739e-06 
-2.5852033e-01 0.0000000e+00 -3.4469454e-06 
-2.7159679e-01 0.0000000e+00 -3.2070477e-06 
-2.8694209e-01 0.0000000e+00 -2.9671503e-06 
-3.0406195e-01 0.0000000e+00 -2.7272526e-06 
-3.2246193e-01 0.0000000e+00 -2.4873552e-06 
-3.4164771e-01 0.0000000e+00 -2.2474576e-06 
-3.6112490e-01 0.0000000e+00 -2.0075599e-06 
-3.8039917e-01 0.0000000e+00 -1.7676625e-06 
-3.9897615e-01 0.0000000e+00 -1.5277650e-06 
-4.1636142e-01 0.0000000e+00 -1.2878673e-06 
-4.3206069e-01 0.0000000e+00 -1.0479698e-06 
-4.4557956e-01 0.0000000e+00 -8.0807234e-07 
-4.5642367e-01 0.0000000e+00 -5.6817476e-07 
-4.6506423e-01 0.0000000e+00 -5.1819649e-07 
-4.7237849e-01 0.0000000e+00 -4.6821819e-07 
-4.7848123e-01 0.0000000e+00 -4.1823989e-07 
-4.8348719e-01 0.0000000e+00 -3.6826160e-07 
-4.8751113e-01 0.0000000e+00 -3.1828330e-07 
-4.9066773e-01 0.0000000e+00 -2.6830500e-07 
-4.9307182e-01 0.0000000e+00 -2.1832672e-07 
-4.9483809e-01 0.0000000e+00 -1.6834842e-07 
-4.9608129e-01 0.0000000e+00 -1.1837012e-07 
-4.9691620e-01 0.0000000e+00 -6.8391834e-08 
-4.9745753e-01 0.0000000e+00 -1.8413539e-08 
-4.9782008e-01 0.0000000e+00 3.1564756e-08 
-4.9820864e-01 0.0000000e+00 4.1560348e-08 
-4.9873680e-01 0.0000000e+00 5.1555940e-08 
-4.9938235e-01 0.0000000e+00 6.1551532e-08 
-5.0012308e-01 0.0000000e+00 7.1547127e-08 
-5.0093687e-01 0.0000000e+00 8.1542716e-08 
-5.0180143e-01 0.0000000e+00 9.1538311e-08 
-5.0269467e-01 0.0000000e+00 1.0153390e-07 
-5.0359428e-01 0.0000000e+00 1.1152949e-07 
-5.0447816e-01 0.0000000e+00 1.2152509e-07 
-5.0532407e-01 0.0000000e+00 1.3152068e-07 
-5.0610983e-01 0.0000000e+00 1.4151627e-07 
-5.0681323e-01 0.0000000e+00 1.5151186e-07 
-1.7236758e-02 0.0000000e+00 3.8654853e-03 
-1.7236333e-02 0.0000000e+00 6.2302556e-03 
-1.7235907e-02 0.0000000e+00 7.3336810e-03 
-1.7235482e-02 0.0000000e+00 7.4151303e-03 
-1.7235056e-02 0.0000000e+00 6.7139748e-03 
-1.7234631e-02 0.0000000e+00 5.4695834e-03 
-1.7234206e-02 0.0000000e+00 3.9213262e-03 
-1.7233780e-02 0.0000000e+00 2.3085731e-03 
-1.7233355e-02 0.0000000e+00 8.7069423e-04 
-1.7232928e-02 0.0000000e+00 -1.5294091e-04 
-1.7232504e-02 0.0000000e+00 -5.2296225e-04 
-6.0311478e-02 0.0000000e+00 2.0864643e-03 
-6.0313422e-02 0.0000000e+00 6.0145906e-04 
-6.0315371e-02 0.0000000e+00 -3.4969538e-03 
-6.0317315e-02 0.0000000e+00 -9.2512863e-03 
-6.0319263e-02 0.0000000e+00 -1.5704053e-02 
-6.0321208e-02 0.0000000e+00 -2.1897763e-02 
-6.0323153e-02 0.0000000e+00 -2.6874930e-02 
-6.0325101e-02 0.0000000e+00 -2.9678069e-02 
-6.0327046e-02 0.0000000e+00 -2.9349690e-02 
-6.0328990e-02 0.0000000e+00 -2.4932306e-02 
-6.0330939e-02 0.0000000e+00 -1.5468430e-02 
-2.5852033e-01 0.0000000e+00 1.1064003e-01 
-2.5852033e-01 0.0000000e+00 2.6975465e-01 
-2.5852033e-01 0.0000000e+00 4.7495094e-01 
-2.5852033e-01 0.0000000e+00 7.2383261e-01 
-2.5852033e-01 0.0000000e+00 5.1400322e-01 
-2.5852033e-01 0.0000000e+00 3.4306651e-01 
-2.5852033e-01 0.0000000e+00 2.0862611e-01 
-2.5852033e-01 0.0000000e+00 1.0828565e-01 
-2.5852033e-01 0.0000000e+00 3.9648820e-02 
-2.5852033e-01 0.0000000e+00 3.1925348e-04 
-2.5852033e-01 0.0000000e+00 -1.2099386e-02 
-4.5644510e-01 0.0000000e+00 2.0236808e-03 
-4.5644316e-01 0.0000000e+00 5.1361677e-04 
-4.5644119e-01 0.0000000e+00 -3.5800277e-03 
-4.5643926e-01 0.0000000e+00 -9.3076564e-03 
-4.5643732e-01 0.0000000e+00 -1.5719673e-02 
-4.5643535e-01 0.0000000e+00 -2.1866482e-02 
-4.5643342e-01 0.0000000e+00 -2.6798485e-02 
-4.5643145e-01 0.0000000e+00 -2.9566089e-02 
-4.5642951e-01 0.0000000e+00 -2.9219694e-02 
-4.5642757e-01 0.0000000e+00 -2.4809707e-02 
-4.5642561e-01 0.0000000e+00 -1.5386531e-02 
-4.9781525e-01 0.0000000e+00 3.4607337e-03 
-4.9781570e-01 0.0000000e+00 5.6258915e-03 
-4.9781612e-01 0.0000000e+00 6.6953553e-03 
-4.9781656e-01 0.0000000e+00 6.8690386e-03 
-4.9781701e-01 0.0000000e+00 6.3468553e-03 
-4.9781746e-01 0.0000000e+00 5.3287186e-03 
-4.9781787e-01 0.0000000e+00 4.0145414e-03 
-4.9781832e-01 0.0000000e+00 2.6042382e-03 
-4.9781877e-01 0.0000000e+00 1.2977222e-03 
-4.9781919e-01 0.0000000e+00 2.9490667e-04 
-4.9781963e-01 0.0000000e+00 -2.0429470e-04 
-5.0681400e-01 0.0000000e+00 -1.9272260e-04 
-5.0681388e-01 0.0000000e+00 -5.1686936e-04 
-5.0681382e-01 0.0000000e+00 -9.2261384e-04 
-5.0681376e-01 0.0000000e+00 -1.3599781e-03 
-5.0681370e-01 0.0000000e+00 -1.7789842e-03 
-5.0681365e-01 0.0000000e+00 -2.1296542e-03 
-5.0681353e-01 0.0000000e+00 -2.3620098e-03 
-5.0681347e-01 0.0000000e+00 -2.4260737e-03 
-5.0681341e-01 0.0000000e+00 -2.2718674e-03 
-5.0681335e-01 0.0000000e+00 -1.8494129e-03 
-5.0681329e-01 0.0000000e+00 -1.1087327e-03 
ADJOINT_ROTATION 3 212  float
0.0000000e+00 -3.9229589e-03 0.0000000e+00 
0.0000000e+00 -3.9609335e-03 0.0000000e+00 
0.0000000e+00 -4.0748566e-03 0.0000000e+00 
0.0000000e+00 -4.2647282e-03 0.0000000e+00 
0.0000000e+00 -4.5305486e-03 0.0000000e+00 
0.0000000e+00 -4.8723179e-03 0.0000000e+00 
0.0000000e+00 -5.2900356e-03 0.0000000e+00 
0.0000000e+00 -5.7837022e-03 0.0000000e+00 
0.0000000e+00 -6.3533178e-03 0.0000000e+00 
0.0000000e+00 -6.9988817e-03 0.0000000e+00 
0.0000000e+00 -7.7203945e-03 0.0000000e+00 
0.0000000e+00 -8.5178558e-03 0.0000000e+00 
0.0000000e+00 -9.3912659e-03 0.0000000e+00 
0.0000000e+00 -1.1814764e-02 0.0000000e+00 
0.0000000e+00 -1.3782319e-02 0.0000000e+00 
0.0000000e+00 -1.5293931e-02 0.0000000e+00 
0.0000000e+00 -1.6349599e-02 0.0000000e+00 
0.0000000e+00 -1.6949326e-02 0.0000000e+00 
0.0000000e+00 -1.7093107e-02 0.0000000e+00 
0.0000000e+00 -1.6780946e-02 0.0000000e+00 
0.0000000e+00 -1.6012844e-02 0.0000000e+00 
0.0000000e+00 -1.4788797e-02 0.0000000e+00 
0.0000000e+00 -1.3108808e-02 0.0000000e+00 
0.0000000e+00 -1.0972875e-02 0.0000000e+00 
0.0000000e+00 -8.3809998e-03 0.0000000e+00 
0.0000000e+00 -1.1077828e-02 0.0000000e+00 
0.0000000e+00 -1.5751241e-02 0.0000000e+00 
0.0000000e+00 -2.2401240e-02 0.0000000e+00 
0.0000000e+00 -3.1027824e-02 0.0000000e+00 
0.0000000e+00 -4.1630995e-02 0.0000000e+00 
0.0000000e+00 -5.4210749e-02 0.0000000e+00 
0.0000000e+00 -6.8767093e-02 0.0000000e+00 
0.0000000e+00 -8.5300013e-02 0.0000000e+00 
0.0000000e+00 -1.0380953e-01 0.0000000e+00 
0.0000000e+00 -1.2429563e-01 0.0000000e+00 
0.0000000e+00 -1.4675830e-01 0.0000000e+00 
0.0000000e+00 -1.7119758e-01 0.0000000e+00 
0.0000000e+00 -1.4673948e-01 0.0000000e+00 
0.0000000e+00 -1.2425885e-01 0.0000000e+00 
0.0000000e+00 -1.0375568e-01 0.0000000e+00 
0.0000000e+00 -8.5229948e-02 0.0000000e+00 
0.0000000e+00 -6.8681672e-02 0.0000000e+00 
0.0000000e+00 -5.4110855e-02 0.0000000e+00 
0.0000000e+00 -4.1517492e-02 0.0000000e+00 
0.0000000e+00 -3.0901579e-02 0.0000000e+00 
0.0000000e+00 -2.2263121e-02 0.0000000e+00 
0.0000000e+00 -1.5602115e-02 0.0000000e+00 
0.0000000e+00 -1.0918564e-02 0.0000000e+00 
0.0000000e+00 -8.2124658e-03 0.0000000e+00 
0.0000000e+00 -1.0748376e-02 0.0000000e+00 
0.0000000e+00 -1.2825302e-02 0.0000000e+00 
0.0000000e+00 -1.4443243e-02 0.0000000e+00 
0.0000000e+00 -1.5602199e-02 0.0000000e+00 
0.0000000e+00 -1.6302172e-02 0.0000000e+00 
0.0000000e+00 -1.6543159e-02 0.0000000e+00 
0.0000000e+00 -1.6325163e-02 0.0000000e+00 
0.0000000e+00 -1.5648182e-02 0.0000000e+00 
0.0000000e+00 -1.4512217e-02 0.0000000e+00 
0.0000000e+00 -1.2917266e-02 0.0000000e+00 
0.0000000e+00 -1.0863332e-02 0.0000000e+00 
0.0000000e+00 -8.3504133e-03 0.0000000e+00 
0.0000000e+00 -7.1479129e-03 0.0000000e+00 
0.0000000e+00 -6.0341898e-03 0.0000000e+00 
0.0000000e+00 -5.0092451e-03 0.0000000e+00 
0.0000000e+00 -4.0730783e-03 0.0000000e+00 
0.0000000e+00 -3.2256893e-03 0.0000000e+00 
0.0000000e+00 -2.4670784e-03 0.0000000e+00 
0.0000000e+00 -1.7972457e-03 0.0000000e+00 
0.0000000e+00 -1.2161910e-03 0.0000000e+00 
0.0000000e+00 -7.2391424e-04 0.0000000e+00 
0.0000000e+00 -3.2041551e-04 0.0000000e+00 
0.0000000e+00 -5.6948270e-06 0.0000000e+00 
0.0000000e+00 2.2024784e-04 0.0000000e+00 
0.0000000e+00 -7.5667948e-03 0.0000000e+00 
0.0000000e+00 -7.5288205e-03 0.0000000e+00 
0.0000000e+00 -7.4148974e-03 0.0000000e+00 
0.0000000e+00 -7.2250259e-03 0.0000000e+00 
0.0000000e+00 -6.9592050e-03 0.0000000e+00 
0.0000000e+00 -6.6174362e-03 0.0000000e+00 
0.0000000e+00 -6.1997180e-03 0.0000000e+00 
0.0000000e+00 -5.7060514e-03 0.0000000e+00 
0.0000000e+00 -5.1364363e-03 0.0000000e+00 
0.0000000e+00 -4.4908724e-03 0.0000000e+00 
0.0000000e+00 -3.7693596e-03 0.0000000e+00 
0.0000000e+00 -2.9718981e-03 0.0000000e+00 
0.0000000e+00 -2.0984882e-03 0.0000000e+00 
0.0000000e+00 -2.5474287e-03 0.0000000e+00 
0.0000000e+00 -3.4523122e-03 0.0000000e+00 
0.0000000e+00 -4.8131389e-03 0.0000000e+00 
0.0000000e+00 -6.6299085e-03 0.0000000e+00 
0.0000000e+00 -8.9026215e-03 0.0000000e+00 
0.0000000e+00 -1.1631277e-02 0.0000000e+00 
0.0000000e+00 -1.4815876e-02 0.0000000e+00 
0.0000000e+00 -1.8456418e-02 0.0000000e+00 
0.0000000e+00 -2.2552904e-02 0.0000000e+00 
0.0000000e+00 -2.7105331e-02 0.0000000e+00 
0.0000000e+00 -3.2113701e-02 0.0000000e+00 
0.0000000e+00 -3.7578017e-02 0.0000000e+00 
0.0000000e+00 -4.9243476e-02 0.0000000e+00 
0.0000000e+00 -5.8932349e-02 0.0000000e+00 
0.0000000e+00 -6.6644639e-02 0.0000000e+00 
0.0000000e+00 -7.2380342e-02 0.0000000e+00 
0.0000000e+00 -7.6139465e-02 0.0000000e+00 
0.0000000e+00 -7.7921994e-02 0.0000000e+00 
0.0000000e+00 -7.7727944e-02 0.0000000e+00 
0.0000000e+00 -7.5557306e-02 0.0000000e+00 
0.0000000e+00 -7.1410082e-02 0.0000000e+00 
0.0000000e+00 -6.5286271e-02 0.0000000e+00 
0.0000000e+00 -5.7185877e-02 0.0000000e+00 
0.0000000e+00 -4.7108896e-02 0.0000000e+00 
0.0000000e+00 -5.7173129e-02 0.0000000e+00 
0.0000000e+00 -6.5259911e-02 0.0000000e+00 
0.0000000e+00 -7.1369238e-02 0.0000000e+00 
0.0000000e+00 -7.5501114e-02 0.0000000e+00 
0.0000000e+00 -7.7655531e-02 0.0000000e+00 
0.0000000e+00 -7.7832498e-02 0.0000000e+00 
0.0000000e+00 -7.6032013e-02 0.0000000e+00 
0.0000000e+00 -7.2254077e-02 0.0000000e+00 
0.0000000e+00 -6.6498682e-02 0.0000000e+00 
0.0000000e+00 -5.8765832e-02 0.0000000e+00 
0.0000000e+00 -4.9055532e-02 0.0000000e+00 
0.0000000e+00 -3.7367776e-02 0.0000000e+00 
0.0000000e+00 -3.1833168e-02 0.0000000e+00 
0.0000000e+00 -2.6757544e-02 0.0000000e+00 
0.0000000e+00 -2.2140905e-02 0.0000000e+00 
0.0000000e+00 -1.7983250e-02 0.0000000e+00 
0.0000000e+00 -1.4284581e-02 0.0000000e+00 
0.0000000e+00 -1.1044896e-02 0.0000000e+00 
0.0000000e+00 -8.2641952e-03 0.0000000e+00 
0.0000000e+00 -5.9424783e-03 0.0000000e+00 
0.0000000e+00 -4.0797461e-03 0.0000000e+00 
0.0000000e+00 -2.6759983e-03 0.0000000e+00 
0.0000000e+00 -1.7312348e-03 0.0000000e+00 
0.0000000e+00 -1.2454558e-03 0.0000000e+00 
0.0000000e+00 -1.8482213e-03 0.0000000e+00 
0.0000000e+00 -2.3622087e-03 0.0000000e+00 
0.0000000e+00 -2.7874180e-03 0.0000000e+00 
0.0000000e+00 -3.1238492e-03 0.0000000e+00 
0.0000000e+00 -3.3715025e-03 0.0000000e+00 
0.0000000e+00 -3.5303778e-03 0.0000000e+00 
0.0000000e+00 -3.6004751e-03 0.0000000e+00 
0.0000000e+00 -3.5817942e-03 0.0000000e+00 
0.0000000e+00 -3.4743354e-03 0.0000000e+00 
0.0000000e+00 -3.2780988e-03 0.0000000e+00 
0.0000000e+00 -2.9930838e-03 0.0000000e+00 
0.0000000e+00 -2.6192910e-03 0.0000000e+00 
0.0000000e+00 -6.1504659e-03 0.0000000e+00 
0.0000000e+00 -3.3884053e-03 0.0000000e+00 
0.0000000e+00 -1.1050848e-03 0.0000000e+00 
0.0000000e+00 6.9949601e-04 0.0000000e+00 
0.0000000e+00 2.0253372e-03 0.0000000e+00 
0.0000000e+00 2.8724384e-03 0.0000000e+00 
0.0000000e+00 3.2408000e-03 0.0000000e+00 
0.0000000e+00 3.1304220e-03 0.0000000e+00 
0.0000000e+00 2.5413041e-03 0.0000000e+00 
0.0000000e+00 1.4734464e-03 0.0000000e+00 
0.0000000e+00 -7.3150943e-05 0.0000000e+00 
0.0000000e+00 -2.8172208e-04 0.0000000e+00 
0.0000000e+00 5.9025805e-03 0.0000000e+00 
0.0000000e+00 1.0171908e-02 0.0000000e+00 
0.0000000e+00 1.2526261e-02 0.0000000e+00 
0.0000000e+00 1.2965638e-02 0.0000000e+00 
0.0000000e+00 1.1490041e-02 0.0000000e+00 
0.0000000e+00 8.0994694e-03 0.0000000e+00 
0.0000000e+00 2.7939219e-03 0.0000000e+00 
0.0000000e+00 -4.4266004e-03 0.0000000e+00 
0.0000000e+00 -1.3562097e-02 0.0000000e+00 
0.0000000e+00 -2.4612568e-02 0.0000000e+00 
0.0000000e+00 -2.7054998e-01 0.0000000e+00 
0.0000000e+00 -3.6510971e-01 0.0000000e+00 
0.0000000e+00 -4.5487672e-01 0.0000000e+00 
0.0000000e+00 -5.3985107e-01 0.0000000e+00 
0.0000000e+00 3.7996730e-01 0.0000000e+00 
0.0000000e+00 3.0457833e-01 0.0000000e+00 
0.0000000e+00 2.3398207e-01 0.0000000e+00 
0.0000000e+00 1.6817850e-01 0.0000000e+00 
0.0000000e+00 1.0716762e-01 0.0000000e+00 
0.0000000e+00 5.0949425e-02 0.0000000e+00 
0.0000000e+00 -4.7608124e-04 0.0000000e+00 
0.0000000e+00 -1.9651651e-04 0.0000000e+00 
0.0000000e+00 5.9202407e-03 0.0000000e+00 
0.0000000e+00 1.0137806e-02 0.0000000e+00 
0.0000000e+00 1.2456178e-02 0.0000000e+00 
0.0000000e+00 1.2875358e-02 0.0000000e+00 
0.0000000e+00 1.1395345e-02 0.0000000e+00 
0.0000000e+00 8.0161393e-03 0.0000000e+00 
0.0000000e+00 2.7377412e-03 0.0000000e+00 
0.0000000e+00 -4.4398489e-03 0.0000000e+00 
0.0000000e+00 -1.3516632e-02 0.0000000e+00 
0.0000000e+00 -2.4492607e-02 0.0000000e+00 
0.0000000e+00 -5.5592852e-03 0.0000000e+00 
0.0000000e+00 -3.1679838e-03 0.0000000e+00 
0.0000000e+00 -1.1765094e-03 0.0000000e+00 
0.0000000e+00 4.1513791e-04 0.0000000e+00 
0.0000000e+00 1.6069582e-03 0.0000000e+00 
0.0000000e+00 2.3989517e-03 0.0000000e+00 
0.0000000e+00 2.7911179e-03 0.0000000e+00 
0.0000000e+00 2.7834573e-03 0.0000000e+00 
0.0000000e+00 2.3759694e-03 0.0000000e+00 
0.0000000e+00 1.5686547e-03 0.0000000e+00 
0.0000000e+00 3.6151294e-04 0.0000000e+00 
0.0000000e+00 5.3337717e-04 0.0000000e+00 