# vtk DataFile Version 4.0
vtk output
ASCII
DATASET UNSTRUCTURED_GRID
POINTS 212 float
0.0000000e+00 0.0000000e+00 0.0000000e+00 
0.0000000e+00 0.0000000e+00 2.5000000e-01 
0.0000000e+00 0.0000000e+00 5.0000000e-01 
0.0000000e+00 0.0000000e+00 7.5000000e-01 
0.0000000e+00 0.0000000e+00 1.0000000e+00 
0.0000000e+00 0.0000000e+00 1.2500000e+00 
0.0000000e+00 0.0000000e+00 1.5000000e+00 
0.0000000e+00 0.0000000e+00 1.7500000e+00 
0.0000000e+00 0.0000000e+00 2.0000000e+00 
0.0000000e+00 0.0000000e+00 2.2500000e+00 
0.0000000e+00 0.0000000e+00 2.5000000e+00 
0.0000000e+00 0.0000000e+00 2.7500000e+00 
0.0000000e+00 0.0000000e+00 3.0000000e+00 
0.0000000e+00 0.0000000e+00 3.2500000e+00 
0.0000000e+00 0.0000000e+00 3.5000000e+00 
0.0000000e+00 0.0000000e+00 3.7500000e+00 
0.0000000e+00 0.0000000e+00 4.0000000e+00 
0.0000000e+00 0.0000000e+00 4.2500000e+00 
0.0000000e+00 0.0000000e+00 4.5000000e+00 
0.0000000e+00 0.0000000e+00 4.7500000e+00 
0.0000000e+00 0.0000000e+00 5.0000000e+00 
0.0000000e+00 0.0000000e+00 5.2500000e+00 
0.0000000e+00 0.0000000e+00 5.5000000e+00 
0.0000000e+00 0.0000000e+00 5.7500000e+00 
0.0000000e+00 0.0000000e+00 6.0000000e+00 
0.0000000e+00 0.0000000e+00 6.2500000e+00 
0.0000000e+00 0.0000000e+00 6.5000000e+00 
0.0000000e+00 0.0000000e+00 6.7500000e+00 
0.0000000e+00 0.0000000e+00 7.0000000e+00 
0.0000000e+00 0.0000000e+00 7.2500000e+00 
0.0000000e+00 0.0000000e+00 7.5000000e+00 
0.0000000e+00 0.0000000e+00 7.7500000e+00 
0.0000000e+00 0.0000000e+00 8.0000000e+00 
0.0000000e+00 0.0000000e+00 8.2500000e+00 
0.0000000e+00 0.0000000e+00 8.5000000e+00 
0.0000000e+00 0.0000000e+00 8.7500000e+00 
0.0000000e+00 0.0000000e+00 9.0000000e+00 
0.0000000e+00 0.0000000e+00 9.2500000e+00 
0.0000000e+00 0.0000000e+00 9.5000000e+00 
0.0000000e+00 0.0000000e+00 9.7500000e+00 
0.0000000e+00 0.0000000e+00 1.0000000e+01 
0.0000000e+00 0.0000000e+00 1.0250000e+01 
0.0000000e+00 0.0000000e+00 1.0500000e+01 
0.0000000e+00 0.0000000e+00 1.0750000e+01 
0.0000000e+00 0.0000000e+00 1.1000000e+01 
0.0000000e+00 0.0000000e+00 1.1250000e+01 
0.0000000e+00 0.0000000e+00 1.1500000e+01 
0.0000000e+00 0.0000000e+00 1.1750000e+01 
0.0000000e+00 0.0000000e+00 1.2000000e+01 
0.0000000e+00 0.0000000e+00 1.2250000e+01 
0.0000000e+00 0.0000000e+00 1.2500000e+01 
0.0000000e+00 0.0000000e+00 1.2750000e+01 
0.0000000e+00 0.0000000e+00 1.3000000e+01 
0.0000000e+00 0.0000000e+00 1.3250000e+01 
0.0000000e+00 0.0000000e+00 1.3500000e+01 
0.0000000e+00 0.0000000e+00 1.3750000e+01 
0.0000000e+00 0.0000000e+00 1.4000000e+01 
0.0000000e+00 0.0000000e+00 1.4250000e+01 
0.0000000e+00 0.0000000e+00 1.4500000e+01 
0.0000000e+00 0.0000000e+00 1.4750000e+01 
0.0000000e+00 0.0000000e+00 1.5000000e+01 
0.0000000e+00 0.0000000e+00 1.5250000e+01 
0.0000000e+00 0.0000000e+00 1.5500000e+01 
0.0000000e+00 0.0000000e+00 1.5750000e+01 
0.0000000e+00 0.0000000e+00 1.6000000e+01 
0.0000000e+00 0.0000000e+00 1.6250000e+01 
0.0000000e+00 0.0000000e+00 1.6500000e+01 
0.0000000e+00 0.0000000e+00 1.6750000e+01 
0.0000000e+00 0.0000000e+00 1.7000000e+01 
0.0000000e+00 0.0000000e+00 1.7250000e+01 
0.0000000e+00 0.0000000e+00 1.7500000e+01 
0.0000000e+00 0.0000000e+00 1.7750000e+01 
0.0000000e+00 0.0000000e+00 1.8000000e+01 
5.0000000e-01 0.0000000e+00 3.0000000e+00 
5.0000000e-01 0.0000000e+00 6.0000000e+00 
5.0000000e-01 0.0000000e+00 9.0000000e+00 
5.0000000e-01 0.0000000e+00 1.2000000e+01 
5.0000000e-01 0.0000000e+00 1.5000000e+01 
5.0000000e-01 0.0000000e+00 1.8000000e+01 
1.0000000e+00 0.0000000e+00 3.0000000e+00 
1.0000000e+00 0.0000000e+00 6.0000000e+00 
1.0000000e+00 0.0000000e+00 9.0000000e+00 
1.0000000e+00 0.0000000e+00 1.2000000e+01 
1.0000000e+00 0.0000000e+00 1.5000000e+01 
1.0000000e+00 0.0000000e+00 1.8000000e+01 
1.5000000e+00 0.0000000e+00 3.0000000e+00 
1.5000000e+00 0.0000000e+00 6.0000000e+00 
1.5000000e+00 0.0000000e+00 9.0000000e+00 
1.5000000e+00 0.0000000e+00 1.2000000e+01 
1.5000000e+00 0.0000000e+00 1.5000000e+01 
1.5000000e+00 0.0000000e+00 1.8000000e+01 
2.0000000e+00 0.0000000e+00 3.0000000e+00 
2.0000000e+00 0.0000000e+00 6.0000000e+00 
2.0000000e+00 0.0000000e+00 9.0000000e+00 
2.0000000e+00 0.0000000e+00 1.2000000e+01 
2.0000000e+00 0.0000000e+00 1.5000000e+01 
2.0000000e+00 0.0000000e+00 1.8000000e+01 
2.5000000e+00 0.0000000e+00 3.0000000e+00 
2.5000000e+00 0.0000000e+00 6.0000000e+00 
2.5000000e+00 0.0000000e+00 9.0000000e+00 
2.5000000e+00 0.0000000e+00 1.2000000e+01 
2.5000000e+00 0.0000000e+00 1.5000000e+01 
2.5000000e+00 0.0000000e+00 1.8000000e+01 
3.0000000e+00 0.0000000e+00 3.0000000e+00 
3.0000000e+00 0.0000000e+00 6.0000000e+00 
3.0000000e+00 0.0000000e+00 9.0000000e+00 
3.0000000e+00 0.0000000e+00 1.2000000e+01 
3.0000000e+00 0.0000000e+00 1.5000000e+01 
3.0000000e+00 0.0000000e+00 1.8000000e+01 
3.5000000e+00 0.0000000e+00 3.0000000e+00 
3.5000000e+00 0.0000000e+00 6.0000000e+00 
3.5000000e+00 0.0000000e+00 9.0000000e+00 
3.5000000e+00 0.0000000e+00 1.2000000e+01 
3.5000000e+00 0.0000000e+00 1.5000000e+01 
3.5000000e+00 0.0000000e+00 1.8000000e+01 
4.0000000e+00 0.0000000e+00 3.0000000e+00 
4.0000000e+00 0.0000000e+00 6.0000000e+00 
4.0000000e+00 0.0000000e+00 9.0000000e+00 
4.0000000e+00 0.0000000e+00 1.2000000e+01 
4.0000000e+00 0.0000000e+00 1.5000000e+01 
4.0000000e+00 0.0000000e+00 1.8000000e+01 
4.5000000e+00 0.0000000e+00 3.0000000e+00 
4.5000000e+00 0.0000000e+00 6.0000000e+00 
4.5000000e+00 0.0000000e+00 9.0000000e+00 
4.5000000e+00 0.0000000e+00 1.2000000e+01 
4.5000000e+00 0.0000000e+00 1.5000000e+01 
4.5000000e+00 0.0000000e+00 1.8000000e+01 
5.0000000e+00 0.0000000e+00 3.0000000e+00 
5.0000000e+00 0.0000000e+00 6.0000000e+00 
5.0000000e+00 0.0000000e+00 9.0000000e+00 
5.0000000e+00 0.0000000e+00 1.2000000e+01 
5.0000000e+00 0.0000000e+00 1.5000000e+01 
5.0000000e+00 0.0000000e+00 1.8000000e+01 
5.5000000e+00 0.0000000e+00 3.0000000e+00 
5.5000000e+00 0.0000000e+00 6.0000000e+00 
5.5000000e+00 0.0000000e+00 9.0000000e+00 
5.5000000e+00 0.0000000e+00 1.2000000e+01 
5.5000000e+00 0.0000000e+00 1.5000000e+01 
5.5000000e+00 0.0000000e+00 1.8000000e+01 
6.0000000e+00 0.0000000e+00 0.0000000e+00 
6.0000000e+00 0.0000000e+00 2.5000000e-01 
6.0000000e+00 0.0000000e+00 5.0000000e-01 
6.0000000e+00 0.0000000e+00 7.5000000e-01 
6.0000000e+00 0.0000000e+00 1.0000000e+00 
6.0000000e+00 0.0000000e+00 1.2500000e+00 
6.0000000e+00 0.0000000e+00 1.5000000e+00 
6.0000000e+00 0.0000000e+00 1.7500000e+00 
6.0000000e+00 0.0000000e+00 2.0000000e+00 
6.0000000e+00 0.0000000e+00 2.2500000e+00 
6.0000000e+00 0.0000000e+00 2.5000000e+00 
6.0000000e+00 0.0000000e+00 2.7500000e+00 
6.0000000e+00 0.0000000e+00 3.0000000e+00 
6.0000000e+00 0.0000000e+00 3.2500000e+00 
6.0000000e+00 0.0000000e+00 3.5000000e+00 
6.0000000e+00 0.0000000e+00 3.7500000e+00 
6.0000000e+00 0.0000000e+00 4.0000000e+00 
6.0000000e+00 0.0000000e+00 4.2500000e+00 
6.0000000e+00 0.0000000e+00 4.5000000e+00 
6.0000000e+00 0.0000000e+00 4.7500000e+00 
6.0000000e+00 0.0000000e+00 5.0000000e+00 
6.0000000e+00 0.0000000e+00 5.2500000e+00 
6.0000000e+00 0.0000000e+00 5.5000000e+00 
6.0000000e+00 0.0000000e+00 5.7500000e+00 
6.0000000e+00 0.0000000e+00 6.0000000e+00 
6.0000000e+00 0.0000000e+00 6.2500000e+00 
6.0000000e+00 0.0000000e+00 6.5000000e+00 
6.0000000e+00 0.0000000e+00 6.7500000e+00 
6.0000000e+00 0.0000000e+00 7.0000000e+00 
6.0000000e+00 0.0000000e+00 7.2500000e+00 
6.0000000e+00 0.0000000e+00 7.5000000e+00 
6.0000000e+00 0.0000000e+00 7.7500000e+00 
6.0000000e+00 0.0000000e+00 8.0000000e+00 
6.0000000e+00 0.0000000e+00 8.2500000e+00 
6.0000000e+00 0.0000000e+00 8.5000000e+00 
6.0000000e+00 0.0000000e+00 8.7500000e+00 
6.0000000e+00 0.0000000e+00 9.0000000e+00 
6.0000000e+00 0.0000000e+00 9.2500000e+00 
6.0000000e+00 0.0000000e+00 9.5000000e+00 
6.0000000e+00 0.0000000e+00 9.7500000e+00 
6.0000000e+00 0.0000000e+00 1.0000000e+01 
6.0000000e+00 0.0000000e+00 1.0250000e+01 
6.0000000e+00 0.0000000e+00 1.0500000e+01 
6.0000000e+00 0.0000000e+00 1.0750000e+01 
6.0000000e+00 0.0000000e+00 1.1000000e+01 
6.0000000e+00 0.0000000e+00 1.1250000e+01 
6.0000000e+00 0.0000000e+00 1.1500000e+01 
6.0000000e+00 0.0000000e+00 1.1750000e+01 
6.0000000e+00 0.0000000e+00 1.2000000e+01 
6.0000000e+00 0.0000000e+00 1.2250000e+01 
6.0000000e+00 0.0000000e+00 1.2500000e+01 
6.0000000e+00 0.0000000e+00 1.2750000e+01 
6.0000000e+00 0.0000000e+00 1.3000000e+01 
6.0000000e+00 0.0000000e+00 1.3250000e+01 
6.0000000e+00 0.0000000e+00 1.3500000e+01 
6.0000000e+00 0.0000000e+00 1.3750000e+01 
6.0000000e+00 0.0000000e+00 1.4000000e+01 
6.0000000e+00 0.0000000e+00 1.4250000e+01 
6.0000000e+00 0.0000000e+00 1.4500000e+01 
6.0000000e+00 0.0000000e+00 1.4750000e+01 
6.0000000e+00 0.0000000e+00 1.5000000e+01 
6.0000000e+00 0.0000000e+00 1.5250000e+01 
6.0000000e+00 0.0000000e+00 1.5500000e+01 
6.0000000e+00 0.0000000e+00 1.5750000e+01 
6.0000000e+00 0.0000000e+00 1.6000000e+01 
6.0000000e+00 0.0000000e+00 1.6250000e+01 
6.0000000e+00 0.0000000e+00 1.6500000e+01 
6.0000000e+00 0.0000000e+00 1.6750000e+01 
6.0000000e+00 0.0000000e+00 1.7000000e+01 
6.0000000e+00 0.0000000e+00 1.7250000e+01 
6.0000000e+00 0.0000000e+00 1.7500000e+01 
6.0000000e+00 0.0000000e+00 1.7750000e+01 
6.0000000e+00 0.0000000e+00 1.8000000e+01 

CELLS 216 648
2 0 1
2 1 2
2 2 3
2 3 4
2 4 5
2 5 6
2 6 7
2 7 8
2 8 9
2 9 10
2 10 11
2 11 12
2 12 13
2 13 14
2 14 15
2 15 16
2 16 17
2 17 18
2 18 19
2 19 20
2 20 21
2 21 22
2 22 23
2 23 24
2 24 25
2 25 26
2 26 27
2 27 28
2 28 29
2 29 30
2 30 31
2 31 32
2 32 33
2 33 34
2 34 35
2 35 36
2 36 37
2 37 38
2 38 39
2 39 40
2 40 41
2 41 42
2 42 43
2 43 44
2 44 45
2 45 46
2 46 47
2 47 48
2 48 49
2 49 50
2 50 51
2 51 52
2 52 53
2 53 54
2 54 55
2 55 56
2 56 57
2 57 58
2 58 59
2 59 60
2 60 61
2 61 62
2 62 63
2 63 64
2 64 65
2 65 66
2 66 67
2 67 68
2 68 69
2 69 70
2 70 71
2 71 72
2 139 140
2 140 141
2 141 142
2 142 143
2 143 144
2 144 145
2 145 146
2 146 147
2 147 148
2 148 149
2 149 150
2 150 151
2 151 152
2 152 153
2 153 154
2 154 155
2 155 156
2 156 157
2 157 158
2 158 159
2 159 160
2 160 161
2 161 162
2 162 163
2 163 164
2 164 165
2 165 166
2 166 167
2 167 168
2 168 169
2 169 170
2 170 171
2 171 172
2 172 173
2 173 174
2 174 175
2 175 176
2 176 177
2 177 178
2 178 179
2 179 180
2 180 181
2 181 182
2 182 183
2 183 184
2 184 185
2 185 186
2 186 187
2 187 188
2 188 189
2 189 190
2 190 191
2 191 192
2 192 193
2 193 194
2 194 195
2 195 196
2 196 197
2 197 198
2 198 199
2 199 200
2 200 201
2 201 202
2 202 203
2 203 204
2 204 205
2 205 206
2 206 207
2 207 208
2 208 209
2 209 210
2 210 211
2 12 73
2 73 79
2 79 85
2 85 91
2 91 97
2 97 103
2 103 109
2 109 115
2 115 121
2 121 127
2 127 133
2 133 151
2 24 74
2 74 80
2 80 86
2 86 92
2 92 98
2 98 104
2 104 110
2 110 116
2 116 122
2 122 128
2 128 134
2 134 163
2 36 75
2 75 81
2 81 87
2 87 93
2 93 99
2 99 105
2 105 111
2 111 117
2 117 123
2 123 129
2 129 135
2 135 175
2 48 76
2 76 82
2 82 88
2 88 94
2 94 100
2 100 106
2 106 112
2 112 118
2 118 124
2 124 130
2 130 136
2 136 187
2 60 77
2 77 83
2 83 89
2 89 95
2 95 101
2 101 107
2 107 113
2 113 119
2 119 125
2 125 131
2 131 137
2 137 199
2 72 78
2 78 84
2 84 90
2 90 96
2 96 102
2 102 108
2 108 114
2 114 120
2 120 126
2 126 132
2 132 138
2 138 211

CELL_TYPES 216
3
3
3
3
3
3
3
3
3
3
3
3
3
3
3
3
3
3
3
3
3
3
3
3
3
3
3
3
3
3
3
3
3
3
3
3
3
3
3
3
3
3
3
3
3
3
3
3
3
3
3
3
3
3
3
3
3
3
3
3
3
3
3
3
3
3
3
3
3
3
3
3
3
3
3
3
3
3
3
3
3
3
3
3
3
3
3
3
3
3
3
3
3
3
3
3
3
3
3
3
3
3
3
3
3
3
3
3
3
3
3
3
3
3
3
3
3
3
3
3
3
3
3
3
3
3
3
3
3
3
3
3
3
3
3
3
3
3
3
3
3
3
3
3
3
3
3
3
3
3
3
3
3
3
3
3
3
3
3
3
3
3
3
3
3
3
3
3
3
3
3
3
3
3
3
3
3
3
3
3
3
3
3
3
3
3
3
3
3
3
3
3
3
3
3
3
3
3
3
3
3
3
3
3
3
3
3
3
3
3
3
3
3
3
3
3
POINT_DATA 212
FIELD FieldData 8
DISPLACEMENT 3 212  float
0.0000000e+00 0.0000000e+00 0.0000000e+00 
-6.0987954e-06 0.0000000e+00 -3.8283661e-06 
-1.1945033e-05 0.0000000e+00 -7.6304905e-06 
-1.7286155e-05 0.0000000e+00 -1.1406371e-05 
-2.1869602e-05 0.0000000e+00 -1.5156011e-05 
-2.5442818e-05 0.0000000e+00 -1.8879407e-05 
-2.7753244e-05 0.0000000e+00 -2.2576560e-05 
-2.8548322e-05 0.0000000e+00 -2.6247471e-05 
-2.7575494e-05 0.0000000e+00 -2.9892140e-05 
-2.4582203e-05 0.0000000e+00 -3.3510569e-05 
-1.9315890e-05 0.0000000e+00 -3.7102753e-05 
-1.1523997e-05 0.0000000e+00 -4.0668692e-05 
-9.5396751e-07 0.0000000e+00 -4.4208391e-05 
8.5878137e-06 0.0000000e+00 -4.7396512e-05 
1.3674244e-05 0.0000000e+00 -5.0558388e-05 
1.5126808e-05 0.0000000e+00 -5.3694021e-05 
1.3766990e-05 0.0000000e+00 -5.6803412e-05 
1.0416277e-05 0.0000000e+00 -5.9886559e-05 
5.8961527e-06 0.0000000e+00 -6.2943465e-05 
1.0281021e-06 0.0000000e+00 -6.5974127e-05 
-3.3663898e-06 0.0000000e+00 -6.8978552e-05 
-6.4658379e-06 0.0000000e+00 -7.1956732e-05 
-7.4487580e-06 0.0000000e+00 -7.4908668e-05 
-5.4936636e-06 0.0000000e+00 -7.7834360e-05 
2.2092871e-07 0.0000000e+00 -8.0733807e-05 
6.1668161e-06 0.0000000e+00 -8.3281680e-05 
8.7279568e-06 0.0000000e+00 -8.5803309e-05 
8.5940783e-06 0.0000000e+00 -8.8298693e-05 
6.4549085e-06 0.0000000e+00 -9.0767840e-05 
3.0001745e-06 0.0000000e+00 -9.3210736e-05 
-1.0803963e-06 0.0000000e+00 -9.5627394e-05 
-5.0970762e-06 0.0000000e+00 -9.8017808e-05 
-8.3601381e-06 0.0000000e+00 -1.0038199e-04 
-1.0179853e-05 0.0000000e+00 -1.0271992e-04 
-9.8664950e-06 0.0000000e+00 -1.0503161e-04 
-6.7303358e-06 0.0000000e+00 -1.0731705e-04 
-8.1648331e-08 0.0000000e+00 -1.0957626e-04 
6.4816277e-06 0.0000000e+00 -1.1148387e-04 
9.3940134e-06 0.0000000e+00 -1.1336525e-04 
9.3939307e-06 0.0000000e+00 -1.1522039e-04 
7.2198000e-06 0.0000000e+00 -1.1704929e-04 
3.6100423e-06 0.0000000e+00 -1.1885194e-04 
-6.9692129e-07 0.0000000e+00 -1.2062835e-04 
-4.9626701e-06 0.0000000e+00 -1.2237852e-04 
-8.4487829e-06 0.0000000e+00 -1.2410244e-04 
-1.0416839e-05 0.0000000e+00 -1.2580013e-04 
-1.0128418e-05 0.0000000e+00 -1.2747156e-04 
-6.8450968e-06 0.0000000e+00 -1.2911677e-04 
1.7154336e-07 0.0000000e+00 -1.3073572e-04 
7.3676974e-06 0.0000000e+00 -1.3200310e-04 
1.1121356e-05 0.0000000e+00 -1.3324423e-04 
1.2068635e-05 0.0000000e+00 -1.3445911e-04 
1.0845651e-05 0.0000000e+00 -1.3564776e-04 
8.0885193e-06 0.0000000e+00 -1.3681017e-04 
4.4333560e-06 0.0000000e+00 -1.3794634e-04 
5.1627705e-07 0.0000000e+00 -1.3905625e-04 
-3.0266015e-06 0.0000000e+00 -1.4013993e-04 
-5.5591640e-06 0.0000000e+00 -1.4119736e-04 
-6.4452938e-06 0.0000000e+00 -1.4222856e-04 
-5.0488757e-06 0.0000000e+00 -1.4323351e-04 
-7.3379368e-07 0.0000000e+00 -1.4421222e-04 
2.8028714e-06 0.0000000e+00 -1.4483935e-04 
2.1557848e-06 0.0000000e+00 -1.4544022e-04 
-1.6013180e-06 0.0000000e+00 -1.4601486e-04 
-7.3947012e-06 0.0000000e+00 -1.4656327e-04 
-1.4150629e-05 0.0000000e+00 -1.4708542e-04 
-2.0795365e-05 0.0000000e+00 -1.4758133e-04 
-2.6255177e-05 0.0000000e+00 -1.4805101e-04 
-2.9456323e-05 0.0000000e+00 -1.4849444e-04 
-2.9325074e-05 0.0000000e+00 -1.4891163e-04 
-2.4787689e-05 0.0000000e+00 -1.4930256e-04 
-1.4770436e-05 0.0000000e+00 -1.4966728e-04 
1.8004225e-06 0.0000000e+00 -1.5000573e-04 
-7.9497295e-07 0.0000000e+00 -8.1939121e-05 
1.8410726e-07 0.0000000e+00 -1.1081016e-04 
-6.8040279e-08 0.0000000e+00 -1.4105820e-04 
1.4295280e-07 0.0000000e+00 -1.6312439e-04 
-6.1149473e-07 0.0000000e+00 -1.7083874e-04 
1.5003521e-06 0.0000000e+00 -2.0270066e-04 
-6.3597832e-07 0.0000000e+00 -1.3609274e-04 
1.4728580e-07 0.0000000e+00 -1.5870111e-04 
-5.4432224e-08 0.0000000e+00 -1.9009919e-04 
1.1436224e-07 0.0000000e+00 -2.1290725e-04 
-4.8919577e-07 0.0000000e+00 -2.1590712e-04 
1.2002816e-06 0.0000000e+00 -2.6909771e-04 
-4.7698376e-07 0.0000000e+00 -1.9269944e-04 
1.1046436e-07 0.0000000e+00 -2.1043685e-04 
-4.0824165e-08 0.0000000e+00 -2.4272939e-04 
8.5771681e-08 0.0000000e+00 -2.6611448e-04 
-3.6689684e-07 0.0000000e+00 -2.6544751e-04 
9.0021126e-07 0.0000000e+00 -3.3522709e-04 
-3.1798916e-07 0.0000000e+00 -2.4089382e-04 
7.3642902e-08 0.0000000e+00 -2.5515194e-04 
-2.7216112e-08 0.0000000e+00 -2.8808342e-04 
5.7181122e-08 0.0000000e+00 -3.1188063e-04 
-2.4459789e-07 0.0000000e+00 -3.0859452e-04 
6.0014082e-07 0.0000000e+00 -3.9022334e-04 
-1.5899458e-07 0.0000000e+00 -2.7291483e-04 
3.6821451e-08 0.0000000e+00 -2.8508541e-04 
-1.3608056e-08 0.0000000e+00 -3.1840021e-04 
2.8590561e-08 0.0000000e+00 -3.4244475e-04 
-1.2229894e-07 0.0000000e+00 -3.3758715e-04 
3.0007041e-07 0.0000000e+00 -4.2632554e-04 
-1.1396038e-16 0.0000000e+00 -2.8410592e-04 
-1.7615403e-16 0.0000000e+00 -2.9558066e-04 
-2.2560670e-16 0.0000000e+00 -3.2902323e-04 
-2.8594594e-16 0.0000000e+00 -3.5315019e-04 
-3.6919935e-16 0.0000000e+00 -3.4776874e-04 
-4.1682891e-16 0.0000000e+00 -4.3887697e-04 
1.5899458e-07 0.0000000e+00 -2.7291483e-04 
-3.6821451e-08 0.0000000e+00 -2.8508541e-04 
1.3608055e-08 0.0000000e+00 -3.1840021e-04 
-2.8590561e-08 0.0000000e+00 -3.4244475e-04 
1.2229894e-07 0.0000000e+00 -3.3758715e-04 
-3.0007041e-07 0.0000000e+00 -4.2632554e-04 
3.1798916e-07 0.0000000e+00 -2.4089382e-04 
-7.3642902e-08 0.0000000e+00 -2.5515194e-04 
2.7216110e-08 0.0000000e+00 -2.8808342e-04 
-5.7181122e-08 0.0000000e+00 -3.1188063e-04 
2.4459789e-07 0.0000000e+00 -3.0859452e-04 
-6.0014082e-07 0.0000000e+00 -3.9022334e-04 
4.7698376e-07 0.0000000e+00 -1.9269944e-04 
-1.1046436e-07 0.0000000e+00 -2.1043685e-04 
4.0824165e-08 0.0000000e+00 -2.4272939e-04 
-8.5771681e-08 0.0000000e+00 -2.6611448e-04 
3.6689684e-07 0.0000000e+00 -2.6544751e-04 
-9.0021126e-07 0.0000000e+00 -3.3522709e-04 
6.3597832e-07 0.0000000e+00 -1.3609274e-04 
-1.4728580e-07 0.0000000e+00 -1.5870111e-04 
5.4432221e-08 0.0000000e+00 -1.9009919e-04 
-1.1436224e-07 0.0000000e+00 -2.1290725e-04 
4.8919577e-07 0.0000000e+00 -2.1590712e-04 
-1.2002816e-06 0.0000000e+00 -2.6909771e-04 
7.9497295e-07 0.0000000e+00 -8.1939121e-05 
-1.8410726e-07 0.0000000e+00 -1.1081016e-04 
6.8040279e-08 0.0000000e+00 -1.4105820e-04 
-1.4295280e-07 0.0000000e+00 -1.6312439e-04 
6.1149473e-07 0.0000000e+00 -1.7083874e-04 
-1.5003521e-06 0.0000000e+00 -2.0270066e-04 
0.0000000e+00 0.0000000e+00 0.0000000e+00 
6.0987954e-06 0.0000000e+00 -3.8283661e-06 
1.1945033e-05 0.0000000e+00 -7.6304905e-06 
1.7286155e-05 0.0000000e+00 -1.1406371e-05 
2.1869602e-05 0.0000000e+00 -1.5156011e-05 
2.5442818e-05 0.0000000e+00 -1.8879407e-05 
2.7753244e-05 0.0000000e+00 -2.2576560e-05 
2.8548322e-05 0.0000000e+00 -2.6247471e-05 
2.7575494e-05 0.0000000e+00 -2.9892140e-05 
2.4582203e-05 0.0000000e+00 -3.3510569e-05 
1.9315890e-05 0.0000000e+00 -3.7102753e-05 
1.1523997e-05 0.0000000e+00 -4.0668692e-05 
9.5396751e-07 0.0000000e+00 -4.4208391e-05 
-8.5878137e-06 0.0000000e+00 -4.7396512e-05 
-1.3674244e-05 0.0000000e+00 -5.0558388e-05 
-1.5126808e-05 0.0000000e+00 -5.3694021e-05 
-1.3766990e-05 0.0000000e+00 -5.6803412e-05 
-1.0416277e-05 0.0000000e+00 -5.9886559e-05 
-5.8961527e-06 0.0000000e+00 -6.2943465e-05 
-1.0281021e-06 0.0000000e+00 -6.5974127e-05 
3.3663898e-06 0.0000000e+00 -6.8978552e-05 
6.4658379e-06 0.0000000e+00 -7.1956732e-05 
7.4487580e-06 0.0000000e+00 -7.4908668e-05 
5.4936636e-06 0.0000000e+00 -7.7834360e-05 
-2.2092871e-07 0.0000000e+00 -8.0733807e-05 
-6.1668161e-06 0.0000000e+00 -8.3281680e-05 
-8.7279568e-06 0.0000000e+00 -8.5803309e-05 
-8.5940783e-06 0.0000000e+00 -8.8298693e-05 
-6.4549085e-06 0.0000000e+00 -9.0767840e-05 
-3.0001745e-06 0.0000000e+00 -9.3210736e-05 
1.0803963e-06 0.0000000e+00 -9.5627394e-05 
5.0970762e-06 0.0000000e+00 -9.8017808e-05 
8.3601381e-06 0.0000000e+00 -1.0038199e-04 
1.0179853e-05 0.0000000e+00 -1.0271992e-04 
9.8664950e-06 0.0000000e+00 -1.0503161e-04 
6.7303358e-06 0.0000000e+00 -1.0731705e-04 
8.1648331e-08 0.0000000e+00 -1.0957626e-04 
-6.4816277e-06 0.0000000e+00 -1.1148387e-04 
-9.3940134e-06 0.0000000e+00 -1.1336525e-04 
-9.3939307e-06 0.0000000e+00 -1.1522039e-04 
-7.2198000e-06 0.0000000e+00 -1.1704929e-04 
-3.6100423e-06 0.0000000e+00 -1.1885194e-04 
6.9692129e-07 0.0000000e+00 -1.2062835e-04 
4.9626701e-06 0.0000000e+00 -1.2237852e-04 
8.4487829e-06 0.0000000e+00 -1.2410244e-04 
1.0416839e-05 0.0000000e+00 -1.2580013e-04 
1.0128418e-05 0.0000000e+00 -1.2747156e-04 
6.8450968e-06 0.0000000e+00 -1.2911677e-04 
-1.7154336e-07 0.0000000e+00 -1.3073572e-04 
-7.3676974e-06 0.0000000e+00 -1.3200310e-04 
-1.1121356e-05 0.0000000e+00 -1.3324423e-04 
-1.2068635e-05 0.0000000e+00 -1.3445911e-04 
-1.0845651e-05 0.0000000e+00 -1.3564776e-04 
-8.0885193e-06 0.0000000e+00 -1.3681017e-04 
-4.4333560e-06 0.0000000e+00 -1.3794634e-04 
-5.1627705e-07 0.0000000e+00 -1.3905625e-04 
3.0266015e-06 0.0000000e+00 -1.4013993e-04 
5.5591640e-06 0.0000000e+00 -1.4119736e-04 
6.4452938e-06 0.0000000e+00 -1.4222856e-04 
5.0488757e-06 0.0000000e+00 -1.4323351e-04 
7.3379368e-07 0.0000000e+00 -1.4421222e-04 
-2.8028714e-06 0.0000000e+00 -1.4483935e-04 
-2.1557848e-06 0.0000000e+00 -1.4544022e-04 
1.6013180e-06 0.0000000e+00 -1.4601486e-04 
7.3947012e-06 0.0000000e+00 -1.4656327e-04 
1.4150629e-05 0.0000000e+00 -1.4708542e-04 
2.0795365e-05 0.0000000e+00 -1.4758133e-04 
2.6255177e-05 0.0000000e+00 -1.4805101e-04 
2.9456323e-05 0.0000000e+00 -1.4849444e-04 
2.9325074e-05 0.0000000e+00 -1.4891163e-04 
2.4787689e-05 0.0000000e+00 -1.4930256e-04 
1.4770436e-05 0.0000000e+00 -1.4966728e-04 
-1.8004225e-06 0.0000000e+00 -1.5000573e-04 
ROTATION 3 212  float
0.0000000e+00 -2.4563553e-05 0.0000000e+00 
0.0000000e+00 -2.4058438e-05 0.0000000e+00 
0.0000000e+00 -2.2543090e-05 0.0000000e+00 
0.0000000e+00 -2.0017511e-05 0.0000000e+00 
0.0000000e+00 -1.6481699e-05 0.0000000e+00 
0.0000000e+00 -1.1935655e-05 0.0000000e+00 
0.0000000e+00 -6.3793805e-06 0.0000000e+00 
0.0000000e+00 1.8712676e-07 0.0000000e+00 
0.0000000e+00 7.7638661e-06 0.0000000e+00 
0.0000000e+00 1.6350836e-05 0.0000000e+00 
0.0000000e+00 2.5948038e-05 0.0000000e+00 
0.0000000e+00 3.6555473e-05 0.0000000e+00 
0.0000000e+00 4.8173140e-05 0.0000000e+00 
0.0000000e+00 2.8708766e-05 0.0000000e+00 
0.0000000e+00 1.2530331e-05 0.0000000e+00 
0.0000000e+00 -3.6216284e-07 0.0000000e+00 
0.0000000e+00 -9.9687177e-06 0.0000000e+00 
0.0000000e+00 -1.6289332e-05 0.0000000e+00 
0.0000000e+00 -1.9324007e-05 0.0000000e+00 
0.0000000e+00 -1.9072742e-05 0.0000000e+00 
0.0000000e+00 -1.5535537e-05 0.0000000e+00 
0.0000000e+00 -8.7123926e-06 0.0000000e+00 
0.0000000e+00 1.3966920e-06 0.0000000e+00 
0.0000000e+00 1.4791716e-05 0.0000000e+00 
0.0000000e+00 3.1472682e-05 0.0000000e+00 
0.0000000e+00 1.6554239e-05 0.0000000e+00 
0.0000000e+00 4.3947066e-06 0.0000000e+00 
0.0000000e+00 -5.0059152e-06 0.0000000e+00 
0.0000000e+00 -1.1647627e-05 0.0000000e+00 
0.0000000e+00 -1.5530428e-05 0.0000000e+00 
0.0000000e+00 -1.6654320e-05 0.0000000e+00 
0.0000000e+00 -1.5019301e-05 0.0000000e+00 
0.0000000e+00 -1.0625372e-05 0.0000000e+00 
0.0000000e+00 -3.4725333e-06 0.0000000e+00 
0.0000000e+00 6.4392157e-06 0.0000000e+00 
0.0000000e+00 1.9109875e-05 0.0000000e+00 
0.0000000e+00 3.4539444e-05 0.0000000e+00 
0.0000000e+00 1.8459043e-05 0.0000000e+00 
0.0000000e+00 5.3323261e-06 0.0000000e+00 
0.0000000e+00 -4.8407078e-06 0.0000000e+00 
0.0000000e+00 -1.2060057e-05 0.0000000e+00 
0.0000000e+00 -1.6325723e-05 0.0000000e+00 
0.0000000e+00 -1.7637705e-05 0.0000000e+00 
0.0000000e+00 -1.5996004e-05 0.0000000e+00 
0.0000000e+00 -1.1400619e-05 0.0000000e+00 
0.0000000e+00 -3.8515491e-06 0.0000000e+00 
0.0000000e+00 6.6512039e-06 0.0000000e+00 
0.0000000e+00 2.0107640e-05 0.0000000e+00 
0.0000000e+00 3.6517762e-05 0.0000000e+00 
0.0000000e+00 2.1475547e-05 0.0000000e+00 
0.0000000e+00 8.9777986e-06 0.0000000e+00 
0.0000000e+00 -9.7548730e-07 0.0000000e+00 
0.0000000e+00 -8.3843088e-06 0.0000000e+00 
0.0000000e+00 -1.3248668e-05 0.0000000e+00 
0.0000000e+00 -1.5568561e-05 0.0000000e+00 
0.0000000e+00 -1.5343992e-05 0.0000000e+00 
0.0000000e+00 -1.2574959e-05 0.0000000e+00 
0.0000000e+00 -7.2614621e-06 0.0000000e+00 
0.0000000e+00 5.9649869e-07 0.0000000e+00 
0.0000000e+00 1.0998923e-05 0.0000000e+00 
0.0000000e+00 2.3945811e-05 0.0000000e+00 
0.0000000e+00 5.0633330e-06 0.0000000e+00 
0.0000000e+00 -9.5242031e-06 0.0000000e+00 
0.0000000e+00 -1.9816796e-05 0.0000000e+00 
0.0000000e+00 -2.5814446e-05 0.0000000e+00 
0.0000000e+00 -2.7517153e-05 0.0000000e+00 
0.0000000e+00 -2.4924919e-05 0.0000000e+00 
0.0000000e+00 -1.8037739e-05 0.0000000e+00 
0.0000000e+00 -6.8556187e-06 0.0000000e+00 
0.0000000e+00 8.6214450e-06 0.0000000e+00 
0.0000000e+00 2.8393451e-05 0.0000000e+00 
0.0000000e+00 5.2460400e-05 0.0000000e+00 
0.0000000e+00 8.0822290e-05 0.0000000e+00 
0.0000000e+00 9.7058357e-05 0.0000000e+00 
0.0000000e+00 8.3141305e-05 0.0000000e+00 
0.0000000e+00 8.5696942e-05 0.0000000e+00 
0.0000000e+00 8.7345543e-05 0.0000000e+00 
0.0000000e+00 7.6868913e-05 0.0000000e+00 
0.0000000e+00 1.2426598e-04 0.0000000e+00 
0.0000000e+00 1.1489953e-04 0.0000000e+00 
0.0000000e+00 1.0376589e-04 0.0000000e+00 
0.0000000e+00 1.0581040e-04 0.0000000e+00 
0.0000000e+00 1.0712928e-04 0.0000000e+00 
0.0000000e+00 9.8747980e-05 0.0000000e+00 
0.0000000e+00 1.3666564e-04 0.0000000e+00 
0.0000000e+00 1.0790548e-04 0.0000000e+00 
0.0000000e+00 9.9555247e-05 0.0000000e+00 
0.0000000e+00 1.0108863e-04 0.0000000e+00 
0.0000000e+00 1.0207779e-04 0.0000000e+00 
0.0000000e+00 9.5791809e-05 0.0000000e+00 
0.0000000e+00 1.2423005e-04 0.0000000e+00 
0.0000000e+00 8.2284998e-05 0.0000000e+00 
0.0000000e+00 7.6718177e-05 0.0000000e+00 
0.0000000e+00 7.7740435e-05 0.0000000e+00 
0.0000000e+00 7.8399869e-05 0.0000000e+00 
0.0000000e+00 7.4209223e-05 0.0000000e+00 
0.0000000e+00 9.3168048e-05 0.0000000e+00 
0.0000000e+00 4.4246903e-05 0.0000000e+00 
0.0000000e+00 4.1463492e-05 0.0000000e+00 
0.0000000e+00 4.1974621e-05 0.0000000e+00 
0.0000000e+00 4.2304338e-05 0.0000000e+00 
0.0000000e+00 4.0209015e-05 0.0000000e+00 
0.0000000e+00 4.9688428e-05 0.0000000e+00 
0.0000000e+00 1.0415573e-17 0.0000000e+00 
0.0000000e+00 1.0252830e-17 0.0000000e+00 
0.0000000e+00 6.8352200e-18 0.0000000e+00 
0.0000000e+00 1.1880263e-17 0.0000000e+00 
0.0000000e+00 1.1717520e-17 0.0000000e+00 
0.0000000e+00 2.1226375e-18 0.0000000e+00 
0.0000000e+00 -4.4246903e-05 0.0000000e+00 
0.0000000e+00 -4.1463492e-05 0.0000000e+00 
0.0000000e+00 -4.1974621e-05 0.0000000e+00 
0.0000000e+00 -4.2304338e-05 0.0000000e+00 
0.0000000e+00 -4.0209015e-05 0.0000000e+00 
0.0000000e+00 -4.9688428e-05 0.0000000e+00 
0.0000000e+00 -8.2284998e-05 0.0000000e+00 
0.0000000e+00 -7.6718177e-05 0.0000000e+00 
0.0000000e+00 -7.7740435e-05 0.0000000e+00 
0.0000000e+00 -7.8399869e-05 0.0000000e+00 
0.0000000e+00 -7.4209223e-05 0.0000000e+00 
0.0000000e+00 -9.3168048e-05 0.0000000e+00 
0.0000000e+00 -1.0790548e-04 0.0000000e+00 
0.0000000e+00 -9.9555247e-05 0.0000000e+00 
0.0000000e+00 -1.0108863e-04 0.0000000e+00 
0.0000000e+00 -1.0207779e-04 0.0000000e+00 
0.0000000e+00 -9.5791809e-05 0.0000000e+00 
0.0000000e+00 -1.2423005e-04 0.0000000e+00 
0.0000000e+00 -1.1489953e-04 0.0000000e+00 
0.0000000e+00 -1.0376589e-04 0.0000000e+00 
0.0000000e+00 -1.0581040e-04 0.0000000e+00 
0.0000000e+00 -1.0712928e-04 0.0000000e+00 
0.0000000e+00 -9.8747980e-05 0.0000000e+00 
0.0000000e+00 -1.3666564e-04 0.0000000e+00 
0.0000000e+00 -9.7058357e-05 0.0000000e+00 
0.0000000e+00 -8.3141305e-05 0.0000000e+00 
0.0000000e+00 -8.5696942e-05 0.0000000e+00 
0.0000000e+00 -8.7345543e-05 0.0000000e+00 
0.0000000e+00 -7.6868913e-05 0.0000000e+00 
0.0000000e+00 -1.2426598e-04 0.0000000e+00 
0.0000000e+00 2.4563553e-05 0.0000000e+00 
0.0000000e+00 2.4058438e-05 0.0000000e+00 
0.0000000e+00 2.2543090e-05 0.0000000e+00 
0.0000000e+00 2.0017511e-05 0.0000000e+00 
0.0000000e+00 1.6481699e-05 0.0000000e+00 
0.0000000e+00 1.1935655e-05 0.0000000e+00 
0.0000000e+00 6.3793805e-06 0.0000000e+00 
0.0000000e+00 -1.8712676e-07 0.0000000e+00 
0.0000000e+00 -7.7638661e-06 0.0000000e+00 
0.0000000e+00 -1.6350836e-05 0.0000000e+00 
0.0000000e+00 -2.5948038e-05 0.0000000e+00 
0.0000000e+00 -3.6555473e-05 0.0000000e+00 
0.0000000e+00 -4.8173140e-05 0.0000000e+00 
0.0000000e+00 -2.8708766e-05 0.0000000e+00 
0.0000000e+00 -1.2530331e-05 0.0000000e+00 
0.0000000e+00 3.6216284e-07 0.0000000e+00 
0.0000000e+00 9.9687177e-06 0.0000000e+00 
0.0000000e+00 1.6289332e-05 0.0000000e+00 
0.0000000e+00 1.9324007e-05 0.0000000e+00 
0.0000000e+00 1.9072742e-05 0.0000000e+00 
0.0000000e+00 1.5535537e-05 0.0000000e+00 
0.0000000e+00 8.7123926e-06 0.0000000e+00 
0.0000000e+00 -1.3966920e-06 0.0000000e+00 
0.0000000e+00 -1.4791716e-05 0.0000000e+00 
0.0000000e+00 -3.1472682e-05 0.0000000e+00 
0.0000000e+00 -1.6554239e-05 0.0000000e+00 
0.0000000e+00 -4.3947066e-06 0.0000000e+00 
0.0000000e+00 5.0059152e-06 0.0000000e+00 
0.0000000e+00 1.1647627e-05 0.0000000e+00 
0.0000000e+00 1.5530428e-05 0.0000000e+00 
0.0000000e+00 1.6654320e-05 0.0000000e+00 
0.0000000e+00 1.5019301e-05 0.0000000e+00 
0.0000000e+00 1.0625372e-05 0.0000000e+00 
0.0000000e+00 3.4725333e-06 0.0000000e+00 
0.0000000e+00 -6.4392157e-06 0.0000000e+00 
0.0000000e+00 -1.9109875e-05 0.0000000e+00 
0.0000000e+00 -3.4539444e-05 0.0000000e+00 
0.0000000e+00 -1.8459043e-05 0.0000000e+00 
0.0000000e+00 -5.3323261e-06 0.0000000e+00 
0.0000000e+00 4.8407078e-06 0.0000000e+00 
0.0000000e+00 1.2060057e-05 0.0000000e+00 
0.0000000e+00 1.6325723e-05 0.0000000e+00 
0.0000000e+00 1.7637705e-05 0.0000000e+00 
0.0000000e+00 1.5996004e-05 0.0000000e+00 
0.0000000e+00 1.1400619e-05 0.0000000e+00 
0.0000000e+00 3.8515491e-06 0.0000000e+00 
0.0000000e+00 -6.6512039e-06 0.0000000e+00 
0.0000000e+00 -2.0107640e-05 0.0000000e+00 
0.0000000e+00 -3.6517762e-05 0.0000000e+00 
0.0000000e+00 -2.1475547e-05 0.0000000e+00 
0.0000000e+00 -8.9777986e-06 0.0000000e+00 
0.0000000e+00 9.7548730e-07 0.0000000e+00 
0.0000000e+00 8.3843088e-06 0.0000000e+00 
0.0000000e+00 1.3248668e-05 0.0000000e+00 
0.0000000e+00 1.5568561e-05 0.0000000e+00 
0.0000000e+00 1.5343992e-05 0.0000000e+00 
0.0000000e+00 1.2574959e-05 0.0000000e+00 
0.0000000e+00 7.2614621e-06 0.0000000e+00 
0.0000000e+00 -5.9649869e-07 0.0000000e+00 
0.0000000e+00 -1.0998923e-05 0.0000000e+00 
0.0000000e+00 -2.3945811e-05 0.0000000e+00 
0.0000000e+00 -5.0633330e-06 0.0000000e+00 
0.0000000e+00 9.5242031e-06 0.0000000e+00 
0.0000000e+00 1.9816796e-05 0.0000000e+00 
0.0000000e+00 2.5814446e-05 0.0000000e+00 