# vtk DataFile Version 4.0
vtk output
ASCII
DATASET UNSTRUCTURED_GRID
POINTS 11 float
0.0000000e+00 0.0000000e+00 0.0000000e+00 
1.0000000e+00 0.0000000e+00 0.0000000e+00 
2.0000000e+00 0.0000000e+00 0.0000000e+00 
2.0000000e-01 0.0000000e+00 0.0000000e+00 
4.0000001e-01 0.0000000e+00 0.0000000e+00 
6.0000002e-01 0.0000000e+00 0.0000000e+00 
8.0000001e-01 0.0000000e+00 0.0000000e+00 
1.2000000e+00 0.0000000e+00 0.0000000e+00 
1.4000000e+00 0.0000000e+00 0.0000000e+00 
1.6000000e+00 0.0000000e+00 0.0000000e+00 
1.8000000e+00 0.0000000e+00 0.0000000e+00 

CELLS 10 30
2 0 3
2 3 4
2 4 5
2 5 6
2 6 1
2 1 7
2 7 8
2 8 9
2 9 10
2 10 2

CELL_TYPES 10
3
3
3
3
3
3
3
3
3
3
POINT_DATA 11
FIELD FieldData 6
DISPLACEMENT 3 11  float
0.0000000e+00 0.0000000e+00 0.0000000e+00 
0.0000000e+00 -3.9682540e-04 0.0000000e+00 
0.0000000e+00 0.0000000e+00 0.0000000e+00 
0.0000000e+00 -5.1428571e-05 0.0000000e+00 
0.0000000e+00 -1.6253968e-04 0.0000000e+00 
0.0000000e+00 -2.8000001e-04 0.0000000e+00 
0.0000000e+00 -3.6571428e-04 0.0000000e+00 
0.0000000e+00 -3.6571428e-04 0.0000000e+00 
0.0000000e+00 -2.8000001e-04 0.0000000e+00 
0.0000000e+00 -1.6253968e-04 0.0000000e+00 
0.0000000e+00 -5.1428571e-05 0.0000000e+00 
REACTION 3 11  float
-1.7611713e+01 1.0000003e+04 0.0000000e+00 
4.4408921e-15 -1.0991471e-03 0.0000000e+00 
1.7611713e+01 1.0000003e+04 0.0000000e+00 
-7.1508636e+01 2.8367668e-02 0.0000000e+00 
-1.1885708e+01 6.9205333e-03 0.0000000e+00 
4.6941776e+01 -2.2612646e-02 0.0000000e+00 
4.6927906e+01 -1.4018957e-02 0.0000000e+00 
-4.6927906e+01 -1.4018957e-02 0.0000000e+00 
-4.6941776e+01 -2.2612646e-02 0.0000000e+00 
1.1885708e+01 7.0779077e-03 0.0000000e+00 
7.1508636e+01 2.8550291e-02 0.0000000e+00 
ROTATION 3 11  float
0.0000000e+00 0.0000000e+00 0.0000000e+00 
0.0000000e+00 0.0000000e+00 -2.2174346e-18 
0.0000000e+00 0.0000000e+00 0.0000000e+00 
0.0000000e+00 0.0000000e+00 -4.5714286e-04 
0.0000000e+00 0.0000000e+00 -6.0952379e-04 
0.0000000e+00 0.0000000e+00 -5.3333334e-04 
0.0000000e+00 0.0000000e+00 -3.0476190e-04 
0.0000000e+00 0.0000000e+00 3.0476190e-04 
0.0000000e+00 0.0000000e+00 5.3333334e-04 
0.0000000e+00 0.0000000e+00 6.0952379e-04 
0.0000000e+00 0.0000000e+00 4.5714286e-04 
REACTION_MOMENT 3 11  float
0.0000000e+00 0.0000000e+00 3.3000000e+03 
0.0000000e+00 0.0000000e+00 1.5916157e-12 
0.0000000e+00 0.0000000e+00 -3.2999998e+03 
0.0000000e+00 0.0000000e+00 -1.9881928e-03 
0.0000000e+00 0.0000000e+00 -4.2060683e-03 
0.0000000e+00 0.0000000e+00 -3.0621819e-03 
0.0000000e+00 0.0000000e+00 -8.2045415e-04 
0.0000000e+00 0.0000000e+00 8.2045421e-04 
0.0000000e+00 0.0000000e+00 3.0621816e-03 
0.0000000e+00 0.0000000e+00 4.2218058e-03 
0.0000000e+00 0.0000000e+00 2.0379301e-03 
FORCE 3 11  float
1.9925999e+01 -8.9999980e+03 0.0000000e+00 
7.2919259e+00 2.8421709e-14 0.0000000e+00 
1.9925999e+01 8.9999980e+03 0.0000000e+00 
5.6467621e+01 -7.9999893e+03 0.0000000e+00 
9.8475899e+01 -5.9999790e+03 0.0000000e+00 
7.9646278e+01 -3.9999844e+03 0.0000000e+00 
3.1320959e+01 -1.9999954e+03 0.0000000e+00 
3.1320959e+01 1.9999954e+03 0.0000000e+00 
7.9646278e+01 3.9999844e+03 0.0000000e+00 
9.8475899e+01 5.9999790e+03 0.0000000e+00 
5.6467621e+01 7.9999888e+03 0.0000000e+00 
MOMENT 3 11  float
0.0000000e+00 0.0000000e+00 2.5936492e+03 
0.0000000e+00 0.0000000e+00 -1.6215166e+03 
0.0000000e+00 0.0000000e+00 2.5936492e+03 
0.0000000e+00 0.0000000e+00 1.5784833e+03 
0.0000000e+00 0.0000000e+00 1.7848341e+02 
0.0000000e+00 0.0000000e+00 -8.2151648e+02 
0.0000000e+00 0.0000000e+00 -1.4215166e+03 
0.0000000e+00 0.0000000e+00 -1.4215166e+03 
0.0000000e+00 0.0000000e+00 -8.2151648e+02 
0.0000000e+00 0.0000000e+00 1.7848341e+02 
0.0000000e+00 0.0000000e+00 1.5784833e+03 
CELL_DATA 10
FIELD FieldData 2
FORCE 3 10  float
1.9925999e+01 -8.9999980e+03 0.0000000e+00 
9.3009239e+01 -6.9999805e+03 0.0000000e+00 
1.0394257e+02 -4.9999775e+03 0.0000000e+00 
5.5349991e+01 -2.9999912e+03 0.0000000e+00 
7.2919259e+00 -9.9999945e+02 0.0000000e+00 
7.2919259e+00 9.9999945e+02 0.0000000e+00 
5.5349991e+01 2.9999912e+03 0.0000000e+00 
1.0394257e+02 4.9999775e+03 0.0000000e+00 
9.3009239e+01 6.9999800e+03 0.0000000e+00 
1.9925999e+01 8.9999980e+03 0.0000000e+00 
MOMENT 3 10  float
0.0000000e+00 0.0000000e+00 2.4000000e+03 
0.0000000e+00 0.0000000e+00 8.0000012e+02 
0.0000000e+00 0.0000000e+00 -4.0000006e+02 
0.0000000e+00 0.0000000e+00 -1.2000001e+03 
0.0000000e+00 0.0000000e+00 -1.6000000e+03 
0.0000000e+00 0.0000000e+00 -1.6000000e+03 
0.0000000e+00 0.0000000e+00 -1.2000001e+03 
0.0000000e+00 0.0000000e+00 -4.0000006e+02 
0.0000000e+00 0.0000000e+00 8.0000012e+02 
0.0000000e+00 0.0000000e+00 2.4000000e+03 
