# vtk DataFile Version 4.0
vtk output
ASCII
DATASET UNSTRUCTURED_GRID
POINTS 212 float
0.0000000e+00 0.0000000e+00 0.0000000e+00 
0.0000000e+00 0.0000000e+00 2.5000000e-01 
0.0000000e+00 0.0000000e+00 5.0000000e-01 
0.0000000e+00 0.0000000e+00 7.5000000e-01 
0.0000000e+00 0.0000000e+00 1.0000000e+00 
0.0000000e+00 0.0000000e+00 1.2500000e+00 
0.0000000e+00 0.0000000e+00 1.5000000e+00 
0.0000000e+00 0.0000000e+00 1.7500000e+00 
0.0000000e+00 0.0000000e+00 2.0000000e+00 
0.0000000e+00 0.0000000e+00 2.2500000e+00 
0.0000000e+00 0.0000000e+00 2.5000000e+00 
0.0000000e+00 0.0000000e+00 2.7500000e+00 
0.0000000e+00 0.0000000e+00 3.0000000e+00 
0.0000000e+00 0.0000000e+00 3.2500000e+00 
0.0000000e+00 0.0000000e+00 3.5000000e+00 
0.0000000e+00 0.0000000e+00 3.7500000e+00 
0.0000000e+00 0.0000000e+00 4.0000000e+00 
0.0000000e+00 0.0000000e+00 4.2500000e+00 
0.0000000e+00 0.0000000e+00 4.5000000e+00 
0.0000000e+00 0.0000000e+00 4.7500000e+00 
0.0000000e+00 0.0000000e+00 5.0000000e+00 
0.0000000e+00 0.0000000e+00 5.2500000e+00 
0.0000000e+00 0.0000000e+00 5.5000000e+00 
0.0000000e+00 0.0000000e+00 5.7500000e+00 
0.0000000e+00 0.0000000e+00 6.0000000e+00 
0.0000000e+00 0.0000000e+00 6.2500000e+00 
0.0000000e+00 0.0000000e+00 6.5000000e+00 
0.0000000e+00 0.0000000e+00 6.7500000e+00 
0.0000000e+00 0.0000000e+00 7.0000000e+00 
0.0000000e+00 0.0000000e+00 7.2500000e+00 
0.0000000e+00 0.0000000e+00 7.5000000e+00 
0.0000000e+00 0.0000000e+00 7.7500000e+00 
0.0000000e+00 0.0000000e+00 8.0000000e+00 
0.0000000e+00 0.0000000e+00 8.2500000e+00 
0.0000000e+00 0.0000000e+00 8.5000000e+00 
0.0000000e+00 0.0000000e+00 8.7500000e+00 
0.0000000e+00 0.0000000e+00 9.0000000e+00 
0.0000000e+00 0.0000000e+00 9.2500000e+00 
0.0000000e+00 0.0000000e+00 9.5000000e+00 
0.0000000e+00 0.0000000e+00 9.7500000e+00 
0.0000000e+00 0.0000000e+00 1.0000000e+01 
0.0000000e+00 0.0000000e+00 1.0250000e+01 
0.0000000e+00 0.0000000e+00 1.0500000e+01 
0.0000000e+00 0.0000000e+00 1.0750000e+01 
0.0000000e+00 0.0000000e+00 1.1000000e+01 
0.0000000e+00 0.0000000e+00 1.1250000e+01 
0.0000000e+00 0.0000000e+00 1.1500000e+01 
0.0000000e+00 0.0000000e+00 1.1750000e+01 
0.0000000e+00 0.0000000e+00 1.2000000e+01 
0.0000000e+00 0.0000000e+00 1.2250000e+01 
0.0000000e+00 0.0000000e+00 1.2500000e+01 
0.0000000e+00 0.0000000e+00 1.2750000e+01 
0.0000000e+00 0.0000000e+00 1.3000000e+01 
0.0000000e+00 0.0000000e+00 1.3250000e+01 
0.0000000e+00 0.0000000e+00 1.3500000e+01 
0.0000000e+00 0.0000000e+00 1.3750000e+01 
0.0000000e+00 0.0000000e+00 1.4000000e+01 
0.0000000e+00 0.0000000e+00 1.4250000e+01 
0.0000000e+00 0.0000000e+00 1.4500000e+01 
0.0000000e+00 0.0000000e+00 1.4750000e+01 
0.0000000e+00 0.0000000e+00 1.5000000e+01 
0.0000000e+00 0.0000000e+00 1.5250000e+01 
0.0000000e+00 0.0000000e+00 1.5500000e+01 
0.0000000e+00 0.0000000e+00 1.5750000e+01 
0.0000000e+00 0.0000000e+00 1.6000000e+01 
0.0000000e+00 0.0000000e+00 1.6250000e+01 
0.0000000e+00 0.0000000e+00 1.6500000e+01 
0.0000000e+00 0.0000000e+00 1.6750000e+01 
0.0000000e+00 0.0000000e+00 1.7000000e+01 
0.0000000e+00 0.0000000e+00 1.7250000e+01 
0.0000000e+00 0.0000000e+00 1.7500000e+01 
0.0000000e+00 0.0000000e+00 1.7750000e+01 
0.0000000e+00 0.0000000e+00 1.8000000e+01 
5.0000000e-01 0.0000000e+00 3.0000000e+00 
5.0000000e-01 0.0000000e+00 6.0000000e+00 
5.0000000e-01 0.0000000e+00 9.0000000e+00 
5.0000000e-01 0.0000000e+00 1.2000000e+01 
5.0000000e-01 0.0000000e+00 1.5000000e+01 
5.0000000e-01 0.0000000e+00 1.8000000e+01 
1.0000000e+00 0.0000000e+00 3.0000000e+00 
1.0000000e+00 0.0000000e+00 6.0000000e+00 
1.0000000e+00 0.0000000e+00 9.0000000e+00 
1.0000000e+00 0.0000000e+00 1.2000000e+01 
1.0000000e+00 0.0000000e+00 1.5000000e+01 
1.0000000e+00 0.0000000e+00 1.8000000e+01 
1.5000000e+00 0.0000000e+00 3.0000000e+00 
1.5000000e+00 0.0000000e+00 6.0000000e+00 
1.5000000e+00 0.0000000e+00 9.0000000e+00 
1.5000000e+00 0.0000000e+00 1.2000000e+01 
1.5000000e+00 0.0000000e+00 1.5000000e+01 
1.5000000e+00 0.0000000e+00 1.8000000e+01 
2.0000000e+00 0.0000000e+00 3.0000000e+00 
2.0000000e+00 0.0000000e+00 6.0000000e+00 
2.0000000e+00 0.0000000e+00 9.0000000e+00 
2.0000000e+00 0.0000000e+00 1.2000000e+01 
2.0000000e+00 0.0000000e+00 1.5000000e+01 
2.0000000e+00 0.0000000e+00 1.8000000e+01 
2.5000000e+00 0.0000000e+00 3.0000000e+00 
2.5000000e+00 0.0000000e+00 6.0000000e+00 
2.5000000e+00 0.0000000e+00 9.0000000e+00 
2.5000000e+00 0.0000000e+00 1.2000000e+01 
2.5000000e+00 0.0000000e+00 1.5000000e+01 
2.5000000e+00 0.0000000e+00 1.8000000e+01 
3.0000000e+00 0.0000000e+00 3.0000000e+00 
3.0000000e+00 0.0000000e+00 6.0000000e+00 
3.0000000e+00 0.0000000e+00 9.0000000e+00 
3.0000000e+00 0.0000000e+00 1.2000000e+01 
3.0000000e+00 0.0000000e+00 1.5000000e+01 
3.0000000e+00 0.0000000e+00 1.8000000e+01 
3.5000000e+00 0.0000000e+00 3.0000000e+00 
3.5000000e+00 0.0000000e+00 6.0000000e+00 
3.5000000e+00 0.0000000e+00 9.0000000e+00 
3.5000000e+00 0.0000000e+00 1.2000000e+01 
3.5000000e+00 0.0000000e+00 1.5000000e+01 
3.5000000e+00 0.0000000e+00 1.8000000e+01 
4.0000000e+00 0.0000000e+00 3.0000000e+00 
4.0000000e+00 0.0000000e+00 6.0000000e+00 
4.0000000e+00 0.0000000e+00 9.0000000e+00 
4.0000000e+00 0.0000000e+00 1.2000000e+01 
4.0000000e+00 0.0000000e+00 1.5000000e+01 
4.0000000e+00 0.0000000e+00 1.8000000e+01 
4.5000000e+00 0.0000000e+00 3.0000000e+00 
4.5000000e+00 0.0000000e+00 6.0000000e+00 
4.5000000e+00 0.0000000e+00 9.0000000e+00 
4.5000000e+00 0.0000000e+00 1.2000000e+01 
4.5000000e+00 0.0000000e+00 1.5000000e+01 
4.5000000e+00 0.0000000e+00 1.8000000e+01 
5.0000000e+00 0.0000000e+00 3.0000000e+00 
5.0000000e+00 0.0000000e+00 6.0000000e+00 
5.0000000e+00 0.0000000e+00 9.0000000e+00 
5.0000000e+00 0.0000000e+00 1.2000000e+01 
5.0000000e+00 0.0000000e+00 1.5000000e+01 
5.0000000e+00 0.0000000e+00 1.8000000e+01 
5.5000000e+00 0.0000000e+00 3.0000000e+00 
5.5000000e+00 0.0000000e+00 6.0000000e+00 
5.5000000e+00 0.0000000e+00 9.0000000e+00 
5.5000000e+00 0.0000000e+00 1.2000000e+01 
5.5000000e+00 0.0000000e+00 1.5000000e+01 
5.5000000e+00 0.0000000e+00 1.8000000e+01 
6.0000000e+00 0.0000000e+00 0.0000000e+00 
6.0000000e+00 0.0000000e+00 2.5000000e-01 
6.0000000e+00 0.0000000e+00 5.0000000e-01 
6.0000000e+00 0.0000000e+00 7.5000000e-01 
6.0000000e+00 0.0000000e+00 1.0000000e+00 
6.0000000e+00 0.0000000e+00 1.2500000e+00 
6.0000000e+00 0.0000000e+00 1.5000000e+00 
6.0000000e+00 0.0000000e+00 1.7500000e+00 
6.0000000e+00 0.0000000e+00 2.0000000e+00 
6.0000000e+00 0.0000000e+00 2.2500000e+00 
6.0000000e+00 0.0000000e+00 2.5000000e+00 
6.0000000e+00 0.0000000e+00 2.7500000e+00 
6.0000000e+00 0.0000000e+00 3.0000000e+00 
6.0000000e+00 0.0000000e+00 3.2500000e+00 
6.0000000e+00 0.0000000e+00 3.5000000e+00 
6.0000000e+00 0.0000000e+00 3.7500000e+00 
6.0000000e+00 0.0000000e+00 4.0000000e+00 
6.0000000e+00 0.0000000e+00 4.2500000e+00 
6.0000000e+00 0.0000000e+00 4.5000000e+00 
6.0000000e+00 0.0000000e+00 4.7500000e+00 
6.0000000e+00 0.0000000e+00 5.0000000e+00 
6.0000000e+00 0.0000000e+00 5.2500000e+00 
6.0000000e+00 0.0000000e+00 5.5000000e+00 
6.0000000e+00 0.0000000e+00 5.7500000e+00 
6.0000000e+00 0.0000000e+00 6.0000000e+00 
6.0000000e+00 0.0000000e+00 6.2500000e+00 
6.0000000e+00 0.0000000e+00 6.5000000e+00 
6.0000000e+00 0.0000000e+00 6.7500000e+00 
6.0000000e+00 0.0000000e+00 7.0000000e+00 
6.0000000e+00 0.0000000e+00 7.2500000e+00 
6.0000000e+00 0.0000000e+00 7.5000000e+00 
6.0000000e+00 0.0000000e+00 7.7500000e+00 
6.0000000e+00 0.0000000e+00 8.0000000e+00 
6.0000000e+00 0.0000000e+00 8.2500000e+00 
6.0000000e+00 0.0000000e+00 8.5000000e+00 
6.0000000e+00 0.0000000e+00 8.7500000e+00 
6.0000000e+00 0.0000000e+00 9.0000000e+00 
6.0000000e+00 0.0000000e+00 9.2500000e+00 
6.0000000e+00 0.0000000e+00 9.5000000e+00 
6.0000000e+00 0.0000000e+00 9.7500000e+00 
6.0000000e+00 0.0000000e+00 1.0000000e+01 
6.0000000e+00 0.0000000e+00 1.0250000e+01 
6.0000000e+00 0.0000000e+00 1.0500000e+01 
6.0000000e+00 0.0000000e+00 1.0750000e+01 
6.0000000e+00 0.0000000e+00 1.1000000e+01 
6.0000000e+00 0.0000000e+00 1.1250000e+01 
6.0000000e+00 0.0000000e+00 1.1500000e+01 
6.0000000e+00 0.0000000e+00 1.1750000e+01 
6.0000000e+00 0.0000000e+00 1.2000000e+01 
6.0000000e+00 0.0000000e+00 1.2250000e+01 
6.0000000e+00 0.0000000e+00 1.2500000e+01 
6.0000000e+00 0.0000000e+00 1.2750000e+01 
6.0000000e+00 0.0000000e+00 1.3000000e+01 
6.0000000e+00 0.0000000e+00 1.3250000e+01 
6.0000000e+00 0.0000000e+00 1.3500000e+01 
6.0000000e+00 0.0000000e+00 1.3750000e+01 
6.0000000e+00 0.0000000e+00 1.4000000e+01 
6.0000000e+00 0.0000000e+00 1.4250000e+01 
6.0000000e+00 0.0000000e+00 1.4500000e+01 
6.0000000e+00 0.0000000e+00 1.4750000e+01 
6.0000000e+00 0.0000000e+00 1.5000000e+01 
6.0000000e+00 0.0000000e+00 1.5250000e+01 
6.0000000e+00 0.0000000e+00 1.5500000e+01 
6.0000000e+00 0.0000000e+00 1.5750000e+01 
6.0000000e+00 0.0000000e+00 1.6000000e+01 
6.0000000e+00 0.0000000e+00 1.6250000e+01 
6.0000000e+00 0.0000000e+00 1.6500000e+01 
6.0000000e+00 0.0000000e+00 1.6750000e+01 
6.0000000e+00 0.0000000e+00 1.7000000e+01 
6.0000000e+00 0.0000000e+00 1.7250000e+01 
6.0000000e+00 0.0000000e+00 1.7500000e+01 
6.0000000e+00 0.0000000e+00 1.7750000e+01 
6.0000000e+00 0.0000000e+00 1.8000000e+01 

CELLS 216 648
2 0 1
2 1 2
2 2 3
2 3 4
2 4 5
2 5 6
2 6 7
2 7 8
2 8 9
2 9 10
2 10 11
2 11 12
2 12 13
2 13 14
2 14 15
2 15 16
2 16 17
2 17 18
2 18 19
2 19 20
2 20 21
2 21 22
2 22 23
2 23 24
2 24 25
2 25 26
2 26 27
2 27 28
2 28 29
2 29 30
2 30 31
2 31 32
2 32 33
2 33 34
2 34 35
2 35 36
2 36 37
2 37 38
2 38 39
2 39 40
2 40 41
2 41 42
2 42 43
2 43 44
2 44 45
2 45 46
2 46 47
2 47 48
2 48 49
2 49 50
2 50 51
2 51 52
2 52 53
2 53 54
2 54 55
2 55 56
2 56 57
2 57 58
2 58 59
2 59 60
2 60 61
2 61 62
2 62 63
2 63 64
2 64 65
2 65 66
2 66 67
2 67 68
2 68 69
2 69 70
2 70 71
2 71 72
2 139 140
2 140 141
2 141 142
2 142 143
2 143 144
2 144 145
2 145 146
2 146 147
2 147 148
2 148 149
2 149 150
2 150 151
2 151 152
2 152 153
2 153 154
2 154 155
2 155 156
2 156 157
2 157 158
2 158 159
2 159 160
2 160 161
2 161 162
2 162 163
2 163 164
2 164 165
2 165 166
2 166 167
2 167 168
2 168 169
2 169 170
2 170 171
2 171 172
2 172 173
2 173 174
2 174 175
2 175 176
2 176 177
2 177 178
2 178 179
2 179 180
2 180 181
2 181 182
2 182 183
2 183 184
2 184 185
2 185 186
2 186 187
2 187 188
2 188 189
2 189 190
2 190 191
2 191 192
2 192 193
2 193 194
2 194 195
2 195 196
2 196 197
2 197 198
2 198 199
2 199 200
2 200 201
2 201 202
2 202 203
2 203 204
2 204 205
2 205 206
2 206 207
2 207 208
2 208 209
2 209 210
2 210 211
2 12 73
2 73 79
2 79 85
2 85 91
2 91 97
2 97 103
2 103 109
2 109 115
2 115 121
2 121 127
2 127 133
2 133 151
2 24 74
2 74 80
2 80 86
2 86 92
2 92 98
2 98 104
2 104 110
2 110 116
2 116 122
2 122 128
2 128 134
2 134 163
2 36 75
2 75 81
2 81 87
2 87 93
2 93 99
2 99 105
2 105 111
2 111 117
2 117 123
2 123 129
2 129 135
2 135 175
2 48 76
2 76 82
2 82 88
2 88 94
2 94 100
2 100 106
2 106 112
2 112 118
2 118 124
2 124 130
2 130 136
2 136 187
2 60 77
2 77 83
2 83 89
2 89 95
2 95 101
2 101 107
2 107 113
2 113 119
2 119 125
2 125 131
2 131 137
2 137 199
2 72 78
2 78 84
2 84 90
2 90 96
2 96 102
2 102 108
2 108 114
2 114 120
2 120 126
2 126 132
2 132 138
2 138 211

CELL_TYPES 216
3
3
3
3
3
3
3
3
3
3
3
3
3
3
3
3
3
3
3
3
3
3
3
3
3
3
3
3
3
3
3
3
3
3
3
3
3
3
3
3
3
3
3
3
3
3
3
3
3
3
3
3
3
3
3
3
3
3
3
3
3
3
3
3
3
3
3
3
3
3
3
3
3
3
3
3
3
3
3
3
3
3
3
3
3
3
3
3
3
3
3
3
3
3
3
3
3
3
3
3
3
3
3
3
3
3
3
3
3
3
3
3
3
3
3
3
3
3
3
3
3
3
3
3
3
3
3
3
3
3
3
3
3
3
3
3
3
3
3
3
3
3
3
3
3
3
3
3
3
3
3
3
3
3
3
3
3
3
3
3
3
3
3
3
3
3
3
3
3
3
3
3
3
3
3
3
3
3
3
3
3
3
3
3
3
3
3
3
3
3
3
3
3
3
3
3
3
3
3
3
3
3
3
3
3
3
3
3
3
3
3
3
3
3
3
3
POINT_DATA 212
FIELD FieldData 3
ADJOINT_DISPLACEMENT 3 212  float
0.0000000e+00 0.0000000e+00 0.0000000e+00 
-3.8195311e-03 0.0000000e+00 5.6636265e-16 
-7.7078566e-03 0.0000000e+00 1.1327253e-15 
-1.1733771e-02 0.0000000e+00 1.6990880e-15 
-1.5966069e-02 0.0000000e+00 2.2654506e-15 
-2.0473544e-02 0.0000000e+00 2.8318133e-15 
-2.5324993e-02 0.0000000e+00 3.3981759e-15 
-3.0589206e-02 0.0000000e+00 3.9645386e-15 
-3.6334980e-02 0.0000000e+00 4.5309012e-15 
-4.2631112e-02 0.0000000e+00 5.0972639e-15 
-4.9546394e-02 0.0000000e+00 5.6636265e-15 
-5.7149619e-02 0.0000000e+00 6.2299892e-15 
-6.5509588e-02 0.0000000e+00 6.7963518e-15 
-7.5433217e-02 0.0000000e+00 3.6750453e-06 
-8.7405279e-02 0.0000000e+00 7.3500905e-06 
-1.0101131e-01 0.0000000e+00 1.1025136e-05 
-1.1583687e-01 0.0000000e+00 1.4700181e-05 
-1.3146749e-01 0.0000000e+00 1.8375225e-05 
-1.4748873e-01 0.0000000e+00 2.2050272e-05 
-1.6348612e-01 0.0000000e+00 2.5725316e-05 
-1.7904522e-01 0.0000000e+00 2.9400362e-05 
-1.9375156e-01 0.0000000e+00 3.3075405e-05 
-2.0719071e-01 0.0000000e+00 3.6750451e-05 
-2.1894819e-01 0.0000000e+00 4.0425497e-05 
-2.2860955e-01 0.0000000e+00 4.4100543e-05 
-2.3793539e-01 0.0000000e+00 6.2478248e-05 
-2.4871421e-01 0.0000000e+00 8.0855956e-05 
-2.6057336e-01 0.0000000e+00 9.9233665e-05 
-2.7314019e-01 0.0000000e+00 1.1761137e-04 
-2.8604212e-01 0.0000000e+00 1.3598907e-04 
-2.9890648e-01 0.0000000e+00 1.5436679e-04 
-3.1136066e-01 0.0000000e+00 1.7274449e-04 
-3.2303202e-01 0.0000000e+00 1.9112219e-04 
-3.3354792e-01 0.0000000e+00 2.0949991e-04 
-3.4253573e-01 0.0000000e+00 2.2787761e-04 
-3.4962285e-01 0.0000000e+00 2.4625531e-04 
-3.5443664e-01 0.0000000e+00 2.6463301e-04 
-3.5515308e-01 0.0000000e+00 2.6846782e-04 
-3.5072726e-01 0.0000000e+00 2.7230260e-04 
-3.4195516e-01 0.0000000e+00 2.7613738e-04 
-3.2963273e-01 0.0000000e+00 2.7997216e-04 
-3.1455591e-01 0.0000000e+00 2.8380693e-04 
-2.9752073e-01 0.0000000e+00 2.8764171e-04 
-2.7932307e-01 0.0000000e+00 2.9147649e-04 
-2.6075894e-01 0.0000000e+00 2.9531130e-04 
-2.4262430e-01 0.0000000e+00 2.9914608e-04 
-2.2571510e-01 0.0000000e+00 3.0298086e-04 
-2.1082732e-01 0.0000000e+00 3.0681564e-04 
-1.9875690e-01 0.0000000e+00 3.1065042e-04 
-1.8932985e-01 0.0000000e+00 3.1144923e-04 
-1.8171960e-01 0.0000000e+00 3.1224801e-04 
-1.7574330e-01 0.0000000e+00 3.1304680e-04 
-1.7121810e-01 0.0000000e+00 3.1384561e-04 
-1.6796118e-01 0.0000000e+00 3.1464439e-04 
-1.6578968e-01 0.0000000e+00 3.1544321e-04 
-1.6452076e-01 0.0000000e+00 3.1624199e-04 
-1.6397157e-01 0.0000000e+00 3.1704080e-04 
-1.6395928e-01 0.0000000e+00 3.1783959e-04 
-1.6430104e-01 0.0000000e+00 3.1863837e-04 
-1.6481400e-01 0.0000000e+00 3.1943718e-04 
-1.6531532e-01 0.0000000e+00 3.2023597e-04 
-1.6559879e-01 0.0000000e+00 3.2039572e-04 
-1.6560337e-01 0.0000000e+00 3.2055544e-04 
-1.6536398e-01 0.0000000e+00 3.2071519e-04 
-1.6491556e-01 0.0000000e+00 3.2087491e-04 
-1.6429302e-01 0.0000000e+00 3.2103466e-04 
-1.6353127e-01 0.0000000e+00 3.2119441e-04 
-1.6266526e-01 0.0000000e+00 3.2135413e-04 
-1.6172989e-01 0.0000000e+00 3.2151389e-04 
-1.6076009e-01 0.0000000e+00 3.2167361e-04 
-1.5979078e-01 0.0000000e+00 3.2183336e-04 
-1.5885688e-01 0.0000000e+00 3.2199308e-04 
-1.5799333e-01 0.0000000e+00 3.2215283e-04 
-6.5478265e-02 0.0000000e+00 1.4399037e-02 
-2.2861226e-01 0.0000000e+00 8.9270193e-03 
-3.5451236e-01 0.0000000e+00 1.3356555e-02 
-1.9869347e-01 0.0000000e+00 -1.7379686e-02 
-1.6532943e-01 0.0000000e+00 1.4016988e-03 
-1.5799107e-01 0.0000000e+00 -1.1073967e-03 
-6.5446943e-02 0.0000000e+00 2.3155916e-02 
-2.2861497e-01 0.0000000e+00 4.0948801e-03 
-3.5458812e-01 0.0000000e+00 3.6027309e-02 
-1.9863003e-01 0.0000000e+00 -2.9364733e-02 
-1.6534355e-01 0.0000000e+00 2.8027014e-03 
-1.5798880e-01 0.0000000e+00 -2.1553440e-03 
-6.5415621e-02 0.0000000e+00 2.7177883e-02 
-2.2861768e-01 0.0000000e+00 -1.0822724e-02 
-3.5466385e-01 0.0000000e+00 6.4686731e-02 
-1.9856660e-01 0.0000000e+00 -3.6393978e-02 
-1.6535766e-01 0.0000000e+00 4.3654824e-03 
-1.5798654e-01 0.0000000e+00 -2.8611231e-03 
-6.5384299e-02 0.0000000e+00 2.7372181e-02 
-2.2862040e-01 0.0000000e+00 -3.2196198e-02 
-3.5473958e-01 0.0000000e+00 9.5744669e-02 
-1.9850315e-01 0.0000000e+00 -3.9216898e-02 
-1.6537178e-01 0.0000000e+00 5.9322785e-03 
-1.5798429e-01 0.0000000e+00 -3.2641678e-03 
-6.5352984e-02 0.0000000e+00 2.4646061e-02 
-2.2862311e-01 0.0000000e+00 -5.6395948e-02 
-3.5481533e-01 0.0000000e+00 1.2561095e-01 
-1.9843972e-01 0.0000000e+00 -3.8582981e-02 
-1.6538589e-01 0.0000000e+00 7.3453286e-03 
-1.5798202e-01 0.0000000e+00 -3.4039121e-03 
-6.5321662e-02 0.0000000e+00 1.9906761e-02 
-2.2862582e-01 0.0000000e+00 -7.9792388e-02 
-3.5489106e-01 0.0000000e+00 1.5069543e-01 
-1.9837628e-01 0.0000000e+00 -3.5241704e-02 
-1.6540000e-01 0.0000000e+00 8.4468704e-03 
-1.5797976e-01 0.0000000e+00 -3.3197897e-03 
-6.5290339e-02 0.0000000e+00 1.4061532e-02 
-2.2862853e-01 0.0000000e+00 -9.8755911e-02 
-3.5496682e-01 0.0000000e+00 1.6740794e-01 
-1.9831283e-01 0.0000000e+00 -2.9942559e-02 
-1.6541411e-01 0.0000000e+00 9.0791415e-03 
-1.5797749e-01 0.0000000e+00 -3.0512344e-03 
-6.5259017e-02 0.0000000e+00 8.0176163e-03 
-2.2863123e-01 0.0000000e+00 -1.0965693e-01 
-3.5504255e-01 0.0000000e+00 1.7215832e-01 
-1.9824940e-01 0.0000000e+00 -2.3435023e-02 
-1.6542824e-01 0.0000000e+00 9.0843793e-03 
-1.5797523e-01 0.0000000e+00 -2.6376804e-03 
-6.5227702e-02 0.0000000e+00 2.6822595e-03 
-2.2863394e-01 0.0000000e+00 -1.0886585e-01 
-3.5511827e-01 0.0000000e+00 1.6135642e-01 
-1.9818597e-01 0.0000000e+00 -1.6468581e-02 
-1.6544235e-01 0.0000000e+00 8.3048232e-03 
-1.5797296e-01 0.0000000e+00 -2.1185614e-03 
-6.5196380e-02 0.0000000e+00 -1.0372919e-03 
-2.2863665e-01 0.0000000e+00 -9.2753083e-02 
-3.5519403e-01 0.0000000e+00 1.3141206e-01 
-1.9812252e-01 0.0000000e+00 -9.7927162e-03 
-1.6545646e-01 0.0000000e+00 6.5827100e-03 
-1.5797070e-01 0.0000000e+00 -1.5333112e-03 
-6.5165058e-02 0.0000000e+00 -2.2337937e-03 
-2.2863936e-01 0.0000000e+00 -5.7689033e-02 
-3.5526976e-01 0.0000000e+00 7.8735098e-02 
-1.9805908e-01 0.0000000e+00 -4.1569117e-03 
-1.6547057e-01 0.0000000e+00 3.7602775e-03 
-1.5796843e-01 0.0000000e+00 -9.2136371e-04 
0.0000000e+00 0.0000000e+00 0.0000000e+00 
-7.0674126e-03 0.0000000e+00 -5.5981244e-16 
-1.4066030e-02 0.0000000e+00 -1.1196248e-15 
-2.0927060e-02 0.0000000e+00 -1.6794420e-15 
-2.7581705e-02 0.0000000e+00 -2.2392589e-15 
-3.3961173e-02 0.0000000e+00 -2.7990780e-15 
-3.9996669e-02 0.0000000e+00 -3.3588984e-15 
-4.5619398e-02 0.0000000e+00 -3.9187221e-15 
-5.0760567e-02 0.0000000e+00 -4.4785402e-15 
-5.5351380e-02 0.0000000e+00 -5.0383451e-15 
-5.9323043e-02 0.0000000e+00 -5.5981670e-15 
-6.2606759e-02 0.0000000e+00 -6.1579850e-15 
-6.5133736e-02 0.0000000e+00 -6.7177891e-15 
-6.7457914e-02 0.0000000e+00 -3.6750453e-06 
-7.0455402e-02 0.0000000e+00 -7.3500905e-06 
-7.4540652e-02 0.0000000e+00 -1.1025136e-05 
-8.0128111e-02 0.0000000e+00 -1.4700181e-05 
-8.7632246e-02 0.0000000e+00 -1.8375225e-05 
-9.7467497e-02 0.0000000e+00 -2.2050272e-05 
-1.1004833e-01 0.0000000e+00 -2.5725316e-05 
-1.2578920e-01 0.0000000e+00 -2.9400362e-05 
-1.4510456e-01 0.0000000e+00 -3.3075405e-05 
-1.6840884e-01 0.0000000e+00 -3.6750451e-05 
-1.9611654e-01 0.0000000e+00 -4.0425497e-05 
-2.2864208e-01 0.0000000e+00 -4.4100543e-05 
-2.6966926e-01 0.0000000e+00 -6.2478248e-05 
-3.2285401e-01 0.0000000e+00 -8.0855956e-05 
-3.8856891e-01 0.0000000e+00 -9.9233665e-05 
-4.6718666e-01 0.0000000e+00 -1.1761137e-04 
-5.5907983e-01 0.0000000e+00 -1.3598907e-04 
-6.6462111e-01 0.0000000e+00 -1.5436679e-04 
-7.8418303e-01 0.0000000e+00 -1.7274449e-04 
-6.6813833e-01 0.0000000e+00 -1.9112219e-04 
-5.6685960e-01 0.0000000e+00 -2.0949991e-04 
-4.8071948e-01 0.0000000e+00 -2.2787761e-04 
-4.1009057e-01 0.0000000e+00 -2.4625531e-04 
-3.5534549e-01 0.0000000e+00 -2.6463301e-04 
-3.1292304e-01 0.0000000e+00 -2.6846782e-04 
-2.7848288e-01 0.0000000e+00 -2.7230260e-04 
-2.5122908e-01 0.0000000e+00 -2.7613738e-04 
-2.3036562e-01 0.0000000e+00 -2.7997216e-04 
-2.1509656e-01 0.0000000e+00 -2.8380693e-04 
-2.0462595e-01 0.0000000e+00 -2.8764171e-04 
-1.9815782e-01 0.0000000e+00 -2.9147649e-04 
-1.9489621e-01 0.0000000e+00 -2.9531130e-04 
-1.9404514e-01 0.0000000e+00 -2.9914608e-04 
-1.9480868e-01 0.0000000e+00 -3.0298086e-04 
-1.9639082e-01 0.0000000e+00 -3.0681564e-04 
-1.9799565e-01 0.0000000e+00 -3.1065042e-04 
-1.9867292e-01 0.0000000e+00 -3.1144923e-04 
-1.9812499e-01 0.0000000e+00 -3.1224801e-04 
-1.9653469e-01 0.0000000e+00 -3.1304680e-04 
-1.9408487e-01 0.0000000e+00 -3.1384561e-04 
-1.9095835e-01 0.0000000e+00 -3.1464439e-04 
-1.8733802e-01 0.0000000e+00 -3.1544321e-04 
-1.8340668e-01 0.0000000e+00 -3.1624199e-04 
-1.7934720e-01 0.0000000e+00 -3.1704080e-04 
-1.7534243e-01 0.0000000e+00 -3.1783959e-04 
-1.7157517e-01 0.0000000e+00 -3.1863837e-04 
-1.6822831e-01 0.0000000e+00 -3.1943718e-04 
-1.6548468e-01 0.0000000e+00 -3.2023597e-04 
-1.6331385e-01 0.0000000e+00 -3.2039572e-04 
-1.6154021e-01 0.0000000e+00 -3.2055544e-04 
-1.6012882e-01 0.0000000e+00 -3.2071519e-04 
-1.5904479e-01 0.0000000e+00 -3.2087491e-04 
-1.5825316e-01 0.0000000e+00 -3.2103466e-04 
-1.5771905e-01 0.0000000e+00 -3.2119441e-04 
-1.5740751e-01 0.0000000e+00 -3.2135413e-04 
-1.5728362e-01 0.0000000e+00 -3.2151389e-04 
-1.5731247e-01 0.0000000e+00 -3.2167361e-04 
-1.5745912e-01 0.0000000e+00 -3.2183336e-04 
-1.5768866e-01 0.0000000e+00 -3.2199308e-04 
-1.5796617e-01 0.0000000e+00 -3.2215283e-04 
ADJOINT_ROTATION 3 212  float
0.0000000e+00 -1.5232261e-02 0.0000000e+00 
0.0000000e+00 -1.5369850e-02 0.0000000e+00 
0.0000000e+00 -1.5782617e-02 0.0000000e+00 
0.0000000e+00 -1.6470561e-02 0.0000000e+00 
0.0000000e+00 -1.7433684e-02 0.0000000e+00 
0.0000000e+00 -1.8671984e-02 0.0000000e+00 
0.0000000e+00 -2.0185461e-02 0.0000000e+00 
0.0000000e+00 -2.1974117e-02 0.0000000e+00 
0.0000000e+00 -2.4037950e-02 0.0000000e+00 
0.0000000e+00 -2.6376961e-02 0.0000000e+00 
0.0000000e+00 -2.8991150e-02 0.0000000e+00 
0.0000000e+00 -3.1880517e-02 0.0000000e+00 
0.0000000e+00 -3.5045061e-02 0.0000000e+00 
0.0000000e+00 -4.4067688e-02 0.0000000e+00 
0.0000000e+00 -5.1432498e-02 0.0000000e+00 
0.0000000e+00 -5.7139490e-02 0.0000000e+00 
0.0000000e+00 -6.1188664e-02 0.0000000e+00 
0.0000000e+00 -6.3580021e-02 0.0000000e+00 
0.0000000e+00 -6.4313561e-02 0.0000000e+00 
0.0000000e+00 -6.3389279e-02 0.0000000e+00 
0.0000000e+00 -6.0807187e-02 0.0000000e+00 
0.0000000e+00 -5.6567274e-02 0.0000000e+00 
0.0000000e+00 -5.0669540e-02 0.0000000e+00 
0.0000000e+00 -4.3113992e-02 0.0000000e+00 
0.0000000e+00 -3.3900626e-02 0.0000000e+00 
0.0000000e+00 -4.0457740e-02 0.0000000e+00 
0.0000000e+00 -4.5524333e-02 0.0000000e+00 
0.0000000e+00 -4.9100406e-02 0.0000000e+00 
0.0000000e+00 -5.1185954e-02 0.0000000e+00 
0.0000000e+00 -5.1780984e-02 0.0000000e+00 
0.0000000e+00 -5.0885491e-02 0.0000000e+00 
0.0000000e+00 -4.8499476e-02 0.0000000e+00 
0.0000000e+00 -4.4622939e-02 0.0000000e+00 
0.0000000e+00 -3.9255880e-02 0.0000000e+00 
0.0000000e+00 -3.2398298e-02 0.0000000e+00 
0.0000000e+00 -2.4050197e-02 0.0000000e+00 
0.0000000e+00 -1.4211574e-02 0.0000000e+00 
0.0000000e+00 7.9493755e-03 0.0000000e+00 
0.0000000e+00 2.6926473e-02 0.0000000e+00 
0.0000000e+00 4.2719722e-02 0.0000000e+00 
0.0000000e+00 5.5329114e-02 0.0000000e+00 
0.0000000e+00 6.4754657e-02 0.0000000e+00 
0.0000000e+00 7.0996352e-02 0.0000000e+00 
0.0000000e+00 7.4054189e-02 0.0000000e+00 
0.0000000e+00 7.3928177e-02 0.0000000e+00 
0.0000000e+00 7.0618317e-02 0.0000000e+00 
0.0000000e+00 6.4124599e-02 0.0000000e+00 
0.0000000e+00 5.4447033e-02 0.0000000e+00 
0.0000000e+00 4.1585617e-02 0.0000000e+00 
0.0000000e+00 3.3952732e-02 0.0000000e+00 
0.0000000e+00 2.7051223e-02 0.0000000e+00 
0.0000000e+00 2.0881090e-02 0.0000000e+00 
0.0000000e+00 1.5442332e-02 0.0000000e+00 
0.0000000e+00 1.0734950e-02 0.0000000e+00 
0.0000000e+00 6.7589437e-03 0.0000000e+00 
0.0000000e+00 3.5143124e-03 0.0000000e+00 
0.0000000e+00 1.0010567e-03 0.0000000e+00 
0.0000000e+00 -7.8082335e-04 0.0000000e+00 
0.0000000e+00 -1.8313280e-03 0.0000000e+00 
0.0000000e+00 -2.1504571e-03 0.0000000e+00 
0.0000000e+00 -1.7382109e-03 0.0000000e+00 
0.0000000e+00 -5.5281934e-04 0.0000000e+00 
0.0000000e+00 4.9288280e-04 0.0000000e+00 
0.0000000e+00 1.3988956e-03 0.0000000e+00 
0.0000000e+00 2.1652190e-03 0.0000000e+00 
0.0000000e+00 2.7918532e-03 0.0000000e+00 
0.0000000e+00 3.2787980e-03 0.0000000e+00 
0.0000000e+00 3.6260535e-03 0.0000000e+00 
0.0000000e+00 3.8336194e-03 0.0000000e+00 
0.0000000e+00 3.9014963e-03 0.0000000e+00 
0.0000000e+00 3.8296836e-03 0.0000000e+00 
0.0000000e+00 3.6181817e-03 0.0000000e+00 
0.0000000e+00 3.2669902e-03 0.0000000e+00 
0.0000000e+00 -2.2853501e-02 0.0000000e+00 
0.0000000e+00 -2.8409152e-03 0.0000000e+00 
0.0000000e+00 -3.6959395e-02 0.0000000e+00 
0.0000000e+00 2.9425556e-02 0.0000000e+00 
0.0000000e+00 -2.5350528e-03 0.0000000e+00 
0.0000000e+00 2.4643522e-03 0.0000000e+00 
0.0000000e+00 -1.2476430e-02 0.0000000e+00 
0.0000000e+00 2.0959608e-02 0.0000000e+00 
0.0000000e+00 -5.2526895e-02 0.0000000e+00 
0.0000000e+00 1.8764462e-02 0.0000000e+00 
0.0000000e+00 -3.0163708e-03 0.0000000e+00 
0.0000000e+00 1.7405818e-03 0.0000000e+00 
0.0000000e+00 -3.9138515e-03 0.0000000e+00 
0.0000000e+00 3.7500944e-02 0.0000000e+00 
0.0000000e+00 -6.0914077e-02 0.0000000e+00 
0.0000000e+00 9.6023353e-03 0.0000000e+00 
0.0000000e+00 -3.1821644e-03 0.0000000e+00 
0.0000000e+00 1.0956792e-03 0.0000000e+00 
0.0000000e+00 2.8342376e-03 0.0000000e+00 
0.0000000e+00 4.6783090e-02 0.0000000e+00 
0.0000000e+00 -6.2120941e-02 0.0000000e+00 
0.0000000e+00 1.9391746e-03 0.0000000e+00 
0.0000000e+00 -3.0324338e-03 0.0000000e+00 
0.0000000e+00 5.2964431e-04 0.0000000e+00 
0.0000000e+00 7.7678356e-03 0.0000000e+00 
0.0000000e+00 4.8806053e-02 0.0000000e+00 
0.0000000e+00 -5.6147482e-02 0.0000000e+00 
0.0000000e+00 -4.2250198e-03 0.0000000e+00 
0.0000000e+00 -2.5671790e-03 0.0000000e+00 
0.0000000e+00 4.2477204e-05 0.0000000e+00 
0.0000000e+00 1.0886944e-02 0.0000000e+00 
0.0000000e+00 4.3569826e-02 0.0000000e+00 
0.0000000e+00 -4.2993706e-02 0.0000000e+00 
0.0000000e+00 -8.8902479e-03 0.0000000e+00 
0.0000000e+00 -1.7864000e-03 0.0000000e+00 
0.0000000e+00 -3.6582217e-04 0.0000000e+00 
0.0000000e+00 1.2191561e-02 0.0000000e+00 
0.0000000e+00 3.1074410e-02 0.0000000e+00 
0.0000000e+00 -2.2659611e-02 0.0000000e+00 
0.0000000e+00 -1.2056510e-02 0.0000000e+00 
0.0000000e+00 -6.9009676e-04 0.0000000e+00 
0.0000000e+00 -6.9525384e-04 0.0000000e+00 
0.0000000e+00 1.1681687e-02 0.0000000e+00 
0.0000000e+00 1.1319809e-02 0.0000000e+00 
0.0000000e+00 4.8548058e-03 0.0000000e+00 
0.0000000e+00 -1.3723806e-02 0.0000000e+00 
0.0000000e+00 7.2173070e-04 0.0000000e+00 
0.0000000e+00 -9.4581774e-04 0.0000000e+00 
0.0000000e+00 9.3573229e-03 0.0000000e+00 
0.0000000e+00 -1.5693979e-02 0.0000000e+00 
0.0000000e+00 3.9549541e-02 0.0000000e+00 
0.0000000e+00 -1.3892135e-02 0.0000000e+00 
0.0000000e+00 2.4490824e-03 0.0000000e+00 
0.0000000e+00 -1.1175139e-03 0.0000000e+00 
0.0000000e+00 5.2184681e-03 0.0000000e+00 
0.0000000e+00 -4.9966957e-02 0.0000000e+00 
0.0000000e+00 8.1424594e-02 0.0000000e+00 
0.0000000e+00 -1.2561497e-02 0.0000000e+00 
0.0000000e+00 4.4919583e-03 0.0000000e+00 
0.0000000e+00 -1.2103423e-03 0.0000000e+00 
0.0000000e+00 -7.3487690e-04 0.0000000e+00 
0.0000000e+00 -9.1499120e-02 0.0000000e+00 
0.0000000e+00 1.3047998e-01 0.0000000e+00 
0.0000000e+00 -9.7318934e-03 0.0000000e+00 
0.0000000e+00 6.8503586e-03 0.0000000e+00 
0.0000000e+00 -1.2243029e-03 0.0000000e+00 
0.0000000e+00 -2.8315512e-02 0.0000000e+00 
0.0000000e+00 -2.8177924e-02 0.0000000e+00 
0.0000000e+00 -2.7765157e-02 0.0000000e+00 
0.0000000e+00 -2.7077213e-02 0.0000000e+00 
0.0000000e+00 -2.6114091e-02 0.0000000e+00 
0.0000000e+00 -2.4875790e-02 0.0000000e+00 
0.0000000e+00 -2.3362312e-02 0.0000000e+00 
0.0000000e+00 -2.1573657e-02 0.0000000e+00 
0.0000000e+00 -1.9509824e-02 0.0000000e+00 
0.0000000e+00 -1.7170813e-02 0.0000000e+00 
0.0000000e+00 -1.4556624e-02 0.0000000e+00 
0.0000000e+00 -1.1667257e-02 0.0000000e+00 
0.0000000e+00 -8.5027125e-03 0.0000000e+00 
0.0000000e+00 -1.0367028e-02 0.0000000e+00 
0.0000000e+00 -1.3889163e-02 0.0000000e+00 
0.0000000e+00 -1.9069115e-02 0.0000000e+00 
0.0000000e+00 -2.5906883e-02 0.0000000e+00 
0.0000000e+00 -3.4402471e-02 0.0000000e+00 
0.0000000e+00 -4.4555873e-02 0.0000000e+00 
0.0000000e+00 -5.6367096e-02 0.0000000e+00 
0.0000000e+00 -6.9836132e-02 0.0000000e+00 
0.0000000e+00 -8.4962994e-02 0.0000000e+00 
0.0000000e+00 -1.0174767e-01 0.0000000e+00 
0.0000000e+00 -1.2019016e-01 0.0000000e+00 
0.0000000e+00 -1.4029047e-01 0.0000000e+00 
0.0000000e+00 -1.8817542e-01 0.0000000e+00 
0.0000000e+00 -2.3755090e-01 0.0000000e+00 
0.0000000e+00 -2.8841689e-01 0.0000000e+00 
0.0000000e+00 -3.4077340e-01 0.0000000e+00 
0.0000000e+00 -3.9462045e-01 0.0000000e+00 
0.0000000e+00 -4.4995800e-01 0.0000000e+00 
0.0000000e+00 -5.0678611e-01 0.0000000e+00 
0.0000000e+00 4.3489531e-01 0.0000000e+00 
0.0000000e+00 3.7508619e-01 0.0000000e+00 
0.0000000e+00 3.1378654e-01 0.0000000e+00 
0.0000000e+00 2.5099635e-01 0.0000000e+00 
0.0000000e+00 1.8671566e-01 0.0000000e+00 
0.0000000e+00 1.5319456e-01 0.0000000e+00 
0.0000000e+00 1.2285732e-01 0.0000000e+00 
0.0000000e+00 9.5703922e-02 0.0000000e+00 
0.0000000e+00 7.1734376e-02 0.0000000e+00 
0.0000000e+00 5.0948683e-02 0.0000000e+00 
0.0000000e+00 3.3346843e-02 0.0000000e+00 
0.0000000e+00 1.8928854e-02 0.0000000e+00 
0.0000000e+00 7.6947147e-03 0.0000000e+00 
0.0000000e+00 -3.5557215e-04 0.0000000e+00 
0.0000000e+00 -5.2220076e-03 0.0000000e+00 
0.0000000e+00 -6.9045913e-03 0.0000000e+00 
0.0000000e+00 -5.4033236e-03 0.0000000e+00 
0.0000000e+00 -1.3679091e-04 0.0000000e+00 
0.0000000e+00 4.3983660e-03 0.0000000e+00 
0.0000000e+00 8.2021477e-03 0.0000000e+00 
0.0000000e+00 1.1274554e-02 0.0000000e+00 
0.0000000e+00 1.3615584e-02 0.0000000e+00 
0.0000000e+00 1.5225239e-02 0.0000000e+00 
0.0000000e+00 1.6103519e-02 0.0000000e+00 
0.0000000e+00 1.6250422e-02 0.0000000e+00 
0.0000000e+00 1.5665950e-02 0.0000000e+00 
0.0000000e+00 1.4350103e-02 0.0000000e+00 
0.0000000e+00 1.2302881e-02 0.0000000e+00 
0.0000000e+00 9.5242830e-03 0.0000000e+00 
0.0000000e+00 7.8656850e-03 0.0000000e+00 
0.0000000e+00 6.3467762e-03 0.0000000e+00 
0.0000000e+00 4.9675568e-03 0.0000000e+00 