# vtk DataFile Version 4.0
vtk output
ASCII
DATASET UNSTRUCTURED_GRID
POINTS 30 float
0.0000000e+00 0.0000000e+00 0.0000000e+00 
0.0000000e+00 0.0000000e+00 8.0000001e-01 
0.0000000e+00 0.0000000e+00 1.6000000e+00 
0.0000000e+00 0.0000000e+00 2.4000001e+00 
0.0000000e+00 0.0000000e+00 3.2000000e+00 
0.0000000e+00 0.0000000e+00 4.0000000e+00 
0.0000000e+00 0.0000000e+00 4.8000002e+00 
0.0000000e+00 0.0000000e+00 5.5999999e+00 
0.0000000e+00 0.0000000e+00 6.4000001e+00 
0.0000000e+00 0.0000000e+00 7.1999998e+00 
0.0000000e+00 0.0000000e+00 8.0000000e+00 
1.0000000e+01 0.0000000e+00 0.0000000e+00 
1.0000000e+01 0.0000000e+00 8.0000001e-01 
1.0000000e+01 0.0000000e+00 1.6000000e+00 
1.0000000e+01 0.0000000e+00 2.4000001e+00 
1.0000000e+01 0.0000000e+00 3.2000000e+00 
1.0000000e+01 0.0000000e+00 4.0000000e+00 
1.0000000e+01 0.0000000e+00 4.8000002e+00 
1.0000000e+01 0.0000000e+00 5.5999999e+00 
1.0000000e+01 0.0000000e+00 6.4000001e+00 
1.0000000e+01 0.0000000e+00 7.1999998e+00 
1.0000000e+01 0.0000000e+00 8.0000000e+00 
2.0000000e+00 0.0000000e+00 4.0000000e+00 
4.0000000e+00 0.0000000e+00 4.0000000e+00 
6.0000000e+00 0.0000000e+00 4.0000000e+00 
8.0000000e+00 0.0000000e+00 4.0000000e+00 
2.0000000e+00 0.0000000e+00 8.0000000e+00 
4.0000000e+00 0.0000000e+00 8.0000000e+00 
6.0000000e+00 0.0000000e+00 8.0000000e+00 
8.0000000e+00 0.0000000e+00 8.0000000e+00 

CELLS 30 90
2 0 1
2 1 2
2 2 3
2 3 4
2 4 5
2 5 6
2 6 7
2 7 8
2 8 9
2 9 10
2 11 12
2 12 13
2 13 14
2 14 15
2 15 16
2 16 17
2 17 18
2 18 19
2 19 20
2 20 21
2 5 22
2 22 23
2 23 24
2 24 25
2 25 16
2 10 26
2 26 27
2 27 28
2 28 29
2 29 21

CELL_TYPES 30
3
3
3
3
3
3
3
3
3
3
3
3
3
3
3
3
3
3
3
3
3
3
3
3
3
3
3
3
3
3
POINT_DATA 30
FIELD FieldData 7
DISPLACEMENT 3 30  float
0.0000000e+00 0.0000000e+00 0.0000000e+00 
1.3906538e-03 0.0000000e+00 4.5750986e-07 
2.7975054e-03 0.0000000e+00 4.0623050e-07 
4.1805399e-03 0.0000000e+00 5.2874623e-07 
5.4026670e-03 0.0000000e+00 -3.0832355e-06 
6.3500302e-03 0.0000000e+00 -3.8303274e-06 
7.0536979e-03 0.0000000e+00 -4.0673867e-06 
7.5245071e-03 0.0000000e+00 -1.8233637e-06 
7.7548865e-03 0.0000000e+00 -2.4868320e-06 
7.8370459e-03 0.0000000e+00 -3.1503005e-06 
7.8719286e-03 0.0000000e+00 -5.1092047e-06 
0.0000000e+00 0.0000000e+00 0.0000000e+00 
1.5445107e-03 0.0000000e+00 4.7552592e-07 
2.9761461e-03 0.0000000e+00 4.1448047e-06 
4.2686923e-03 0.0000000e+00 5.2419241e-06 
5.4037748e-03 0.0000000e+00 7.3719348e-06 
6.2797461e-03 0.0000000e+00 6.9726057e-06 
6.8800086e-03 0.0000000e+00 5.3889189e-06 
7.3307888e-03 0.0000000e+00 4.7860135e-06 
7.6407185e-03 0.0000000e+00 6.2366985e-06 
7.8099519e-03 0.0000000e+00 7.6873830e-06 
7.8409314e-03 0.0000000e+00 5.5406658e-06 
6.3455552e-03 0.0000000e+00 -1.2580181e-03 
6.3326163e-03 0.0000000e+00 -9.9827547e-04 
6.3135494e-03 0.0000000e+00 2.1831582e-04 
6.2944819e-03 0.0000000e+00 9.5856830e-04 
7.8636305e-03 0.0000000e+00 -1.0280378e-04 
7.8553334e-03 0.0000000e+00 -2.0043651e-04 
7.8463750e-03 0.0000000e+00 -2.6944643e-04 
7.8405356e-03 0.0000000e+00 -2.6036194e-04 
ROTATION 3 30  float
0.0000000e+00 1.7332967e-03 0.0000000e+00 
0.0000000e+00 1.7483581e-03 0.0000000e+00 
0.0000000e+00 1.7639159e-03 0.0000000e+00 
0.0000000e+00 1.6580510e-03 0.0000000e+00 
0.0000000e+00 1.3732357e-03 0.0000000e+00 
0.0000000e+00 9.8459446e-04 0.0000000e+00 
0.0000000e+00 7.4808579e-04 0.0000000e+00 
0.0000000e+00 4.2735136e-04 0.0000000e+00 
0.0000000e+00 1.7196697e-04 0.0000000e+00 
0.0000000e+00 5.6800171e-05 0.0000000e+00 
0.0000000e+00 3.9739152e-05 0.0000000e+00 
0.0000000e+00 1.9586035e-03 0.0000000e+00 
0.0000000e+00 1.8747085e-03 0.0000000e+00 
0.0000000e+00 1.7031108e-03 0.0000000e+00 
0.0000000e+00 1.5285303e-03 0.0000000e+00 
0.0000000e+00 1.2863756e-03 0.0000000e+00 
0.0000000e+00 8.6741865e-04 0.0000000e+00 
0.0000000e+00 6.4949662e-04 0.0000000e+00 
0.0000000e+00 4.7600426e-04 0.0000000e+00 
0.0000000e+00 2.9914841e-04 0.0000000e+00 
0.0000000e+00 1.2426468e-04 0.0000000e+00 
0.0000000e+00 -4.5406770e-05 0.0000000e+00 
0.0000000e+00 2.4125817e-04 0.0000000e+00 
0.0000000e+00 -4.5795942e-04 0.0000000e+00 
0.0000000e+00 -6.2392140e-04 0.0000000e+00 
0.0000000e+00 1.8379391e-05 0.0000000e+00 
0.0000000e+00 5.3393625e-05 0.0000000e+00 
0.0000000e+00 3.9677303e-05 0.0000000e+00 
0.0000000e+00 3.7861151e-05 0.0000000e+00 
0.0000000e+00 -1.0123376e-04 0.0000000e+00 
REACTION 3 30  float
1.4826150e+03 -0.0000000e+00 -1.2009634e+03 
-2.3374014e-10 -0.0000000e+00 -2.2737368e-13 
9.6224539e-10 -0.0000000e+00 5.6843419e-14 
-7.4578566e-10 -0.0000000e+00 -0.0000000e+00 
-1.6370905e-09 -0.0000000e+00 2.7284841e-12 
-6.9849193e-10 -0.0000000e+00 2.2737368e-11 
1.5643309e-09 -0.0000000e+00 -3.4378900e-10 
-1.4797479e-09 -0.0000000e+00 1.9099389e-11 
1.2987584e-09 -0.0000000e+00 1.8189894e-12 
-3.9108272e-11 -0.0000000e+00 -2.7284841e-12 
9.6042641e-10 -0.0000000e+00 7.2759576e-12 
-8.2584121e+03 -0.0000000e+00 -1.2482556e+03 
4.0017767e-10 -0.0000000e+00 -0.0000000e+00 
-4.0745363e-10 -0.0000000e+00 3.6379788e-11 
3.5197445e-10 -0.0000000e+00 -6.9121597e-11 
-1.6971171e-09 -0.0000000e+00 -1.7098500e-10 
-2.1245796e-09 -0.0000000e+00 -8.4583007e-10 
3.3742253e-10 -0.0000000e+00 -6.3664629e-12 
-2.7102942e-10 -0.0000000e+00 2.7284841e-12 
7.2759576e-11 -0.0000000e+00 1.7644197e-10 
-2.5653435e-10 -0.0000000e+00 -3.6379788e-12 
9.3314156e-10 -0.0000000e+00 1.7826096e-10 
-2.0008883e-10 -0.0000000e+00 4.3291948e-10 
1.7171260e-09 -0.0000000e+00 7.6397555e-11 
-0.0000000e+00 -0.0000000e+00 -1.1004886e-09 
5.7661964e-10 -0.0000000e+00 -1.2732926e-11 
-9.3132257e-10 -0.0000000e+00 -1.7280399e-11 
-1.3642421e-10 -0.0000000e+00 2.6147973e-12 
5.4842531e-10 -0.0000000e+00 4.3291948e-10 
5.7389116e-10 -0.0000000e+00 -5.4569682e-12 
REACTION_MOMENT 3 30  float
-0.0000000e+00 2.9103830e-11 -0.0000000e+00 
-0.0000000e+00 8.7311491e-11 -0.0000000e+00 
-0.0000000e+00 6.1118044e-10 -0.0000000e+00 
-0.0000000e+00 -3.4924597e-10 -0.0000000e+00 
-0.0000000e+00 1.8771971e-09 -0.0000000e+00 
-0.0000000e+00 -9.4223651e-10 -0.0000000e+00 
-0.0000000e+00 1.6298145e-09 -0.0000000e+00 
-0.0000000e+00 1.7826096e-10 -0.0000000e+00 
-0.0000000e+00 -8.6765795e-10 -0.0000000e+00 
-0.0000000e+00 -1.3924364e-09 -0.0000000e+00 
-0.0000000e+00 -4.4360604e-10 -0.0000000e+00 
-0.0000000e+00 -2.9103830e-11 -0.0000000e+00 
-0.0000000e+00 8.7311491e-11 -0.0000000e+00 
-0.0000000e+00 1.4551915e-11 -0.0000000e+00 
-0.0000000e+00 -5.8207661e-11 -0.0000000e+00 
-0.0000000e+00 -2.9103830e-10 -0.0000000e+00 
-0.0000000e+00 -1.9645086e-10 -0.0000000e+00 
-0.0000000e+00 8.7311491e-11 -0.0000000e+00 
-0.0000000e+00 1.0768417e-09 -0.0000000e+00 
-0.0000000e+00 -4.4747139e-10 -0.0000000e+00 
-0.0000000e+00 -2.8194336e-10 -0.0000000e+00 
-0.0000000e+00 4.0108716e-10 -0.0000000e+00 
-0.0000000e+00 1.5461410e-10 -0.0000000e+00 
-0.0000000e+00 -1.0913936e-11 -0.0000000e+00 
-0.0000000e+00 -7.6397555e-11 -0.0000000e+00 
-0.0000000e+00 -1.0913936e-11 -0.0000000e+00 
-0.0000000e+00 -7.9580786e-12 -0.0000000e+00 
-0.0000000e+00 -1.8189894e-12 -0.0000000e+00 
-0.0000000e+00 -1.8189894e-12 -0.0000000e+00 
-0.0000000e+00 -0.0000000e+00 -0.0000000e+00 
VOLUME_ACCELERATION 3 30  float
0.0000000e+00 0.0000000e+00 0.0000000e+00 
0.0000000e+00 0.0000000e+00 0.0000000e+00 
0.0000000e+00 0.0000000e+00 0.0000000e+00 
0.0000000e+00 0.0000000e+00 0.0000000e+00 
0.0000000e+00 0.0000000e+00 0.0000000e+00 
0.0000000e+00 0.0000000e+00 0.0000000e+00 
0.0000000e+00 0.0000000e+00 0.0000000e+00 
0.0000000e+00 0.0000000e+00 0.0000000e+00 
0.0000000e+00 0.0000000e+00 0.0000000e+00 
0.0000000e+00 0.0000000e+00 0.0000000e+00 
0.0000000e+00 0.0000000e+00 0.0000000e+00 
0.0000000e+00 0.0000000e+00 0.0000000e+00 
0.0000000e+00 0.0000000e+00 0.0000000e+00 
0.0000000e+00 0.0000000e+00 0.0000000e+00 
0.0000000e+00 0.0000000e+00 0.0000000e+00 
0.0000000e+00 0.0000000e+00 0.0000000e+00 
0.0000000e+00 0.0000000e+00 0.0000000e+00 
0.0000000e+00 0.0000000e+00 0.0000000e+00 
0.0000000e+00 0.0000000e+00 0.0000000e+00 
0.0000000e+00 0.0000000e+00 0.0000000e+00 
0.0000000e+00 0.0000000e+00 0.0000000e+00 
0.0000000e+00 0.0000000e+00 0.0000000e+00 
0.0000000e+00 0.0000000e+00 0.0000000e+00 
0.0000000e+00 0.0000000e+00 0.0000000e+00 
0.0000000e+00 0.0000000e+00 0.0000000e+00 
0.0000000e+00 0.0000000e+00 0.0000000e+00 
0.0000000e+00 0.0000000e+00 0.0000000e+00 
0.0000000e+00 0.0000000e+00 0.0000000e+00 
0.0000000e+00 0.0000000e+00 0.0000000e+00 
0.0000000e+00 0.0000000e+00 0.0000000e+00 
POINT_LOAD 3 30  float
0.0000000e+00 0.0000000e+00 0.0000000e+00 
-2.9163787e+03 0.0000000e+00 1.3355718e+03 
-9.0850156e+03 0.0000000e+00 -4.5621213e+02 
3.4221272e+03 0.0000000e+00 9.8030557e+03 
3.9729436e+03 0.0000000e+00 -7.5203359e+03 
0.0000000e+00 0.0000000e+00 0.0000000e+00 
7.3540830e+03 0.0000000e+00 -6.5128418e+03 
7.3697783e+03 0.0000000e+00 7.6321650e+03 
0.0000000e+00 0.0000000e+00 0.0000000e+00 
-4.1453838e+03 0.0000000e+00 3.4005195e+03 
5.9565010e+03 0.0000000e+00 -4.9265786e+03 
0.0000000e+00 0.0000000e+00 0.0000000e+00 
7.8835820e+03 0.0000000e+00 -8.3836016e+03 
4.5605505e+02 0.0000000e+00 6.7519199e+03 
-6.8142930e+03 0.0000000e+00 -2.7113413e+03 
-3.9378364e+03 0.0000000e+00 6.6395181e+03 
0.0000000e+00 0.0000000e+00 0.0000000e+00 
-5.2298687e+03 0.0000000e+00 -2.5745505e+03 
5.2523022e+02 0.0000000e+00 -5.3906753e+03 
0.0000000e+00 0.0000000e+00 0.0000000e+00 
3.1894644e+02 0.0000000e+00 9.4431816e+03 
0.0000000e+00 0.0000000e+00 0.0000000e+00 
8.8866064e+03 0.0000000e+00 -3.3725413e+03 
6.4351494e+03 0.0000000e+00 -4.3313638e+03 
0.0000000e+00 0.0000000e+00 0.0000000e+00 
-4.5479624e+03 0.0000000e+00 9.4740078e+03 
0.0000000e+00 0.0000000e+00 0.0000000e+00 
6.9331256e+02 0.0000000e+00 -6.1851776e+02 
-3.2740046e+03 0.0000000e+00 2.9680859e+03 
-6.5477749e+03 0.0000000e+00 -8.2002461e+03 
POINT_MOMENT 3 30  float
0.0000000e+00 0.0000000e+00 0.0000000e+00 
0.0000000e+00 0.0000000e+00 0.0000000e+00 
0.0000000e+00 0.0000000e+00 0.0000000e+00 
0.0000000e+00 0.0000000e+00 0.0000000e+00 
0.0000000e+00 0.0000000e+00 0.0000000e+00 
0.0000000e+00 0.0000000e+00 0.0000000e+00 
0.0000000e+00 0.0000000e+00 0.0000000e+00 
0.0000000e+00 0.0000000e+00 0.0000000e+00 
0.0000000e+00 0.0000000e+00 0.0000000e+00 
0.0000000e+00 0.0000000e+00 0.0000000e+00 
0.0000000e+00 0.0000000e+00 0.0000000e+00 
0.0000000e+00 0.0000000e+00 0.0000000e+00 
0.0000000e+00 0.0000000e+00 0.0000000e+00 
0.0000000e+00 0.0000000e+00 0.0000000e+00 
0.0000000e+00 0.0000000e+00 0.0000000e+00 
0.0000000e+00 0.0000000e+00 0.0000000e+00 
0.0000000e+00 0.0000000e+00 0.0000000e+00 
0.0000000e+00 0.0000000e+00 0.0000000e+00 
0.0000000e+00 0.0000000e+00 0.0000000e+00 
0.0000000e+00 0.0000000e+00 0.0000000e+00 
0.0000000e+00 0.0000000e+00 0.0000000e+00 
0.0000000e+00 0.0000000e+00 0.0000000e+00 
0.0000000e+00 0.0000000e+00 0.0000000e+00 
0.0000000e+00 0.0000000e+00 0.0000000e+00 
0.0000000e+00 0.0000000e+00 0.0000000e+00 
0.0000000e+00 0.0000000e+00 0.0000000e+00 
0.0000000e+00 0.0000000e+00 0.0000000e+00 
0.0000000e+00 0.0000000e+00 0.0000000e+00 
0.0000000e+00 0.0000000e+00 0.0000000e+00 
0.0000000e+00 0.0000000e+00 0.0000000e+00 
CELL_DATA 30
FIELD FieldData 9
YOUNG_MODULUS 1 30  float
2.1000000e+11
2.1000000e+11
2.1000000e+11
2.1000000e+11
2.1000000e+11
2.1000000e+11
2.1000000e+11
2.1000000e+11
2.1000000e+11
2.1000000e+11
2.1000000e+11
2.1000000e+11
2.1000000e+11
2.1000000e+11
2.1000000e+11
2.1000000e+11
2.1000000e+11
2.1000000e+11
2.1000000e+11
2.1000000e+11
2.1000000e+11
2.1000000e+11
2.1000000e+11
2.1000000e+11
2.1000000e+11
2.1000000e+11
2.1000000e+11
2.1000000e+11
2.1000000e+11
2.1000000e+11
DENSITY 1 30  float
7.8500000e+03
7.8500000e+03
7.8500000e+03
7.8500000e+03
7.8500000e+03
7.8500000e+03
7.8500000e+03
7.8500000e+03
7.8500000e+03
7.8500000e+03
7.8500000e+03
7.8500000e+03
7.8500000e+03
7.8500000e+03
7.8500000e+03
7.8500000e+03
7.8500000e+03
7.8500000e+03
7.8500000e+03
7.8500000e+03
7.8500000e+03
7.8500000e+03
7.8500000e+03
7.8500000e+03
7.8500000e+03
7.8500000e+03
7.8500000e+03
7.8500000e+03
7.8500000e+03
7.8500000e+03
CROSS_AREA 1 30  float
9.9999998e-03
9.9999998e-03
9.9999998e-03
9.9999998e-03
9.9999998e-03
9.9999998e-03
9.9999998e-03
9.9999998e-03
9.9999998e-03
9.9999998e-03
9.9999998e-03
9.9999998e-03
9.9999998e-03
9.9999998e-03
9.9999998e-03
9.9999998e-03
9.9999998e-03
9.9999998e-03
9.9999998e-03
9.9999998e-03
9.9999998e-03
9.9999998e-03
9.9999998e-03
9.9999998e-03
9.9999998e-03
9.9999998e-03
9.9999998e-03
9.9999998e-03
9.9999998e-03
9.9999998e-03
I22 1 30  float
1.5000001e-04
1.5000001e-04
1.5000001e-04
1.5000001e-04
1.5000001e-04
1.5000001e-04
1.5000001e-04
1.5000001e-04
1.5000001e-04
1.5000001e-04
1.5000001e-04
1.5000001e-04
1.5000001e-04
1.5000001e-04
1.5000001e-04
1.5000001e-04
1.5000001e-04
1.5000001e-04
1.5000001e-04
1.5000001e-04
1.5000001e-04
1.5000001e-04
1.5000001e-04
1.5000001e-04
1.5000001e-04
1.5000001e-04
1.5000001e-04
1.5000001e-04
1.5000001e-04
1.5000001e-04
I33 1 30  float
1.5000001e-04
1.5000001e-04
1.5000001e-04
1.5000001e-04
1.5000001e-04
1.5000001e-04
1.5000001e-04
1.5000001e-04
1.5000001e-04
1.5000001e-04
1.5000001e-04
1.5000001e-04
1.5000001e-04
1.5000001e-04
1.5000001e-04
1.5000001e-04
1.5000001e-04
1.5000001e-04
1.5000001e-04
1.5000001e-04
1.5000001e-04
1.5000001e-04
1.5000001e-04
1.5000001e-04
1.5000001e-04
1.5000001e-04
1.5000001e-04
1.5000001e-04
1.5000001e-04
1.5000001e-04
TORSIONAL_INERTIA 1 30  float
3.0000001e-04
3.0000001e-04
3.0000001e-04
3.0000001e-04
3.0000001e-04
3.0000001e-04
3.0000001e-04
3.0000001e-04
3.0000001e-04
3.0000001e-04
3.0000001e-04
3.0000001e-04
3.0000001e-04
3.0000001e-04
3.0000001e-04
3.0000001e-04
3.0000001e-04
3.0000001e-04
3.0000001e-04
3.0000001e-04
3.0000001e-04
3.0000001e-04
3.0000001e-04
3.0000001e-04
3.0000001e-04
3.0000001e-04
3.0000001e-04
3.0000001e-04
3.0000001e-04
3.0000001e-04
POISSON_RATIO 1 30  float
3.0000001e-01
3.0000001e-01
3.0000001e-01
3.0000001e-01
3.0000001e-01
3.0000001e-01
3.0000001e-01
3.0000001e-01
3.0000001e-01
3.0000001e-01
3.0000001e-01
3.0000001e-01
3.0000001e-01
3.0000001e-01
3.0000001e-01
3.0000001e-01
3.0000001e-01
3.0000001e-01
3.0000001e-01
3.0000001e-01
3.0000001e-01
3.0000001e-01
3.0000001e-01
3.0000001e-01
3.0000001e-01
3.0000001e-01
3.0000001e-01
3.0000001e-01
3.0000001e-01
3.0000001e-01
MOMENT 3 30  float
0.0000000e+00 5.9304602e+02 0.0000000e+00 
0.0000000e+00 6.1258649e+02 0.0000000e+00 
0.0000000e+00 -4.1684307e+03 0.0000000e+00 
0.0000000e+00 -1.1214604e+04 0.0000000e+00 
0.0000000e+00 -1.5302748e+04 0.0000000e+00 
0.0000000e+00 -9.3125303e+03 0.0000000e+00 
0.0000000e+00 -1.2628918e+04 0.0000000e+00 
0.0000000e+00 -1.0055761e+04 0.0000000e+00 
0.0000000e+00 -4.5346924e+03 0.0000000e+00 
0.0000000e+00 -6.7177765e+02 0.0000000e+00 
0.0000000e+00 -3.3033647e+03 0.0000000e+00 
0.0000000e+00 -6.7566616e+03 0.0000000e+00 
0.0000000e+00 -6.8741035e+03 0.0000000e+00 
0.0000000e+00 -9.5348408e+03 0.0000000e+00 
0.0000000e+00 -1.6496430e+04 0.0000000e+00 
0.0000000e+00 -8.5806797e+03 0.0000000e+00 
0.0000000e+00 -6.8312622e+03 0.0000000e+00 
0.0000000e+00 -6.9637002e+03 0.0000000e+00 
0.0000000e+00 -6.8860464e+03 0.0000000e+00 
0.0000000e+00 -6.6808135e+03 0.0000000e+00 
0.0000000e+00 -1.1707547e+04 0.0000000e+00 
0.0000000e+00 -1.1012677e+04 0.0000000e+00 
0.0000000e+00 -2.6139016e+03 0.0000000e+00 
0.0000000e+00 1.0116237e+04 0.0000000e+00 
0.0000000e+00 1.3372368e+04 0.0000000e+00 
0.0000000e+00 2.1505800e+02 0.0000000e+00 
0.0000000e+00 -2.1603210e+02 0.0000000e+00 
0.0000000e+00 -2.8604406e+01 0.0000000e+00 
0.0000000e+00 -2.1907449e+03 0.0000000e+00 
0.0000000e+00 8.7927509e+02 0.0000000e+00 
FORCE 3 30  float
1.2009634e+03 0.0000000e+00 1.4826150e+03 
-1.3460834e+02 0.0000000e+00 -1.4337638e+03 
3.2160379e+02 0.0000000e+00 -1.0518779e+04 
-9.4814521e+03 0.0000000e+00 -7.0966523e+03 
-1.9611165e+03 0.0000000e+00 -3.1237085e+03 
-6.2228088e+02 0.0000000e+00 -7.8225259e+03 
5.8905605e+03 0.0000000e+00 -4.6844308e+02 
-1.7416044e+03 0.0000000e+00 6.9013354e+03 
-1.7416044e+03 0.0000000e+00 6.9013354e+03 
-5.1421240e+03 0.0000000e+00 2.7559517e+03 
1.2482556e+03 0.0000000e+00 -8.2584121e+03 
9.6318574e+03 0.0000000e+00 -3.7483008e+02 
2.8799375e+03 0.0000000e+00 8.1224960e+01 
5.5912788e+03 0.0000000e+00 -6.7330679e+03 
-1.0482391e+03 0.0000000e+00 -1.0670904e+04 
-4.1571777e+03 0.0000000e+00 4.8017061e+03 
-1.5826272e+03 0.0000000e+00 -4.2816278e+02 
3.8080481e+03 0.0000000e+00 9.7067421e+01 
3.8080481e+03 0.0000000e+00 9.7067421e+01 
-5.6351333e+03 0.0000000e+00 4.1601389e+02 
-4.6988174e+03 0.0000000e+00 -1.3388354e+03 
-1.3585424e+04 0.0000000e+00 2.0337057e+03 
-2.0020572e+04 0.0000000e+00 6.3650693e+03 
-2.0020572e+04 0.0000000e+00 6.3650693e+03 
-1.5472610e+04 0.0000000e+00 -3.1089387e+03 
-8.7124531e+03 0.0000000e+00 -2.1554504e+02 
-8.7124531e+03 0.0000000e+00 -2.1554504e+02 
-9.4057656e+03 0.0000000e+00 4.0297275e+02 
-6.1317607e+03 0.0000000e+00 -2.5651130e+03 
4.1601389e+02 0.0000000e+00 5.6351333e+03 
