# vtk DataFile Version 4.0
vtk output
ASCII
DATASET UNSTRUCTURED_GRID
POINTS 212 float
0.0000000e+00 0.0000000e+00 0.0000000e+00 
0.0000000e+00 0.0000000e+00 2.5000000e-01 
0.0000000e+00 0.0000000e+00 5.0000000e-01 
0.0000000e+00 0.0000000e+00 7.5000000e-01 
0.0000000e+00 0.0000000e+00 1.0000000e+00 
0.0000000e+00 0.0000000e+00 1.2500000e+00 
0.0000000e+00 0.0000000e+00 1.5000000e+00 
0.0000000e+00 0.0000000e+00 1.7500000e+00 
0.0000000e+00 0.0000000e+00 2.0000000e+00 
0.0000000e+00 0.0000000e+00 2.2500000e+00 
0.0000000e+00 0.0000000e+00 2.5000000e+00 
0.0000000e+00 0.0000000e+00 2.7500000e+00 
0.0000000e+00 0.0000000e+00 3.0000000e+00 
0.0000000e+00 0.0000000e+00 3.2500000e+00 
0.0000000e+00 0.0000000e+00 3.5000000e+00 
0.0000000e+00 0.0000000e+00 3.7500000e+00 
0.0000000e+00 0.0000000e+00 4.0000000e+00 
0.0000000e+00 0.0000000e+00 4.2500000e+00 
0.0000000e+00 0.0000000e+00 4.5000000e+00 
0.0000000e+00 0.0000000e+00 4.7500000e+00 
0.0000000e+00 0.0000000e+00 5.0000000e+00 
0.0000000e+00 0.0000000e+00 5.2500000e+00 
0.0000000e+00 0.0000000e+00 5.5000000e+00 
0.0000000e+00 0.0000000e+00 5.7500000e+00 
0.0000000e+00 0.0000000e+00 6.0000000e+00 
0.0000000e+00 0.0000000e+00 6.2500000e+00 
0.0000000e+00 0.0000000e+00 6.5000000e+00 
0.0000000e+00 0.0000000e+00 6.7500000e+00 
0.0000000e+00 0.0000000e+00 7.0000000e+00 
0.0000000e+00 0.0000000e+00 7.2500000e+00 
0.0000000e+00 0.0000000e+00 7.5000000e+00 
0.0000000e+00 0.0000000e+00 7.7500000e+00 
0.0000000e+00 0.0000000e+00 8.0000000e+00 
0.0000000e+00 0.0000000e+00 8.2500000e+00 
0.0000000e+00 0.0000000e+00 8.5000000e+00 
0.0000000e+00 0.0000000e+00 8.7500000e+00 
0.0000000e+00 0.0000000e+00 9.0000000e+00 
0.0000000e+00 0.0000000e+00 9.2500000e+00 
0.0000000e+00 0.0000000e+00 9.5000000e+00 
0.0000000e+00 0.0000000e+00 9.7500000e+00 
0.0000000e+00 0.0000000e+00 1.0000000e+01 
0.0000000e+00 0.0000000e+00 1.0250000e+01 
0.0000000e+00 0.0000000e+00 1.0500000e+01 
0.0000000e+00 0.0000000e+00 1.0750000e+01 
0.0000000e+00 0.0000000e+00 1.1000000e+01 
0.0000000e+00 0.0000000e+00 1.1250000e+01 
0.0000000e+00 0.0000000e+00 1.1500000e+01 
0.0000000e+00 0.0000000e+00 1.1750000e+01 
0.0000000e+00 0.0000000e+00 1.2000000e+01 
0.0000000e+00 0.0000000e+00 1.2250000e+01 
0.0000000e+00 0.0000000e+00 1.2500000e+01 
0.0000000e+00 0.0000000e+00 1.2750000e+01 
0.0000000e+00 0.0000000e+00 1.3000000e+01 
0.0000000e+00 0.0000000e+00 1.3250000e+01 
0.0000000e+00 0.0000000e+00 1.3500000e+01 
0.0000000e+00 0.0000000e+00 1.3750000e+01 
0.0000000e+00 0.0000000e+00 1.4000000e+01 
0.0000000e+00 0.0000000e+00 1.4250000e+01 
0.0000000e+00 0.0000000e+00 1.4500000e+01 
0.0000000e+00 0.0000000e+00 1.4750000e+01 
0.0000000e+00 0.0000000e+00 1.5000000e+01 
0.0000000e+00 0.0000000e+00 1.5250000e+01 
0.0000000e+00 0.0000000e+00 1.5500000e+01 
0.0000000e+00 0.0000000e+00 1.5750000e+01 
0.0000000e+00 0.0000000e+00 1.6000000e+01 
0.0000000e+00 0.0000000e+00 1.6250000e+01 
0.0000000e+00 0.0000000e+00 1.6500000e+01 
0.0000000e+00 0.0000000e+00 1.6750000e+01 
0.0000000e+00 0.0000000e+00 1.7000000e+01 
0.0000000e+00 0.0000000e+00 1.7250000e+01 
0.0000000e+00 0.0000000e+00 1.7500000e+01 
0.0000000e+00 0.0000000e+00 1.7750000e+01 
0.0000000e+00 0.0000000e+00 1.8000000e+01 
5.0000000e-01 0.0000000e+00 3.0000000e+00 
5.0000000e-01 0.0000000e+00 6.0000000e+00 
5.0000000e-01 0.0000000e+00 9.0000000e+00 
5.0000000e-01 0.0000000e+00 1.2000000e+01 
5.0000000e-01 0.0000000e+00 1.5000000e+01 
5.0000000e-01 0.0000000e+00 1.8000000e+01 
1.0000000e+00 0.0000000e+00 3.0000000e+00 
1.0000000e+00 0.0000000e+00 6.0000000e+00 
1.0000000e+00 0.0000000e+00 9.0000000e+00 
1.0000000e+00 0.0000000e+00 1.2000000e+01 
1.0000000e+00 0.0000000e+00 1.5000000e+01 
1.0000000e+00 0.0000000e+00 1.8000000e+01 
1.5000000e+00 0.0000000e+00 3.0000000e+00 
1.5000000e+00 0.0000000e+00 6.0000000e+00 
1.5000000e+00 0.0000000e+00 9.0000000e+00 
1.5000000e+00 0.0000000e+00 1.2000000e+01 
1.5000000e+00 0.0000000e+00 1.5000000e+01 
1.5000000e+00 0.0000000e+00 1.8000000e+01 
2.0000000e+00 0.0000000e+00 3.0000000e+00 
2.0000000e+00 0.0000000e+00 6.0000000e+00 
2.0000000e+00 0.0000000e+00 9.0000000e+00 
2.0000000e+00 0.0000000e+00 1.2000000e+01 
2.0000000e+00 0.0000000e+00 1.5000000e+01 
2.0000000e+00 0.0000000e+00 1.8000000e+01 
2.5000000e+00 0.0000000e+00 3.0000000e+00 
2.5000000e+00 0.0000000e+00 6.0000000e+00 
2.5000000e+00 0.0000000e+00 9.0000000e+00 
2.5000000e+00 0.0000000e+00 1.2000000e+01 
2.5000000e+00 0.0000000e+00 1.5000000e+01 
2.5000000e+00 0.0000000e+00 1.8000000e+01 
3.0000000e+00 0.0000000e+00 3.0000000e+00 
3.0000000e+00 0.0000000e+00 6.0000000e+00 
3.0000000e+00 0.0000000e+00 9.0000000e+00 
3.0000000e+00 0.0000000e+00 1.2000000e+01 
3.0000000e+00 0.0000000e+00 1.5000000e+01 
3.0000000e+00 0.0000000e+00 1.8000000e+01 
3.5000000e+00 0.0000000e+00 3.0000000e+00 
3.5000000e+00 0.0000000e+00 6.0000000e+00 
3.5000000e+00 0.0000000e+00 9.0000000e+00 
3.5000000e+00 0.0000000e+00 1.2000000e+01 
3.5000000e+00 0.0000000e+00 1.5000000e+01 
3.5000000e+00 0.0000000e+00 1.8000000e+01 
4.0000000e+00 0.0000000e+00 3.0000000e+00 
4.0000000e+00 0.0000000e+00 6.0000000e+00 
4.0000000e+00 0.0000000e+00 9.0000000e+00 
4.0000000e+00 0.0000000e+00 1.2000000e+01 
4.0000000e+00 0.0000000e+00 1.5000000e+01 
4.0000000e+00 0.0000000e+00 1.8000000e+01 
4.5000000e+00 0.0000000e+00 3.0000000e+00 
4.5000000e+00 0.0000000e+00 6.0000000e+00 
4.5000000e+00 0.0000000e+00 9.0000000e+00 
4.5000000e+00 0.0000000e+00 1.2000000e+01 
4.5000000e+00 0.0000000e+00 1.5000000e+01 
4.5000000e+00 0.0000000e+00 1.8000000e+01 
5.0000000e+00 0.0000000e+00 3.0000000e+00 
5.0000000e+00 0.0000000e+00 6.0000000e+00 
5.0000000e+00 0.0000000e+00 9.0000000e+00 
5.0000000e+00 0.0000000e+00 1.2000000e+01 
5.0000000e+00 0.0000000e+00 1.5000000e+01 
5.0000000e+00 0.0000000e+00 1.8000000e+01 
5.5000000e+00 0.0000000e+00 3.0000000e+00 
5.5000000e+00 0.0000000e+00 6.0000000e+00 
5.5000000e+00 0.0000000e+00 9.0000000e+00 
5.5000000e+00 0.0000000e+00 1.2000000e+01 
5.5000000e+00 0.0000000e+00 1.5000000e+01 
5.5000000e+00 0.0000000e+00 1.8000000e+01 
6.0000000e+00 0.0000000e+00 0.0000000e+00 
6.0000000e+00 0.0000000e+00 2.5000000e-01 
6.0000000e+00 0.0000000e+00 5.0000000e-01 
6.0000000e+00 0.0000000e+00 7.5000000e-01 
6.0000000e+00 0.0000000e+00 1.0000000e+00 
6.0000000e+00 0.0000000e+00 1.2500000e+00 
6.0000000e+00 0.0000000e+00 1.5000000e+00 
6.0000000e+00 0.0000000e+00 1.7500000e+00 
6.0000000e+00 0.0000000e+00 2.0000000e+00 
6.0000000e+00 0.0000000e+00 2.2500000e+00 
6.0000000e+00 0.0000000e+00 2.5000000e+00 
6.0000000e+00 0.0000000e+00 2.7500000e+00 
6.0000000e+00 0.0000000e+00 3.0000000e+00 
6.0000000e+00 0.0000000e+00 3.2500000e+00 
6.0000000e+00 0.0000000e+00 3.5000000e+00 
6.0000000e+00 0.0000000e+00 3.7500000e+00 
6.0000000e+00 0.0000000e+00 4.0000000e+00 
6.0000000e+00 0.0000000e+00 4.2500000e+00 
6.0000000e+00 0.0000000e+00 4.5000000e+00 
6.0000000e+00 0.0000000e+00 4.7500000e+00 
6.0000000e+00 0.0000000e+00 5.0000000e+00 
6.0000000e+00 0.0000000e+00 5.2500000e+00 
6.0000000e+00 0.0000000e+00 5.5000000e+00 
6.0000000e+00 0.0000000e+00 5.7500000e+00 
6.0000000e+00 0.0000000e+00 6.0000000e+00 
6.0000000e+00 0.0000000e+00 6.2500000e+00 
6.0000000e+00 0.0000000e+00 6.5000000e+00 
6.0000000e+00 0.0000000e+00 6.7500000e+00 
6.0000000e+00 0.0000000e+00 7.0000000e+00 
6.0000000e+00 0.0000000e+00 7.2500000e+00 
6.0000000e+00 0.0000000e+00 7.5000000e+00 
6.0000000e+00 0.0000000e+00 7.7500000e+00 
6.0000000e+00 0.0000000e+00 8.0000000e+00 
6.0000000e+00 0.0000000e+00 8.2500000e+00 
6.0000000e+00 0.0000000e+00 8.5000000e+00 
6.0000000e+00 0.0000000e+00 8.7500000e+00 
6.0000000e+00 0.0000000e+00 9.0000000e+00 
6.0000000e+00 0.0000000e+00 9.2500000e+00 
6.0000000e+00 0.0000000e+00 9.5000000e+00 
6.0000000e+00 0.0000000e+00 9.7500000e+00 
6.0000000e+00 0.0000000e+00 1.0000000e+01 
6.0000000e+00 0.0000000e+00 1.0250000e+01 
6.0000000e+00 0.0000000e+00 1.0500000e+01 
6.0000000e+00 0.0000000e+00 1.0750000e+01 
6.0000000e+00 0.0000000e+00 1.1000000e+01 
6.0000000e+00 0.0000000e+00 1.1250000e+01 
6.0000000e+00 0.0000000e+00 1.1500000e+01 
6.0000000e+00 0.0000000e+00 1.1750000e+01 
6.0000000e+00 0.0000000e+00 1.2000000e+01 
6.0000000e+00 0.0000000e+00 1.2250000e+01 
6.0000000e+00 0.0000000e+00 1.2500000e+01 
6.0000000e+00 0.0000000e+00 1.2750000e+01 
6.0000000e+00 0.0000000e+00 1.3000000e+01 
6.0000000e+00 0.0000000e+00 1.3250000e+01 
6.0000000e+00 0.0000000e+00 1.3500000e+01 
6.0000000e+00 0.0000000e+00 1.3750000e+01 
6.0000000e+00 0.0000000e+00 1.4000000e+01 
6.0000000e+00 0.0000000e+00 1.4250000e+01 
6.0000000e+00 0.0000000e+00 1.4500000e+01 
6.0000000e+00 0.0000000e+00 1.4750000e+01 
6.0000000e+00 0.0000000e+00 1.5000000e+01 
6.0000000e+00 0.0000000e+00 1.5250000e+01 
6.0000000e+00 0.0000000e+00 1.5500000e+01 
6.0000000e+00 0.0000000e+00 1.5750000e+01 
6.0000000e+00 0.0000000e+00 1.6000000e+01 
6.0000000e+00 0.0000000e+00 1.6250000e+01 
6.0000000e+00 0.0000000e+00 1.6500000e+01 
6.0000000e+00 0.0000000e+00 1.6750000e+01 
6.0000000e+00 0.0000000e+00 1.7000000e+01 
6.0000000e+00 0.0000000e+00 1.7250000e+01 
6.0000000e+00 0.0000000e+00 1.7500000e+01 
6.0000000e+00 0.0000000e+00 1.7750000e+01 
6.0000000e+00 0.0000000e+00 1.8000000e+01 

CELLS 216 648
2 0 1
2 1 2
2 2 3
2 3 4
2 4 5
2 5 6
2 6 7
2 7 8
2 8 9
2 9 10
2 10 11
2 11 12
2 12 13
2 13 14
2 14 15
2 15 16
2 16 17
2 17 18
2 18 19
2 19 20
2 20 21
2 21 22
2 22 23
2 23 24
2 24 25
2 25 26
2 26 27
2 27 28
2 28 29
2 29 30
2 30 31
2 31 32
2 32 33
2 33 34
2 34 35
2 35 36
2 36 37
2 37 38
2 38 39
2 39 40
2 40 41
2 41 42
2 42 43
2 43 44
2 44 45
2 45 46
2 46 47
2 47 48
2 48 49
2 49 50
2 50 51
2 51 52
2 52 53
2 53 54
2 54 55
2 55 56
2 56 57
2 57 58
2 58 59
2 59 60
2 60 61
2 61 62
2 62 63
2 63 64
2 64 65
2 65 66
2 66 67
2 67 68
2 68 69
2 69 70
2 70 71
2 71 72
2 139 140
2 140 141
2 141 142
2 142 143
2 143 144
2 144 145
2 145 146
2 146 147
2 147 148
2 148 149
2 149 150
2 150 151
2 151 152
2 152 153
2 153 154
2 154 155
2 155 156
2 156 157
2 157 158
2 158 159
2 159 160
2 160 161
2 161 162
2 162 163
2 163 164
2 164 165
2 165 166
2 166 167
2 167 168
2 168 169
2 169 170
2 170 171
2 171 172
2 172 173
2 173 174
2 174 175
2 175 176
2 176 177
2 177 178
2 178 179
2 179 180
2 180 181
2 181 182
2 182 183
2 183 184
2 184 185
2 185 186
2 186 187
2 187 188
2 188 189
2 189 190
2 190 191
2 191 192
2 192 193
2 193 194
2 194 195
2 195 196
2 196 197
2 197 198
2 198 199
2 199 200
2 200 201
2 201 202
2 202 203
2 203 204
2 204 205
2 205 206
2 206 207
2 207 208
2 208 209
2 209 210
2 210 211
2 12 73
2 73 79
2 79 85
2 85 91
2 91 97
2 97 103
2 103 109
2 109 115
2 115 121
2 121 127
2 127 133
2 133 151
2 24 74
2 74 80
2 80 86
2 86 92
2 92 98
2 98 104
2 104 110
2 110 116
2 116 122
2 122 128
2 128 134
2 134 163
2 36 75
2 75 81
2 81 87
2 87 93
2 93 99
2 99 105
2 105 111
2 111 117
2 117 123
2 123 129
2 129 135
2 135 175
2 48 76
2 76 82
2 82 88
2 88 94
2 94 100
2 100 106
2 106 112
2 112 118
2 118 124
2 124 130
2 130 136
2 136 187
2 60 77
2 77 83
2 83 89
2 89 95
2 95 101
2 101 107
2 107 113
2 113 119
2 119 125
2 125 131
2 131 137
2 137 199
2 72 78
2 78 84
2 84 90
2 90 96
2 96 102
2 102 108
2 108 114
2 114 120
2 120 126
2 126 132
2 132 138
2 138 211

CELL_TYPES 216
3
3
3
3
3
3
3
3
3
3
3
3
3
3
3
3
3
3
3
3
3
3
3
3
3
3
3
3
3
3
3
3
3
3
3
3
3
3
3
3
3
3
3
3
3
3
3
3
3
3
3
3
3
3
3
3
3
3
3
3
3
3
3
3
3
3
3
3
3
3
3
3
3
3
3
3
3
3
3
3
3
3
3
3
3
3
3
3
3
3
3
3
3
3
3
3
3
3
3
3
3
3
3
3
3
3
3
3
3
3
3
3
3
3
3
3
3
3
3
3
3
3
3
3
3
3
3
3
3
3
3
3
3
3
3
3
3
3
3
3
3
3
3
3
3
3
3
3
3
3
3
3
3
3
3
3
3
3
3
3
3
3
3
3
3
3
3
3
3
3
3
3
3
3
3
3
3
3
3
3
3
3
3
3
3
3
3
3
3
3
3
3
3
3
3
3
3
3
3
3
3
3
3
3
3
3
3
3
3
3
3
3
3
3
3
3
POINT_DATA 212
FIELD FieldData 3
ADJOINT_DISPLACEMENT 3 212  float
0.0000000e+00 0.0000000e+00 0.0000000e+00 
-4.3233846e-05 0.0000000e+00 1.6079052e-15 
-8.7331566e-05 0.0000000e+00 3.2158103e-15 
-1.3315704e-04 0.0000000e+00 4.8237154e-15 
-1.8157413e-04 0.0000000e+00 6.4316207e-15 
-2.3344673e-04 0.0000000e+00 8.0395260e-15 
-2.8963870e-04 0.0000000e+00 9.6474308e-15 
-3.5101394e-04 0.0000000e+00 1.1255336e-14 
-4.1843628e-04 0.0000000e+00 1.2863241e-14 
-4.9276964e-04 0.0000000e+00 1.4471146e-14 
-5.7487783e-04 0.0000000e+00 1.6079052e-14 
-6.6562486e-04 0.0000000e+00 1.7686956e-14 
-7.6587446e-04 0.0000000e+00 1.9294862e-14 
-8.8507612e-04 0.0000000e+00 1.7370169e-07 
-1.0284773e-03 0.0000000e+00 3.4740336e-07 
-1.1906389e-03 0.0000000e+00 5.2110505e-07 
-1.3661217e-03 0.0000000e+00 6.9480672e-07 
-1.5494864e-03 0.0000000e+00 8.6850838e-07 
-1.7352941e-03 0.0000000e+00 1.0422101e-06 
-1.9181055e-03 0.0000000e+00 1.2159118e-06 
-2.0924816e-03 0.0000000e+00 1.3896134e-06 
-2.2529829e-03 0.0000000e+00 1.5633151e-06 
-2.3941707e-03 0.0000000e+00 1.7370168e-06 
-2.5106054e-03 0.0000000e+00 1.9107183e-06 
-2.5968482e-03 0.0000000e+00 2.0844200e-06 
-2.6764735e-03 0.0000000e+00 2.9534074e-06 
-2.7934830e-03 0.0000000e+00 3.8223948e-06 
-2.9730788e-03 0.0000000e+00 4.6913824e-06 
-3.2404626e-03 0.0000000e+00 5.5603696e-06 
-3.6208364e-03 0.0000000e+00 6.4293567e-06 
-4.1394019e-03 0.0000000e+00 7.2983444e-06 
-4.8213620e-03 0.0000000e+00 8.1673315e-06 
-5.6919171e-03 0.0000000e+00 9.0363192e-06 
-6.7762700e-03 0.0000000e+00 9.9053068e-06 
-8.0996221e-03 0.0000000e+00 1.0774294e-05 
-9.6871769e-03 0.0000000e+00 1.1643281e-05 
-1.1564134e-02 0.0000000e+00 1.2512269e-05 
-1.3916782e-02 0.0000000e+00 1.6685901e-05 
-1.6837787e-02 0.0000000e+00 2.0859532e-05 
-2.0211915e-02 0.0000000e+00 2.5033163e-05 
-2.3923934e-02 0.0000000e+00 2.9206794e-05 
-2.7858611e-02 0.0000000e+00 3.3380427e-05 
-3.1900715e-02 0.0000000e+00 3.7554059e-05 
-3.5935014e-02 0.0000000e+00 4.1727690e-05 
-3.9846279e-02 0.0000000e+00 4.5901321e-05 
-4.3519270e-02 0.0000000e+00 5.0074952e-05 
-4.6838760e-02 0.0000000e+00 5.4248583e-05 
-4.9689513e-02 0.0000000e+00 5.8422214e-05 
-5.1956303e-02 0.0000000e+00 6.2595849e-05 
-5.4187741e-02 0.0000000e+00 8.2606530e-05 
-5.7349943e-02 0.0000000e+00 1.0261720e-04 
-6.1953917e-02 0.0000000e+00 1.2262788e-04 
-6.8510674e-02 0.0000000e+00 1.4263857e-04 
-7.7531226e-02 0.0000000e+00 1.6264924e-04 
-8.9526579e-02 0.0000000e+00 1.8265993e-04 
-1.0500775e-01 0.0000000e+00 2.0267061e-04 
-1.2448574e-01 0.0000000e+00 2.2268128e-04 
-1.4847156e-01 0.0000000e+00 2.4269197e-04 
-1.7747623e-01 0.0000000e+00 2.6270264e-04 
-2.1201076e-01 0.0000000e+00 2.8271333e-04 
-2.5258613e-01 0.0000000e+00 3.0272402e-04 
-2.9339805e-01 0.0000000e+00 2.8375600e-04 
-3.2857165e-01 0.0000000e+00 2.6478802e-04 
-3.5851204e-01 0.0000000e+00 2.4582003e-04 
-3.8362443e-01 0.0000000e+00 2.2685205e-04 
-4.0431395e-01 0.0000000e+00 2.0788405e-04 
-4.2098579e-01 0.0000000e+00 1.8891606e-04 
-4.3404511e-01 0.0000000e+00 1.6994806e-04 
-4.4389704e-01 0.0000000e+00 1.5098008e-04 
-4.5094681e-01 0.0000000e+00 1.3201209e-04 
-4.5559949e-01 0.0000000e+00 1.1304409e-04 
-4.5826033e-01 0.0000000e+00 9.4076109e-05 
-4.5933443e-01 0.0000000e+00 7.5108117e-05 
-7.6420582e-04 0.0000000e+00 1.7378312e-04 
-2.6049600e-03 0.0000000e+00 5.2128154e-05 
-1.1526955e-02 0.0000000e+00 3.3679530e-03 
-5.2122090e-02 0.0000000e+00 1.8570046e-03 
-2.5255811e-01 0.0000000e+00 1.1263316e-01 
-4.5922717e-01 0.0000000e+00 -1.2653071e-03 
-7.6253718e-04 0.0000000e+00 2.8097566e-04 
-2.6130718e-03 0.0000000e+00 -4.7061192e-05 
-1.1489778e-02 0.0000000e+00 5.4471865e-03 
-5.2287880e-02 0.0000000e+00 1.3275600e-04 
-2.5253010e-01 0.0000000e+00 2.7298933e-01 
-4.5911992e-01 0.0000000e+00 -6.1855451e-03 
-7.6086854e-04 0.0000000e+00 3.3207572e-04 
-2.6211836e-03 0.0000000e+00 -2.5346229e-04 
-1.1452599e-02 0.0000000e+00 6.4499374e-03 
-5.2453671e-02 0.0000000e+00 -4.1529988e-03 
-2.5250208e-01 0.0000000e+00 4.7901550e-01 
-4.5901266e-01 0.0000000e+00 -1.3539229e-02 
-7.5919990e-04 0.0000000e+00 3.3758141e-04 
-2.6292955e-03 0.0000000e+00 -5.2505388e-04 
-1.1415422e-02 0.0000000e+00 6.5759295e-03 
-5.2619457e-02 0.0000000e+00 -1.0043108e-02 
-2.5247404e-01 0.0000000e+00 7.2835588e-01 
-4.5890540e-01 0.0000000e+00 -2.2179980e-02 
-7.5753120e-04 0.0000000e+00 3.0799079e-04 
-2.6374073e-03 0.0000000e+00 -8.1981457e-04 
-1.1378244e-02 0.0000000e+00 6.0248878e-03 
-5.2785248e-02 0.0000000e+00 -1.6580421e-02 
-2.5244603e-01 0.0000000e+00 5.1865464e-01 
-4.5879814e-01 0.0000000e+00 -3.0961420e-02 
-7.5586257e-04 0.0000000e+00 2.5380199e-04 
-2.6455191e-03 0.0000000e+00 -1.0957230e-03 
-1.1341065e-02 0.0000000e+00 4.9965363e-03 
-5.2951038e-02 0.0000000e+00 -2.2807786e-02 
-2.5241801e-01 0.0000000e+00 3.4755608e-01 
-4.5869088e-01 0.0000000e+00 -3.8737174e-02 
-7.5419393e-04 0.0000000e+00 1.8551305e-04 
-2.6536309e-03 0.0000000e+00 -1.3107581e-03 
-1.1303888e-02 0.0000000e+00 3.6905995e-03 
-5.3116824e-02 0.0000000e+00 -2.7768051e-02 
-2.5239000e-01 0.0000000e+00 2.1270442e-01 
-4.5858359e-01 0.0000000e+00 -4.4360861e-02 
-7.5252529e-04 0.0000000e+00 1.1362212e-04 
-2.6617427e-03 0.0000000e+00 -1.4228983e-03 
-1.1266709e-02 0.0000000e+00 2.3068015e-03 
-5.3282615e-02 0.0000000e+00 -3.0504066e-02 
-2.5236195e-01 0.0000000e+00 1.1174386e-01 
-4.5847633e-01 0.0000000e+00 -4.6686105e-02 
-7.5085665e-04 0.0000000e+00 4.8627251e-05 
-2.6698546e-03 0.0000000e+00 -1.3901222e-03 
-1.1229532e-02 0.0000000e+00 1.0448670e-03 
-5.3448405e-02 0.0000000e+00 -3.0058680e-02 
-2.5233394e-01 0.0000000e+00 4.2318638e-02 
-4.5836908e-01 0.0000000e+00 -4.4566531e-02 
-7.4918801e-04 0.0000000e+00 1.0265475e-06 
-2.6779664e-03 0.0000000e+00 -1.1704089e-03 
-1.1192353e-02 0.0000000e+00 1.0452033e-04 
-5.3614192e-02 0.0000000e+00 -2.5474740e-02 
-2.5230592e-01 0.0000000e+00 2.0729823e-03 
-4.5826182e-01 0.0000000e+00 -3.6855757e-02 
-7.4751937e-04 0.0000000e+00 -1.8681900e-05 
-2.6860782e-03 0.0000000e+00 -7.2173669e-04 
-1.1155175e-02 0.0000000e+00 -3.1451424e-04 
-5.3779982e-02 0.0000000e+00 -1.5795097e-02 
-2.5227791e-01 0.0000000e+00 -1.1348881e-02 
-4.5815456e-01 0.0000000e+00 -2.2407411e-02 
0.0000000e+00 0.0000000e+00 0.0000000e+00 
-8.2743252e-05 0.0000000e+00 -1.7114258e-15 
-1.6462263e-04 0.0000000e+00 -3.4228517e-15 
-2.4477427e-04 0.0000000e+00 -5.1342779e-15 
-3.2233426e-04 0.0000000e+00 -6.8457042e-15 
-3.9643876e-04 0.0000000e+00 -8.5571309e-15 
-4.6622389e-04 0.0000000e+00 -1.0268558e-14 
-5.3082575e-04 0.0000000e+00 -1.1979984e-14 
-5.8938051e-04 0.0000000e+00 -1.3691411e-14 
-6.4102426e-04 0.0000000e+00 -1.5402837e-14 
-6.8489311e-04 0.0000000e+00 -1.7114262e-14 
-7.2012324e-04 0.0000000e+00 -1.8825685e-14 
-7.4585073e-04 0.0000000e+00 -2.0537110e-14 
-7.6837331e-04 0.0000000e+00 -1.7370169e-07 
-7.9819059e-04 0.0000000e+00 -3.4740336e-07 
-8.4074185e-04 0.0000000e+00 -5.2110505e-07 
-9.0146612e-04 0.0000000e+00 -6.9480672e-07 
-9.8580262e-04 0.0000000e+00 -8.6850838e-07 
-1.0991906e-03 0.0000000e+00 -1.0422101e-06 
-1.2470691e-03 0.0000000e+00 -1.2159118e-06 
-1.4348772e-03 0.0000000e+00 -1.3896134e-06 
-1.6680543e-03 0.0000000e+00 -1.5633151e-06 
-1.9520392e-03 0.0000000e+00 -1.7370168e-06 
-2.2922715e-03 0.0000000e+00 -1.9107183e-06 
-2.6941898e-03 0.0000000e+00 -2.0844200e-06 
-3.1972523e-03 0.0000000e+00 -2.9534074e-06 
-3.8204885e-03 0.0000000e+00 -3.8223948e-06 
-4.5386967e-03 0.0000000e+00 -4.6913824e-06 
-5.3266748e-03 0.0000000e+00 -5.5603696e-06 
-6.1592218e-03 0.0000000e+00 -6.4293567e-06 
-7.0111346e-03 0.0000000e+00 -7.2983444e-06 
-7.8572119e-03 0.0000000e+00 -8.1673315e-06 
-8.6722514e-03 0.0000000e+00 -9.0363192e-06 
-9.4310520e-03 0.0000000e+00 -9.9053068e-06 
-1.0108410e-02 0.0000000e+00 -1.0774294e-05 
-1.0679127e-02 0.0000000e+00 -1.1643281e-05 
-1.1117998e-02 0.0000000e+00 -1.2512269e-05 
-1.1538322e-02 0.0000000e+00 -1.6685901e-05 
-1.2147021e-02 0.0000000e+00 -2.0859532e-05 
-1.3059329e-02 0.0000000e+00 -2.5033163e-05 
-1.4390477e-02 0.0000000e+00 -2.9206794e-05 
-1.6255697e-02 0.0000000e+00 -3.3380427e-05 
-1.8770222e-02 0.0000000e+00 -3.7554059e-05 
-2.2049284e-02 0.0000000e+00 -4.1727690e-05 
-2.6208114e-02 0.0000000e+00 -4.5901321e-05 
-3.1361945e-02 0.0000000e+00 -5.0074952e-05 
-3.7626009e-02 0.0000000e+00 -5.4248583e-05 
-4.5115542e-02 0.0000000e+00 -5.8422214e-05 
-5.3945772e-02 0.0000000e+00 -6.2595849e-05 
-6.5003805e-02 0.0000000e+00 -8.2606530e-05 
-7.8759268e-02 0.0000000e+00 -1.0261720e-04 
-9.4701141e-02 0.0000000e+00 -1.2262788e-04 
-1.1231841e-01 0.0000000e+00 -1.4263857e-04 
-1.3110007e-01 0.0000000e+00 -1.6264924e-04 
-1.5053512e-01 0.0000000e+00 -1.8265993e-04 
-1.7011255e-01 0.0000000e+00 -2.0267061e-04 
-1.8932132e-01 0.0000000e+00 -2.2268128e-04 
-2.0765047e-01 0.0000000e+00 -2.4269197e-04 
-2.2458895e-01 0.0000000e+00 -2.6270264e-04 
-2.3962575e-01 0.0000000e+00 -2.8271333e-04 
-2.5224987e-01 0.0000000e+00 -3.0272402e-04 
-2.6473200e-01 0.0000000e+00 -2.8375600e-04 
-2.7941331e-01 0.0000000e+00 -2.6478802e-04 
-2.9588869e-01 0.0000000e+00 -2.4582003e-04 
-3.1375295e-01 0.0000000e+00 -2.2685205e-04 
-3.3260092e-01 0.0000000e+00 -2.0788405e-04 
-3.5202748e-01 0.0000000e+00 -1.8891606e-04 
-3.7162739e-01 0.0000000e+00 -1.6994806e-04 
-3.9099556e-01 0.0000000e+00 -1.5098008e-04 
-4.0972680e-01 0.0000000e+00 -1.3201209e-04 
-4.2741594e-01 0.0000000e+00 -1.1304409e-04 
-4.4365785e-01 0.0000000e+00 -9.4076109e-05 
-4.5804730e-01 0.0000000e+00 -7.5108117e-05 
ADJOINT_ROTATION 3 212  float
0.0000000e+00 -1.7235946e-04 0.0000000e+00 
0.0000000e+00 -1.7408721e-04 0.0000000e+00 
0.0000000e+00 -1.7927046e-04 0.0000000e+00 
0.0000000e+00 -1.8790922e-04 0.0000000e+00 
0.0000000e+00 -2.0000347e-04 0.0000000e+00 
0.0000000e+00 -2.1555323e-04 0.0000000e+00 
0.0000000e+00 -2.3455848e-04 0.0000000e+00 
0.0000000e+00 -2.5701924e-04 0.0000000e+00 
0.0000000e+00 -2.8293548e-04 0.0000000e+00 
0.0000000e+00 -3.1230724e-04 0.0000000e+00 
0.0000000e+00 -3.4513450e-04 0.0000000e+00 
0.0000000e+00 -3.8141725e-04 0.0000000e+00 
0.0000000e+00 -4.2115551e-04 0.0000000e+00 
0.0000000e+00 -5.2883185e-04 0.0000000e+00 
0.0000000e+00 -6.1475160e-04 0.0000000e+00 
0.0000000e+00 -6.7891472e-04 0.0000000e+00 
0.0000000e+00 -7.2132121e-04 0.0000000e+00 
0.0000000e+00 -7.4197107e-04 0.0000000e+00 
0.0000000e+00 -7.4086431e-04 0.0000000e+00 
0.0000000e+00 -7.1800099e-04 0.0000000e+00 
0.0000000e+00 -6.7338097e-04 0.0000000e+00 
0.0000000e+00 -6.0700433e-04 0.0000000e+00 
0.0000000e+00 -5.1887112e-04 0.0000000e+00 
0.0000000e+00 -4.0898126e-04 0.0000000e+00 
0.0000000e+00 -2.7733477e-04 0.0000000e+00 
0.0000000e+00 -3.7646818e-04 0.0000000e+00 
0.0000000e+00 -5.7640922e-04 0.0000000e+00 
0.0000000e+00 -8.7715784e-04 0.0000000e+00 
0.0000000e+00 -1.2787140e-03 0.0000000e+00 
0.0000000e+00 -1.7810779e-03 0.0000000e+00 
0.0000000e+00 -2.3842494e-03 0.0000000e+00 
0.0000000e+00 -3.0882286e-03 0.0000000e+00 
0.0000000e+00 -3.8930152e-03 0.0000000e+00 
0.0000000e+00 -4.7986098e-03 0.0000000e+00 
0.0000000e+00 -5.8050114e-03 0.0000000e+00 
0.0000000e+00 -6.9122212e-03 0.0000000e+00 
0.0000000e+00 -8.1202388e-03 0.0000000e+00 
0.0000000e+00 -1.0624127e-02 0.0000000e+00 
0.0000000e+00 -1.2667085e-02 0.0000000e+00 
0.0000000e+00 -1.4249115e-02 0.0000000e+00 
0.0000000e+00 -1.5370216e-02 0.0000000e+00 
0.0000000e+00 -1.6030388e-02 0.0000000e+00 
0.0000000e+00 -1.6229631e-02 0.0000000e+00 
0.0000000e+00 -1.5967945e-02 0.0000000e+00 
0.0000000e+00 -1.5245329e-02 0.0000000e+00 
0.0000000e+00 -1.4061784e-02 0.0000000e+00 
0.0000000e+00 -1.2417310e-02 0.0000000e+00 
0.0000000e+00 -1.0311907e-02 0.0000000e+00 
0.0000000e+00 -7.7455756e-03 0.0000000e+00 
0.0000000e+00 -1.0446608e-02 0.0000000e+00 
0.0000000e+00 -1.5191681e-02 0.0000000e+00 
0.0000000e+00 -2.1980792e-02 0.0000000e+00 
0.0000000e+00 -3.0813945e-02 0.0000000e+00 
0.0000000e+00 -4.1691139e-02 0.0000000e+00 
0.0000000e+00 -5.4612372e-02 0.0000000e+00 
0.0000000e+00 -6.9577642e-02 0.0000000e+00 
0.0000000e+00 -8.6586960e-02 0.0000000e+00 
0.0000000e+00 -1.0564031e-01 0.0000000e+00 
0.0000000e+00 -1.2673770e-01 0.0000000e+00 
0.0000000e+00 -1.4987914e-01 0.0000000e+00 
0.0000000e+00 -1.7506461e-01 0.0000000e+00 
0.0000000e+00 -1.5170091e-01 0.0000000e+00 
0.0000000e+00 -1.2995785e-01 0.0000000e+00 
0.0000000e+00 -1.0983546e-01 0.0000000e+00 
0.0000000e+00 -9.1333717e-02 0.0000000e+00 
0.0000000e+00 -7.4452624e-02 0.0000000e+00 
0.0000000e+00 -5.9192188e-02 0.0000000e+00 
0.0000000e+00 -4.5552399e-02 0.0000000e+00 
0.0000000e+00 -3.3533264e-02 0.0000000e+00 
0.0000000e+00 -2.3134781e-02 0.0000000e+00 
0.0000000e+00 -1.4356949e-02 0.0000000e+00 
0.0000000e+00 -7.1997708e-03 0.0000000e+00 
0.0000000e+00 -1.6632442e-03 0.0000000e+00 
0.0000000e+00 -2.7747630e-04 0.0000000e+00 
0.0000000e+00 6.3152715e-05 0.0000000e+00 
0.0000000e+00 -5.3680995e-03 0.0000000e+00 
0.0000000e+00 2.4889028e-04 0.0000000e+00 
0.0000000e+00 -2.7347186e-01 0.0000000e+00 
0.0000000e+00 6.6427789e-03 0.0000000e+00 
0.0000000e+00 -1.5479325e-04 0.0000000e+00 
0.0000000e+00 3.1959757e-04 0.0000000e+00 
0.0000000e+00 -3.0154095e-03 0.0000000e+00 
0.0000000e+00 6.3290535e-03 0.0000000e+00 
0.0000000e+00 -3.6716759e-01 0.0000000e+00 
0.0000000e+00 1.2656047e-02 0.0000000e+00 
0.0000000e+00 -5.3106385e-05 0.0000000e+00 
0.0000000e+00 4.9199979e-04 0.0000000e+00 
0.0000000e+00 -1.0621682e-03 0.0000000e+00 
0.0000000e+00 1.0494915e-02 0.0000000e+00 
0.0000000e+00 -4.5615178e-01 0.0000000e+00 
0.0000000e+00 1.6376561e-02 0.0000000e+00 
0.0000000e+00 2.7584292e-05 0.0000000e+00 
0.0000000e+00 5.8035937e-04 0.0000000e+00 
0.0000000e+00 4.9162435e-04 0.0000000e+00 
0.0000000e+00 1.2746473e-02 0.0000000e+00 
0.0000000e+00 -5.4042441e-01 0.0000000e+00 
0.0000000e+00 1.7804317e-02 0.0000000e+00 
0.0000000e+00 8.7278786e-05 0.0000000e+00 
0.0000000e+00 5.8467628e-04 0.0000000e+00 
0.0000000e+00 1.6459682e-03 0.0000000e+00 
0.0000000e+00 1.3083728e-02 0.0000000e+00 
0.0000000e+00 3.8001451e-01 0.0000000e+00 
0.0000000e+00 1.6939320e-02 0.0000000e+00 
0.0000000e+00 1.2597709e-04 0.0000000e+00 
0.0000000e+00 5.0495059e-04 0.0000000e+00 
0.0000000e+00 2.4008632e-03 0.0000000e+00 
0.0000000e+00 1.1506681e-02 0.0000000e+00 
0.0000000e+00 3.0516496e-01 0.0000000e+00 
0.0000000e+00 1.3781567e-02 0.0000000e+00 
0.0000000e+00 1.4367922e-04 0.0000000e+00 
0.0000000e+00 3.4118228e-04 0.0000000e+00 
0.0000000e+00 2.7563095e-03 0.0000000e+00 
0.0000000e+00 8.0153318e-03 0.0000000e+00 
0.0000000e+00 2.3502697e-01 0.0000000e+00 
0.0000000e+00 8.3310595e-03 0.0000000e+00 
0.0000000e+00 1.4038518e-04 0.0000000e+00 
0.0000000e+00 9.3371331e-05 0.0000000e+00 
0.0000000e+00 2.7123070e-03 0.0000000e+00 
0.0000000e+00 2.6096790e-03 0.0000000e+00 
0.0000000e+00 1.6960053e-01 0.0000000e+00 
0.0000000e+00 5.8779609e-04 0.0000000e+00 
0.0000000e+00 1.1609493e-04 0.0000000e+00 
0.0000000e+00 -2.3848226e-04 0.0000000e+00 
0.0000000e+00 2.2688559e-03 0.0000000e+00 
0.0000000e+00 -4.7102761e-03 0.0000000e+00 
0.0000000e+00 1.0888562e-01 0.0000000e+00 
0.0000000e+00 -9.4482219e-03 0.0000000e+00 
0.0000000e+00 7.0808514e-05 0.0000000e+00 
0.0000000e+00 -6.5437850e-04 0.0000000e+00 
0.0000000e+00 1.4259560e-03 0.0000000e+00 
0.0000000e+00 -1.3944534e-02 0.0000000e+00 
0.0000000e+00 5.2882262e-02 0.0000000e+00 
0.0000000e+00 -2.1776997e-02 0.0000000e+00 
0.0000000e+00 4.5259112e-06 0.0000000e+00 
0.0000000e+00 -1.1543173e-03 0.0000000e+00 
0.0000000e+00 1.8360739e-04 0.0000000e+00 
0.0000000e+00 -2.5093094e-02 0.0000000e+00 
0.0000000e+00 1.5904487e-03 0.0000000e+00 
0.0000000e+00 -3.6398526e-02 0.0000000e+00 
0.0000000e+00 -3.3154894e-04 0.0000000e+00 
0.0000000e+00 -3.2982120e-04 0.0000000e+00 
0.0000000e+00 -3.2463792e-04 0.0000000e+00 
0.0000000e+00 -3.1599918e-04 0.0000000e+00 
0.0000000e+00 -3.0390493e-04 0.0000000e+00 
0.0000000e+00 -2.8835516e-04 0.0000000e+00 
0.0000000e+00 -2.6934993e-04 0.0000000e+00 
0.0000000e+00 -2.4688916e-04 0.0000000e+00 
0.0000000e+00 -2.2097291e-04 0.0000000e+00 
0.0000000e+00 -1.9160115e-04 0.0000000e+00 
0.0000000e+00 -1.5877390e-04 0.0000000e+00 
0.0000000e+00 -1.2249114e-04 0.0000000e+00 
0.0000000e+00 -8.2752878e-05 0.0000000e+00 
0.0000000e+00 -1.0105361e-04 0.0000000e+00 
0.0000000e+00 -1.4111098e-04 0.0000000e+00 
0.0000000e+00 -2.0292496e-04 0.0000000e+00 
0.0000000e+00 -2.8649557e-04 0.0000000e+00 
0.0000000e+00 -3.9182280e-04 0.0000000e+00 
0.0000000e+00 -5.1890663e-04 0.0000000e+00 
0.0000000e+00 -6.6774711e-04 0.0000000e+00 
0.0000000e+00 -8.3834422e-04 0.0000000e+00 
0.0000000e+00 -1.0306980e-03 0.0000000e+00 
0.0000000e+00 -1.2448083e-03 0.0000000e+00 
0.0000000e+00 -1.4806752e-03 0.0000000e+00 
0.0000000e+00 -1.7382988e-03 0.0000000e+00 
0.0000000e+00 -2.2693984e-03 0.0000000e+00 
0.0000000e+00 -2.6996902e-03 0.0000000e+00 
0.0000000e+00 -3.0291744e-03 0.0000000e+00 
0.0000000e+00 -3.2578511e-03 0.0000000e+00 
0.0000000e+00 -3.3857201e-03 0.0000000e+00 
0.0000000e+00 -3.4127815e-03 0.0000000e+00 
0.0000000e+00 -3.3390352e-03 0.0000000e+00 
0.0000000e+00 -3.1644814e-03 0.0000000e+00 
0.0000000e+00 -2.8891200e-03 0.0000000e+00 
0.0000000e+00 -2.5129509e-03 0.0000000e+00 
0.0000000e+00 -2.0359743e-03 0.0000000e+00 
0.0000000e+00 -1.4581900e-03 0.0000000e+00 
0.0000000e+00 -1.9812274e-03 0.0000000e+00 
0.0000000e+00 -2.9651937e-03 0.0000000e+00 
0.0000000e+00 -4.4100895e-03 0.0000000e+00 
0.0000000e+00 -6.3159140e-03 0.0000000e+00 
0.0000000e+00 -8.6826673e-03 0.0000000e+00 
0.0000000e+00 -1.1510350e-02 0.0000000e+00 
0.0000000e+00 -1.4798962e-02 0.0000000e+00 
0.0000000e+00 -1.8548504e-02 0.0000000e+00 
0.0000000e+00 -2.2758972e-02 0.0000000e+00 
0.0000000e+00 -2.7430372e-02 0.0000000e+00 
0.0000000e+00 -3.2562699e-02 0.0000000e+00 
0.0000000e+00 -3.8155958e-02 0.0000000e+00 
0.0000000e+00 -4.9967665e-02 0.0000000e+00 
0.0000000e+00 -5.9735335e-02 0.0000000e+00 
0.0000000e+00 -6.7458965e-02 0.0000000e+00 
0.0000000e+00 -7.3138550e-02 0.0000000e+00 
0.0000000e+00 -7.6774098e-02 0.0000000e+00 
0.0000000e+00 -7.8365609e-02 0.0000000e+00 
0.0000000e+00 -7.7913076e-02 0.0000000e+00 
0.0000000e+00 -7.5416505e-02 0.0000000e+00 
0.0000000e+00 -7.0875898e-02 0.0000000e+00 
0.0000000e+00 -6.4291246e-02 0.0000000e+00 
0.0000000e+00 -5.5662550e-02 0.0000000e+00 
0.0000000e+00 -4.4989821e-02 0.0000000e+00 
0.0000000e+00 -5.4596990e-02 0.0000000e+00 
0.0000000e+00 -6.2583506e-02 0.0000000e+00 