# vtk DataFile Version 4.0
vtk output
ASCII
DATASET UNSTRUCTURED_GRID
POINTS 30 float
0.0000000e+00 0.0000000e+00 0.0000000e+00 
0.0000000e+00 0.0000000e+00 8.0000001e-01 
0.0000000e+00 0.0000000e+00 1.6000000e+00 
0.0000000e+00 0.0000000e+00 2.4000001e+00 
0.0000000e+00 0.0000000e+00 3.2000000e+00 
0.0000000e+00 0.0000000e+00 4.0000000e+00 
0.0000000e+00 0.0000000e+00 4.8000002e+00 
0.0000000e+00 0.0000000e+00 5.5999999e+00 
0.0000000e+00 0.0000000e+00 6.4000001e+00 
0.0000000e+00 0.0000000e+00 7.1999998e+00 
0.0000000e+00 0.0000000e+00 8.0000000e+00 
1.0000000e+01 0.0000000e+00 0.0000000e+00 
1.0000000e+01 0.0000000e+00 8.0000001e-01 
1.0000000e+01 0.0000000e+00 1.6000000e+00 
1.0000000e+01 0.0000000e+00 2.4000001e+00 
1.0000000e+01 0.0000000e+00 3.2000000e+00 
1.0000000e+01 0.0000000e+00 4.0000000e+00 
1.0000000e+01 0.0000000e+00 4.8000002e+00 
1.0000000e+01 0.0000000e+00 5.5999999e+00 
1.0000000e+01 0.0000000e+00 6.4000001e+00 
1.0000000e+01 0.0000000e+00 7.1999998e+00 
1.0000000e+01 0.0000000e+00 8.0000000e+00 
2.0000000e+00 0.0000000e+00 4.0000000e+00 
4.0000000e+00 0.0000000e+00 4.0000000e+00 
6.0000000e+00 0.0000000e+00 4.0000000e+00 
8.0000000e+00 0.0000000e+00 4.0000000e+00 
2.0000000e+00 0.0000000e+00 8.0000000e+00 
4.0000000e+00 0.0000000e+00 8.0000000e+00 
6.0000000e+00 0.0000000e+00 8.0000000e+00 
8.0000000e+00 0.0000000e+00 8.0000000e+00 

CELLS 30 90
2 0 1
2 1 2
2 2 3
2 3 4
2 4 5
2 5 6
2 6 7
2 7 8
2 8 9
2 9 10
2 11 12
2 12 13
2 13 14
2 14 15
2 15 16
2 16 17
2 17 18
2 18 19
2 19 20
2 20 21
2 5 22
2 22 23
2 23 24
2 24 25
2 25 16
2 10 26
2 26 27
2 27 28
2 28 29
2 29 21

CELL_TYPES 30
3
3
3
3
3
3
3
3
3
3
3
3
3
3
3
3
3
3
3
3
3
3
3
3
3
3
3
3
3
3
POINT_DATA 30
FIELD FieldData 7
DISPLACEMENT 3 30  float
0.0000000e+00 0.0000000e+00 0.0000000e+00 
1.2464355e-03 0.0000000e+00 -9.5092910e-06 
2.3730961e-03 0.0000000e+00 -1.9018582e-05 
3.2602069e-03 0.0000000e+00 -2.8527873e-05 
3.8060753e-03 0.0000000e+00 -3.9539318e-05 
3.9991494e-03 0.0000000e+00 -4.7737725e-05 
3.9336733e-03 0.0000000e+00 -5.7345143e-05 
3.6823575e-03 0.0000000e+00 -6.8799854e-05 
3.3529894e-03 0.0000000e+00 -7.6935059e-05 
3.0820360e-03 0.0000000e+00 -8.5070264e-05 
3.0212568e-03 0.0000000e+00 -8.9428031e-05 
0.0000000e+00 0.0000000e+00 0.0000000e+00 
1.1836459e-03 0.0000000e+00 -4.7432172e-06 
2.2895031e-03 0.0000000e+00 -1.1959053e-05 
3.1606031e-03 0.0000000e+00 -1.8289571e-05 
3.7043577e-03 0.0000000e+00 -2.6280228e-05 
3.9264224e-03 0.0000000e+00 -3.2046923e-05 
3.8733720e-03 0.0000000e+00 -3.4083154e-05 
3.6914919e-03 0.0000000e+00 -3.6648744e-05 
3.4686038e-03 0.0000000e+00 -3.9214334e-05 
3.2520948e-03 0.0000000e+00 -4.0361585e-05 
2.9905101e-03 0.0000000e+00 -4.1512369e-05 
3.9939596e-03 0.0000000e+00 -1.0817617e-04 
3.9828778e-03 0.0000000e+00 -3.5227841e-04 
3.9628749e-03 0.0000000e+00 -2.2443695e-04 
3.9446484e-03 0.0000000e+00 -3.3009674e-05 
3.0085414e-03 0.0000000e+00 -1.1746895e-03 
3.0031556e-03 0.0000000e+00 -2.2193256e-03 
2.9989404e-03 0.0000000e+00 -2.0351328e-03 
2.9947252e-03 0.0000000e+00 -1.0534659e-03 
ROTATION 3 30  float
0.0000000e+00 1.5829974e-03 0.0000000e+00 
0.0000000e+00 1.5081380e-03 0.0000000e+00 
0.0000000e+00 1.2835602e-03 0.0000000e+00 
0.0000000e+00 9.0926373e-04 0.0000000e+00 
0.0000000e+00 4.5305741e-04 0.0000000e+00 
0.0000000e+00 4.9541588e-05 0.0000000e+00 
0.0000000e+00 -2.1177197e-04 0.0000000e+00 
0.0000000e+00 -3.9042326e-04 0.0000000e+00 
0.0000000e+00 -4.0409894e-04 0.0000000e+00 
0.0000000e+00 -2.4438684e-04 0.0000000e+00 
0.0000000e+00 1.3764828e-04 0.0000000e+00 
0.0000000e+00 1.4907909e-03 0.0000000e+00 
0.0000000e+00 1.4570905e-03 0.0000000e+00 
0.0000000e+00 1.2664837e-03 0.0000000e+00 
0.0000000e+00 8.9056452e-04 0.0000000e+00 
0.0000000e+00 4.7696321e-04 0.0000000e+00 
0.0000000e+00 7.3404612e-05 0.0000000e+00 
0.0000000e+00 -1.7158681e-04 0.0000000e+00 
0.0000000e+00 -2.6804672e-04 0.0000000e+00 
0.0000000e+00 -2.7410671e-04 0.0000000e+00 
0.0000000e+00 -2.8326522e-04 0.0000000e+00 
0.0000000e+00 -3.8568379e-04 0.0000000e+00 
0.0000000e+00 8.9175111e-05 0.0000000e+00 
0.0000000e+00 5.0568997e-05 0.0000000e+00 
0.0000000e+00 -1.1705992e-04 0.0000000e+00 
0.0000000e+00 -6.1232437e-05 0.0000000e+00 
0.0000000e+00 7.0551533e-04 0.0000000e+00 
0.0000000e+00 2.3513671e-04 0.0000000e+00 
0.0000000e+00 -3.5539723e-04 0.0000000e+00 
0.0000000e+00 -5.6233740e-04 0.0000000e+00 
REACTION 3 30  float
-7.3689614e+03 -0.0000000e+00 2.4961889e+04 
1.1641532e-10 -0.0000000e+00 -0.0000000e+00 
-5.2386895e-10 -0.0000000e+00 -7.2759576e-12 
2.4556357e-11 -0.0000000e+00 1.0913936e-11 
8.7038643e-10 -0.0000000e+00 2.1827873e-11 
-9.0039975e-10 -0.0000000e+00 -1.1277734e-10 
-1.9472282e-09 -0.0000000e+00 -6.9121597e-11 
-6.9485395e-10 -0.0000000e+00 -7.2759576e-12 
1.7753337e-09 -0.0000000e+00 2.9103830e-11 
-1.0368240e-10 -0.0000000e+00 -3.6379788e-12 
1.0622898e-09 -0.0000000e+00 -7.2759576e-12 
-3.3173828e+03 -0.0000000e+00 1.2450945e+04 
8.7311491e-11 -0.0000000e+00 3.6379788e-12 
8.5492502e-10 -0.0000000e+00 1.4551915e-11 
-5.0567905e-10 -0.0000000e+00 1.4551915e-11 
-1.3124009e-09 -0.0000000e+00 -2.3646862e-11 
-2.5029294e-09 -0.0000000e+00 -5.5342753e-10 
1.1632437e-09 -0.0000000e+00 1.8189894e-11 
1.4551915e-11 -0.0000000e+00 1.4551915e-11 
-0.0000000e+00 -0.0000000e+00 -1.4460966e-10 
7.4578566e-11 -0.0000000e+00 1.8189894e-12 
9.3132257e-10 -0.0000000e+00 -5.0931703e-11 
-5.4205884e-10 -0.0000000e+00 3.3469405e-10 
5.9299055e-10 -0.0000000e+00 -3.2741809e-11 
-1.0186341e-10 -0.0000000e+00 -4.0972736e-10 
2.3283064e-09 -0.0000000e+00 2.1827873e-11 
3.6379788e-11 -0.0000000e+00 -7.2759576e-12 
-7.0031092e-10 -0.0000000e+00 -1.4551915e-11 
-0.0000000e+00 -0.0000000e+00 3.7107384e-10 
-4.6566129e-10 -0.0000000e+00 -3.6379788e-12 
REACTION_MOMENT 3 30  float
-0.0000000e+00 4.3655746e-11 -0.0000000e+00 
-0.0000000e+00 5.8207661e-11 -0.0000000e+00 
-0.0000000e+00 3.2014214e-10 -0.0000000e+00 
-0.0000000e+00 -4.0017767e-10 -0.0000000e+00 
-0.0000000e+00 7.1304385e-10 -0.0000000e+00 
-0.0000000e+00 9.2404662e-10 -0.0000000e+00 
-0.0000000e+00 4.1109161e-10 -0.0000000e+00 
-0.0000000e+00 -5.8207661e-11 -0.0000000e+00 
-0.0000000e+00 -9.0585672e-10 -0.0000000e+00 
-0.0000000e+00 -4.7839421e-10 -0.0000000e+00 
-0.0000000e+00 -1.9645086e-10 -0.0000000e+00 
-0.0000000e+00 1.4551915e-11 -0.0000000e+00 
-0.0000000e+00 -2.9103830e-11 -0.0000000e+00 
-0.0000000e+00 2.0372681e-10 -0.0000000e+00 
-0.0000000e+00 7.2759576e-12 -0.0000000e+00 
-0.0000000e+00 1.8553692e-10 -0.0000000e+00 
-0.0000000e+00 -3.5015546e-10 -0.0000000e+00 
-0.0000000e+00 -7.2759576e-11 -0.0000000e+00 
-0.0000000e+00 4.6929927e-10 -0.0000000e+00 
-0.0000000e+00 1.9645086e-10 -0.0000000e+00 
-0.0000000e+00 -1.4188117e-10 -0.0000000e+00 
-0.0000000e+00 -1.4551915e-10 -0.0000000e+00 
-0.0000000e+00 -4.0927262e-11 -0.0000000e+00 
-0.0000000e+00 1.8189894e-12 -0.0000000e+00 
-0.0000000e+00 -4.1836756e-11 -0.0000000e+00 
-0.0000000e+00 9.5496944e-12 -0.0000000e+00 
-0.0000000e+00 -2.1827873e-11 -0.0000000e+00 
-0.0000000e+00 2.0008883e-11 -0.0000000e+00 
-0.0000000e+00 1.4551915e-11 -0.0000000e+00 
-0.0000000e+00 -1.0913936e-11 -0.0000000e+00 
VOLUME_ACCELERATION 3 30  float
0.0000000e+00 0.0000000e+00 0.0000000e+00 
0.0000000e+00 0.0000000e+00 0.0000000e+00 
0.0000000e+00 0.0000000e+00 0.0000000e+00 
0.0000000e+00 0.0000000e+00 0.0000000e+00 
0.0000000e+00 0.0000000e+00 0.0000000e+00 
0.0000000e+00 0.0000000e+00 0.0000000e+00 
0.0000000e+00 0.0000000e+00 0.0000000e+00 
0.0000000e+00 0.0000000e+00 0.0000000e+00 
0.0000000e+00 0.0000000e+00 0.0000000e+00 
0.0000000e+00 0.0000000e+00 0.0000000e+00 
0.0000000e+00 0.0000000e+00 0.0000000e+00 
0.0000000e+00 0.0000000e+00 0.0000000e+00 
0.0000000e+00 0.0000000e+00 0.0000000e+00 
0.0000000e+00 0.0000000e+00 0.0000000e+00 
0.0000000e+00 0.0000000e+00 0.0000000e+00 
0.0000000e+00 0.0000000e+00 0.0000000e+00 
0.0000000e+00 0.0000000e+00 0.0000000e+00 
0.0000000e+00 0.0000000e+00 0.0000000e+00 
0.0000000e+00 0.0000000e+00 0.0000000e+00 
0.0000000e+00 0.0000000e+00 0.0000000e+00 
0.0000000e+00 0.0000000e+00 0.0000000e+00 
0.0000000e+00 0.0000000e+00 0.0000000e+00 
0.0000000e+00 0.0000000e+00 0.0000000e+00 
0.0000000e+00 0.0000000e+00 0.0000000e+00 
0.0000000e+00 0.0000000e+00 0.0000000e+00 
0.0000000e+00 0.0000000e+00 0.0000000e+00 
0.0000000e+00 0.0000000e+00 0.0000000e+00 
0.0000000e+00 0.0000000e+00 0.0000000e+00 
0.0000000e+00 0.0000000e+00 0.0000000e+00 
0.0000000e+00 0.0000000e+00 0.0000000e+00 
POINT_LOAD 3 30  float
0.0000000e+00 0.0000000e+00 0.0000000e+00 
0.0000000e+00 0.0000000e+00 0.0000000e+00 
0.0000000e+00 0.0000000e+00 0.0000000e+00 
6.6749170e+03 0.0000000e+00 3.9431584e+03 
6.5748120e+03 0.0000000e+00 -7.3842275e+03 
0.0000000e+00 0.0000000e+00 0.0000000e+00 
7.2746338e+03 0.0000000e+00 4.8491587e+03 
8.2807965e+02 0.0000000e+00 -8.7137119e+03 
0.0000000e+00 0.0000000e+00 0.0000000e+00 
4.8170591e+03 0.0000000e+00 -9.9157920e+03 
0.0000000e+00 0.0000000e+00 0.0000000e+00 
0.0000000e+00 0.0000000e+00 0.0000000e+00 
-8.8107168e+03 0.0000000e+00 6.4906235e+03 
6.0145293e+03 0.0000000e+00 -2.3239607e+03 
8.5177959e+03 0.0000000e+00 4.3578677e+03 
-3.8198667e+03 0.0000000e+00 -5.8378999e+03 
-7.5502202e+03 0.0000000e+00 -9.1718428e+03 
-5.7223291e+03 0.0000000e+00 1.3895636e+03 
0.0000000e+00 0.0000000e+00 0.0000000e+00 
-9.2037500e+03 0.0000000e+00 -3.7231316e+03 
3.2846951e+02 0.0000000e+00 9.2612324e+00 
0.0000000e+00 0.0000000e+00 0.0000000e+00 
6.1862168e+03 0.0000000e+00 8.6295703e+03 
9.3672256e+03 0.0000000e+00 -7.8297354e+03 
-1.8654308e+03 0.0000000e+00 2.2781877e+03 
0.0000000e+00 0.0000000e+00 0.0000000e+00 
-7.6958149e+03 0.0000000e+00 -6.5258755e+03 
-1.2292655e+03 0.0000000e+00 -7.9340483e+03 
0.0000000e+00 0.0000000e+00 0.0000000e+00 
0.0000000e+00 0.0000000e+00 0.0000000e+00 
POINT_MOMENT 3 30  float
0.0000000e+00 0.0000000e+00 0.0000000e+00 
0.0000000e+00 0.0000000e+00 0.0000000e+00 
0.0000000e+00 0.0000000e+00 0.0000000e+00 
0.0000000e+00 0.0000000e+00 0.0000000e+00 
0.0000000e+00 0.0000000e+00 0.0000000e+00 
0.0000000e+00 0.0000000e+00 0.0000000e+00 
0.0000000e+00 0.0000000e+00 0.0000000e+00 
0.0000000e+00 0.0000000e+00 0.0000000e+00 
0.0000000e+00 0.0000000e+00 0.0000000e+00 
0.0000000e+00 0.0000000e+00 0.0000000e+00 
0.0000000e+00 0.0000000e+00 0.0000000e+00 
0.0000000e+00 0.0000000e+00 0.0000000e+00 
0.0000000e+00 0.0000000e+00 0.0000000e+00 
0.0000000e+00 0.0000000e+00 0.0000000e+00 
0.0000000e+00 0.0000000e+00 0.0000000e+00 
0.0000000e+00 0.0000000e+00 0.0000000e+00 
0.0000000e+00 0.0000000e+00 0.0000000e+00 
0.0000000e+00 0.0000000e+00 0.0000000e+00 
0.0000000e+00 0.0000000e+00 0.0000000e+00 
0.0000000e+00 0.0000000e+00 0.0000000e+00 
0.0000000e+00 0.0000000e+00 0.0000000e+00 
0.0000000e+00 0.0000000e+00 0.0000000e+00 
0.0000000e+00 0.0000000e+00 0.0000000e+00 
0.0000000e+00 0.0000000e+00 0.0000000e+00 
0.0000000e+00 0.0000000e+00 0.0000000e+00 
0.0000000e+00 0.0000000e+00 0.0000000e+00 
0.0000000e+00 0.0000000e+00 0.0000000e+00 
0.0000000e+00 0.0000000e+00 0.0000000e+00 
0.0000000e+00 0.0000000e+00 0.0000000e+00 
0.0000000e+00 0.0000000e+00 0.0000000e+00 
CELL_DATA 30
FIELD FieldData 9
YOUNG_MODULUS 1 30  float
2.1000000e+11
2.1000000e+11
2.1000000e+11
2.1000000e+11
2.1000000e+11
2.1000000e+11
2.1000000e+11
2.1000000e+11
2.1000000e+11
2.1000000e+11
2.1000000e+11
2.1000000e+11
2.1000000e+11
2.1000000e+11
2.1000000e+11
2.1000000e+11
2.1000000e+11
2.1000000e+11
2.1000000e+11
2.1000000e+11
2.1000000e+11
2.1000000e+11
2.1000000e+11
2.1000000e+11
2.1000000e+11
2.1000000e+11
2.1000000e+11
2.1000000e+11
2.1000000e+11
2.1000000e+11
DENSITY 1 30  float
7.8500000e+03
7.8500000e+03
7.8500000e+03
7.8500000e+03
7.8500000e+03
7.8500000e+03
7.8500000e+03
7.8500000e+03
7.8500000e+03
7.8500000e+03
7.8500000e+03
7.8500000e+03
7.8500000e+03
7.8500000e+03
7.8500000e+03
7.8500000e+03
7.8500000e+03
7.8500000e+03
7.8500000e+03
7.8500000e+03
7.8500000e+03
7.8500000e+03
7.8500000e+03
7.8500000e+03
7.8500000e+03
7.8500000e+03
7.8500000e+03
7.8500000e+03
7.8500000e+03
7.8500000e+03
CROSS_AREA 1 30  float
9.9999998e-03
9.9999998e-03
9.9999998e-03
9.9999998e-03
9.9999998e-03
9.9999998e-03
9.9999998e-03
9.9999998e-03
9.9999998e-03
9.9999998e-03
9.9999998e-03
9.9999998e-03
9.9999998e-03
9.9999998e-03
9.9999998e-03
9.9999998e-03
9.9999998e-03
9.9999998e-03
9.9999998e-03
9.9999998e-03
9.9999998e-03
9.9999998e-03
9.9999998e-03
9.9999998e-03
9.9999998e-03
9.9999998e-03
9.9999998e-03
9.9999998e-03
9.9999998e-03
9.9999998e-03
I22 1 30  float
1.5000001e-04
1.5000001e-04
1.5000001e-04
1.5000001e-04
1.5000001e-04
1.5000001e-04
1.5000001e-04
1.5000001e-04
1.5000001e-04
1.5000001e-04
1.5000001e-04
1.5000001e-04
1.5000001e-04
1.5000001e-04
1.5000001e-04
1.5000001e-04
1.5000001e-04
1.5000001e-04
1.5000001e-04
1.5000001e-04
1.5000001e-04
1.5000001e-04
1.5000001e-04
1.5000001e-04
1.5000001e-04
1.5000001e-04
1.5000001e-04
1.5000001e-04
1.5000001e-04
1.5000001e-04
I33 1 30  float
1.5000001e-04
1.5000001e-04
1.5000001e-04
1.5000001e-04
1.5000001e-04
1.5000001e-04
1.5000001e-04
1.5000001e-04
1.5000001e-04
1.5000001e-04
1.5000001e-04
1.5000001e-04
1.5000001e-04
1.5000001e-04
1.5000001e-04
1.5000001e-04
1.5000001e-04
1.5000001e-04
1.5000001e-04
1.5000001e-04
1.5000001e-04
1.5000001e-04
1.5000001e-04
1.5000001e-04
1.5000001e-04
1.5000001e-04
1.5000001e-04
1.5000001e-04
1.5000001e-04
1.5000001e-04
TORSIONAL_INERTIA 1 30  float
3.0000001e-04
3.0000001e-04
3.0000001e-04
3.0000001e-04
3.0000001e-04
3.0000001e-04
3.0000001e-04
3.0000001e-04
3.0000001e-04
3.0000001e-04
3.0000001e-04
3.0000001e-04
3.0000001e-04
3.0000001e-04
3.0000001e-04
3.0000001e-04
3.0000001e-04
3.0000001e-04
3.0000001e-04
3.0000001e-04
3.0000001e-04
3.0000001e-04
3.0000001e-04
3.0000001e-04
3.0000001e-04
3.0000001e-04
3.0000001e-04
3.0000001e-04
3.0000001e-04
3.0000001e-04
POISSON_RATIO 1 30  float
3.0000001e-01
3.0000001e-01
3.0000001e-01
3.0000001e-01
3.0000001e-01
3.0000001e-01
3.0000001e-01
3.0000001e-01
3.0000001e-01
3.0000001e-01
3.0000001e-01
3.0000001e-01
3.0000001e-01
3.0000001e-01
3.0000001e-01
3.0000001e-01
3.0000001e-01
3.0000001e-01
3.0000001e-01
3.0000001e-01
3.0000001e-01
3.0000001e-01
3.0000001e-01
3.0000001e-01
3.0000001e-01
3.0000001e-01
3.0000001e-01
3.0000001e-01
3.0000001e-01
3.0000001e-01
MOMENT 3 30  float
0.0000000e+00 -2.9475845e+03 0.0000000e+00 
0.0000000e+00 -8.8427539e+03 0.0000000e+00 
0.0000000e+00 -1.4737923e+04 0.0000000e+00 
0.0000000e+00 -1.7963125e+04 0.0000000e+00 
0.0000000e+00 -1.5888436e+04 0.0000000e+00 
0.0000000e+00 -1.0289222e+04 0.0000000e+00 
0.0000000e+00 -7.0343936e+03 0.0000000e+00 
0.0000000e+00 -5.3848071e+02 0.0000000e+00 
0.0000000e+00 6.2886641e+03 0.0000000e+00 
0.0000000e+00 1.5042633e+04 0.0000000e+00 
0.0000000e+00 -1.3269531e+03 0.0000000e+00 
0.0000000e+00 -7.5051460e+03 0.0000000e+00 
0.0000000e+00 -1.4801814e+04 0.0000000e+00 
0.0000000e+00 -1.6285553e+04 0.0000000e+00 
0.0000000e+00 -1.5890119e+04 0.0000000e+00 
0.0000000e+00 -9.6465371e+03 0.0000000e+00 
0.0000000e+00 -3.7981091e+03 0.0000000e+00 
0.0000000e+00 -2.3861250e+02 0.0000000e+00 
0.0000000e+00 -3.6061591e+02 0.0000000e+00 
0.0000000e+00 -4.0327314e+03 0.0000000e+00 
0.0000000e+00 6.2422803e+02 0.0000000e+00 
0.0000000e+00 -6.0804633e+02 0.0000000e+00 
0.0000000e+00 -2.6401555e+03 0.0000000e+00 
0.0000000e+00 8.7928290e+02 0.0000000e+00 
0.0000000e+00 2.1205334e+03 0.0000000e+00 
0.0000000e+00 8.9439062e+03 0.0000000e+00 
0.0000000e+00 -7.4084634e+03 0.0000000e+00 
0.0000000e+00 -9.3009102e+03 0.0000000e+00 
0.0000000e+00 -3.2593076e+03 0.0000000e+00 
0.0000000e+00 2.7822944e+03 0.0000000e+00 
FORCE 3 30  float
-2.4961889e+04 0.0000000e+00 -7.3689614e+03 
-2.4961889e+04 0.0000000e+00 -7.3689614e+03 
-2.4961889e+04 0.0000000e+00 -7.3689614e+03 
-2.8905047e+04 0.0000000e+00 -6.9404437e+02 
-2.1520818e+04 0.0000000e+00 5.8807676e+03 
-2.5219467e+04 0.0000000e+00 4.3121771e+02 
-3.0068625e+04 0.0000000e+00 7.7058516e+03 
-2.1354914e+04 0.0000000e+00 8.5339316e+03 
-2.1354914e+04 0.0000000e+00 8.5339316e+03 
-1.1439123e+04 0.0000000e+00 1.3350990e+04 
-1.2450945e+04 0.0000000e+00 -3.3173828e+03 
-1.8941568e+04 0.0000000e+00 -1.2128100e+04 
-1.6617607e+04 0.0000000e+00 -6.1135708e+03 
-2.0975477e+04 0.0000000e+00 2.4042251e+03 
-1.5137575e+04 0.0000000e+00 -1.4156417e+03 
-5.3451074e+03 0.0000000e+00 1.0171700e+04 
-6.7346714e+03 0.0000000e+00 4.4493706e+03 
-6.7346714e+03 0.0000000e+00 4.4493706e+03 
-3.0115398e+03 0.0000000e+00 -4.7543794e+03 
-3.0208010e+03 0.0000000e+00 -4.4259097e+03 
-5.4495503e+03 0.0000000e+00 3.6986477e+03 
-1.1635767e+04 0.0000000e+00 -4.9309224e+03 
-2.1002992e+04 0.0000000e+00 2.8988130e+03 
-1.9137561e+04 0.0000000e+00 6.2062531e+02 
-1.9137561e+04 0.0000000e+00 6.2062531e+02 
-1.3350990e+04 0.0000000e+00 -1.1439123e+04 
-5.6551753e+03 0.0000000e+00 -4.9132471e+03 
-4.4259097e+03 0.0000000e+00 3.0208010e+03 
-4.4259097e+03 0.0000000e+00 3.0208010e+03 
-4.4259097e+03 0.0000000e+00 3.0208010e+03 
