# vtk DataFile Version 4.0
vtk output
ASCII
DATASET UNSTRUCTURED_GRID
POINTS 212 float
0.0000000e+00 0.0000000e+00 0.0000000e+00 
0.0000000e+00 0.0000000e+00 2.5000000e-01 
0.0000000e+00 0.0000000e+00 5.0000000e-01 
0.0000000e+00 0.0000000e+00 7.5000000e-01 
0.0000000e+00 0.0000000e+00 1.0000000e+00 
0.0000000e+00 0.0000000e+00 1.2500000e+00 
0.0000000e+00 0.0000000e+00 1.5000000e+00 
0.0000000e+00 0.0000000e+00 1.7500000e+00 
0.0000000e+00 0.0000000e+00 2.0000000e+00 
0.0000000e+00 0.0000000e+00 2.2500000e+00 
0.0000000e+00 0.0000000e+00 2.5000000e+00 
0.0000000e+00 0.0000000e+00 2.7500000e+00 
0.0000000e+00 0.0000000e+00 3.0000000e+00 
0.0000000e+00 0.0000000e+00 3.2500000e+00 
0.0000000e+00 0.0000000e+00 3.5000000e+00 
0.0000000e+00 0.0000000e+00 3.7500000e+00 
0.0000000e+00 0.0000000e+00 4.0000000e+00 
0.0000000e+00 0.0000000e+00 4.2500000e+00 
0.0000000e+00 0.0000000e+00 4.5000000e+00 
0.0000000e+00 0.0000000e+00 4.7500000e+00 
0.0000000e+00 0.0000000e+00 5.0000000e+00 
0.0000000e+00 0.0000000e+00 5.2500000e+00 
0.0000000e+00 0.0000000e+00 5.5000000e+00 
0.0000000e+00 0.0000000e+00 5.7500000e+00 
0.0000000e+00 0.0000000e+00 6.0000000e+00 
0.0000000e+00 0.0000000e+00 6.2500000e+00 
0.0000000e+00 0.0000000e+00 6.5000000e+00 
0.0000000e+00 0.0000000e+00 6.7500000e+00 
0.0000000e+00 0.0000000e+00 7.0000000e+00 
0.0000000e+00 0.0000000e+00 7.2500000e+00 
0.0000000e+00 0.0000000e+00 7.5000000e+00 
0.0000000e+00 0.0000000e+00 7.7500000e+00 
0.0000000e+00 0.0000000e+00 8.0000000e+00 
0.0000000e+00 0.0000000e+00 8.2500000e+00 
0.0000000e+00 0.0000000e+00 8.5000000e+00 
0.0000000e+00 0.0000000e+00 8.7500000e+00 
0.0000000e+00 0.0000000e+00 9.0000000e+00 
0.0000000e+00 0.0000000e+00 9.2500000e+00 
0.0000000e+00 0.0000000e+00 9.5000000e+00 
0.0000000e+00 0.0000000e+00 9.7500000e+00 
0.0000000e+00 0.0000000e+00 1.0000000e+01 
0.0000000e+00 0.0000000e+00 1.0250000e+01 
0.0000000e+00 0.0000000e+00 1.0500000e+01 
0.0000000e+00 0.0000000e+00 1.0750000e+01 
0.0000000e+00 0.0000000e+00 1.1000000e+01 
0.0000000e+00 0.0000000e+00 1.1250000e+01 
0.0000000e+00 0.0000000e+00 1.1500000e+01 
0.0000000e+00 0.0000000e+00 1.1750000e+01 
0.0000000e+00 0.0000000e+00 1.2000000e+01 
0.0000000e+00 0.0000000e+00 1.2250000e+01 
0.0000000e+00 0.0000000e+00 1.2500000e+01 
0.0000000e+00 0.0000000e+00 1.2750000e+01 
0.0000000e+00 0.0000000e+00 1.3000000e+01 
0.0000000e+00 0.0000000e+00 1.3250000e+01 
0.0000000e+00 0.0000000e+00 1.3500000e+01 
0.0000000e+00 0.0000000e+00 1.3750000e+01 
0.0000000e+00 0.0000000e+00 1.4000000e+01 
0.0000000e+00 0.0000000e+00 1.4250000e+01 
0.0000000e+00 0.0000000e+00 1.4500000e+01 
0.0000000e+00 0.0000000e+00 1.4750000e+01 
0.0000000e+00 0.0000000e+00 1.5000000e+01 
0.0000000e+00 0.0000000e+00 1.5250000e+01 
0.0000000e+00 0.0000000e+00 1.5500000e+01 
0.0000000e+00 0.0000000e+00 1.5750000e+01 
0.0000000e+00 0.0000000e+00 1.6000000e+01 
0.0000000e+00 0.0000000e+00 1.6250000e+01 
0.0000000e+00 0.0000000e+00 1.6500000e+01 
0.0000000e+00 0.0000000e+00 1.6750000e+01 
0.0000000e+00 0.0000000e+00 1.7000000e+01 
0.0000000e+00 0.0000000e+00 1.7250000e+01 
0.0000000e+00 0.0000000e+00 1.7500000e+01 
0.0000000e+00 0.0000000e+00 1.7750000e+01 
0.0000000e+00 0.0000000e+00 1.8000000e+01 
5.0000000e-01 0.0000000e+00 3.0000000e+00 
5.0000000e-01 0.0000000e+00 6.0000000e+00 
5.0000000e-01 0.0000000e+00 9.0000000e+00 
5.0000000e-01 0.0000000e+00 1.2000000e+01 
5.0000000e-01 0.0000000e+00 1.5000000e+01 
5.0000000e-01 0.0000000e+00 1.8000000e+01 
1.0000000e+00 0.0000000e+00 3.0000000e+00 
1.0000000e+00 0.0000000e+00 6.0000000e+00 
1.0000000e+00 0.0000000e+00 9.0000000e+00 
1.0000000e+00 0.0000000e+00 1.2000000e+01 
1.0000000e+00 0.0000000e+00 1.5000000e+01 
1.0000000e+00 0.0000000e+00 1.8000000e+01 
1.5000000e+00 0.0000000e+00 3.0000000e+00 
1.5000000e+00 0.0000000e+00 6.0000000e+00 
1.5000000e+00 0.0000000e+00 9.0000000e+00 
1.5000000e+00 0.0000000e+00 1.2000000e+01 
1.5000000e+00 0.0000000e+00 1.5000000e+01 
1.5000000e+00 0.0000000e+00 1.8000000e+01 
2.0000000e+00 0.0000000e+00 3.0000000e+00 
2.0000000e+00 0.0000000e+00 6.0000000e+00 
2.0000000e+00 0.0000000e+00 9.0000000e+00 
2.0000000e+00 0.0000000e+00 1.2000000e+01 
2.0000000e+00 0.0000000e+00 1.5000000e+01 
2.0000000e+00 0.0000000e+00 1.8000000e+01 
2.5000000e+00 0.0000000e+00 3.0000000e+00 
2.5000000e+00 0.0000000e+00 6.0000000e+00 
2.5000000e+00 0.0000000e+00 9.0000000e+00 
2.5000000e+00 0.0000000e+00 1.2000000e+01 
2.5000000e+00 0.0000000e+00 1.5000000e+01 
2.5000000e+00 0.0000000e+00 1.8000000e+01 
3.0000000e+00 0.0000000e+00 3.0000000e+00 
3.0000000e+00 0.0000000e+00 6.0000000e+00 
3.0000000e+00 0.0000000e+00 9.0000000e+00 
3.0000000e+00 0.0000000e+00 1.2000000e+01 
3.0000000e+00 0.0000000e+00 1.5000000e+01 
3.0000000e+00 0.0000000e+00 1.8000000e+01 
3.5000000e+00 0.0000000e+00 3.0000000e+00 
3.5000000e+00 0.0000000e+00 6.0000000e+00 
3.5000000e+00 0.0000000e+00 9.0000000e+00 
3.5000000e+00 0.0000000e+00 1.2000000e+01 
3.5000000e+00 0.0000000e+00 1.5000000e+01 
3.5000000e+00 0.0000000e+00 1.8000000e+01 
4.0000000e+00 0.0000000e+00 3.0000000e+00 
4.0000000e+00 0.0000000e+00 6.0000000e+00 
4.0000000e+00 0.0000000e+00 9.0000000e+00 
4.0000000e+00 0.0000000e+00 1.2000000e+01 
4.0000000e+00 0.0000000e+00 1.5000000e+01 
4.0000000e+00 0.0000000e+00 1.8000000e+01 
4.5000000e+00 0.0000000e+00 3.0000000e+00 
4.5000000e+00 0.0000000e+00 6.0000000e+00 
4.5000000e+00 0.0000000e+00 9.0000000e+00 
4.5000000e+00 0.0000000e+00 1.2000000e+01 
4.5000000e+00 0.0000000e+00 1.5000000e+01 
4.5000000e+00 0.0000000e+00 1.8000000e+01 
5.0000000e+00 0.0000000e+00 3.0000000e+00 
5.0000000e+00 0.0000000e+00 6.0000000e+00 
5.0000000e+00 0.0000000e+00 9.0000000e+00 
5.0000000e+00 0.0000000e+00 1.2000000e+01 
5.0000000e+00 0.0000000e+00 1.5000000e+01 
5.0000000e+00 0.0000000e+00 1.8000000e+01 
5.5000000e+00 0.0000000e+00 3.0000000e+00 
5.5000000e+00 0.0000000e+00 6.0000000e+00 
5.5000000e+00 0.0000000e+00 9.0000000e+00 
5.5000000e+00 0.0000000e+00 1.2000000e+01 
5.5000000e+00 0.0000000e+00 1.5000000e+01 
5.5000000e+00 0.0000000e+00 1.8000000e+01 
6.0000000e+00 0.0000000e+00 0.0000000e+00 
6.0000000e+00 0.0000000e+00 2.5000000e-01 
6.0000000e+00 0.0000000e+00 5.0000000e-01 
6.0000000e+00 0.0000000e+00 7.5000000e-01 
6.0000000e+00 0.0000000e+00 1.0000000e+00 
6.0000000e+00 0.0000000e+00 1.2500000e+00 
6.0000000e+00 0.0000000e+00 1.5000000e+00 
6.0000000e+00 0.0000000e+00 1.7500000e+00 
6.0000000e+00 0.0000000e+00 2.0000000e+00 
6.0000000e+00 0.0000000e+00 2.2500000e+00 
6.0000000e+00 0.0000000e+00 2.5000000e+00 
6.0000000e+00 0.0000000e+00 2.7500000e+00 
6.0000000e+00 0.0000000e+00 3.0000000e+00 
6.0000000e+00 0.0000000e+00 3.2500000e+00 
6.0000000e+00 0.0000000e+00 3.5000000e+00 
6.0000000e+00 0.0000000e+00 3.7500000e+00 
6.0000000e+00 0.0000000e+00 4.0000000e+00 
6.0000000e+00 0.0000000e+00 4.2500000e+00 
6.0000000e+00 0.0000000e+00 4.5000000e+00 
6.0000000e+00 0.0000000e+00 4.7500000e+00 
6.0000000e+00 0.0000000e+00 5.0000000e+00 
6.0000000e+00 0.0000000e+00 5.2500000e+00 
6.0000000e+00 0.0000000e+00 5.5000000e+00 
6.0000000e+00 0.0000000e+00 5.7500000e+00 
6.0000000e+00 0.0000000e+00 6.0000000e+00 
6.0000000e+00 0.0000000e+00 6.2500000e+00 
6.0000000e+00 0.0000000e+00 6.5000000e+00 
6.0000000e+00 0.0000000e+00 6.7500000e+00 
6.0000000e+00 0.0000000e+00 7.0000000e+00 
6.0000000e+00 0.0000000e+00 7.2500000e+00 
6.0000000e+00 0.0000000e+00 7.5000000e+00 
6.0000000e+00 0.0000000e+00 7.7500000e+00 
6.0000000e+00 0.0000000e+00 8.0000000e+00 
6.0000000e+00 0.0000000e+00 8.2500000e+00 
6.0000000e+00 0.0000000e+00 8.5000000e+00 
6.0000000e+00 0.0000000e+00 8.7500000e+00 
6.0000000e+00 0.0000000e+00 9.0000000e+00 
6.0000000e+00 0.0000000e+00 9.2500000e+00 
6.0000000e+00 0.0000000e+00 9.5000000e+00 
6.0000000e+00 0.0000000e+00 9.7500000e+00 
6.0000000e+00 0.0000000e+00 1.0000000e+01 
6.0000000e+00 0.0000000e+00 1.0250000e+01 
6.0000000e+00 0.0000000e+00 1.0500000e+01 
6.0000000e+00 0.0000000e+00 1.0750000e+01 
6.0000000e+00 0.0000000e+00 1.1000000e+01 
6.0000000e+00 0.0000000e+00 1.1250000e+01 
6.0000000e+00 0.0000000e+00 1.1500000e+01 
6.0000000e+00 0.0000000e+00 1.1750000e+01 
6.0000000e+00 0.0000000e+00 1.2000000e+01 
6.0000000e+00 0.0000000e+00 1.2250000e+01 
6.0000000e+00 0.0000000e+00 1.2500000e+01 
6.0000000e+00 0.0000000e+00 1.2750000e+01 
6.0000000e+00 0.0000000e+00 1.3000000e+01 
6.0000000e+00 0.0000000e+00 1.3250000e+01 
6.0000000e+00 0.0000000e+00 1.3500000e+01 
6.0000000e+00 0.0000000e+00 1.3750000e+01 
6.0000000e+00 0.0000000e+00 1.4000000e+01 
6.0000000e+00 0.0000000e+00 1.4250000e+01 
6.0000000e+00 0.0000000e+00 1.4500000e+01 
6.0000000e+00 0.0000000e+00 1.4750000e+01 
6.0000000e+00 0.0000000e+00 1.5000000e+01 
6.0000000e+00 0.0000000e+00 1.5250000e+01 
6.0000000e+00 0.0000000e+00 1.5500000e+01 
6.0000000e+00 0.0000000e+00 1.5750000e+01 
6.0000000e+00 0.0000000e+00 1.6000000e+01 
6.0000000e+00 0.0000000e+00 1.6250000e+01 
6.0000000e+00 0.0000000e+00 1.6500000e+01 
6.0000000e+00 0.0000000e+00 1.6750000e+01 
6.0000000e+00 0.0000000e+00 1.7000000e+01 
6.0000000e+00 0.0000000e+00 1.7250000e+01 
6.0000000e+00 0.0000000e+00 1.7500000e+01 
6.0000000e+00 0.0000000e+00 1.7750000e+01 
6.0000000e+00 0.0000000e+00 1.8000000e+01 

CELLS 216 648
2 0 1
2 1 2
2 2 3
2 3 4
2 4 5
2 5 6
2 6 7
2 7 8
2 8 9
2 9 10
2 10 11
2 11 12
2 12 13
2 13 14
2 14 15
2 15 16
2 16 17
2 17 18
2 18 19
2 19 20
2 20 21
2 21 22
2 22 23
2 23 24
2 24 25
2 25 26
2 26 27
2 27 28
2 28 29
2 29 30
2 30 31
2 31 32
2 32 33
2 33 34
2 34 35
2 35 36
2 36 37
2 37 38
2 38 39
2 39 40
2 40 41
2 41 42
2 42 43
2 43 44
2 44 45
2 45 46
2 46 47
2 47 48
2 48 49
2 49 50
2 50 51
2 51 52
2 52 53
2 53 54
2 54 55
2 55 56
2 56 57
2 57 58
2 58 59
2 59 60
2 60 61
2 61 62
2 62 63
2 63 64
2 64 65
2 65 66
2 66 67
2 67 68
2 68 69
2 69 70
2 70 71
2 71 72
2 139 140
2 140 141
2 141 142
2 142 143
2 143 144
2 144 145
2 145 146
2 146 147
2 147 148
2 148 149
2 149 150
2 150 151
2 151 152
2 152 153
2 153 154
2 154 155
2 155 156
2 156 157
2 157 158
2 158 159
2 159 160
2 160 161
2 161 162
2 162 163
2 163 164
2 164 165
2 165 166
2 166 167
2 167 168
2 168 169
2 169 170
2 170 171
2 171 172
2 172 173
2 173 174
2 174 175
2 175 176
2 176 177
2 177 178
2 178 179
2 179 180
2 180 181
2 181 182
2 182 183
2 183 184
2 184 185
2 185 186
2 186 187
2 187 188
2 188 189
2 189 190
2 190 191
2 191 192
2 192 193
2 193 194
2 194 195
2 195 196
2 196 197
2 197 198
2 198 199
2 199 200
2 200 201
2 201 202
2 202 203
2 203 204
2 204 205
2 205 206
2 206 207
2 207 208
2 208 209
2 209 210
2 210 211
2 12 73
2 73 79
2 79 85
2 85 91
2 91 97
2 97 103
2 103 109
2 109 115
2 115 121
2 121 127
2 127 133
2 133 151
2 24 74
2 74 80
2 80 86
2 86 92
2 92 98
2 98 104
2 104 110
2 110 116
2 116 122
2 122 128
2 128 134
2 134 163
2 36 75
2 75 81
2 81 87
2 87 93
2 93 99
2 99 105
2 105 111
2 111 117
2 117 123
2 123 129
2 129 135
2 135 175
2 48 76
2 76 82
2 82 88
2 88 94
2 94 100
2 100 106
2 106 112
2 112 118
2 118 124
2 124 130
2 130 136
2 136 187
2 60 77
2 77 83
2 83 89
2 89 95
2 95 101
2 101 107
2 107 113
2 113 119
2 119 125
2 125 131
2 131 137
2 137 199
2 72 78
2 78 84
2 84 90
2 90 96
2 96 102
2 102 108
2 108 114
2 114 120
2 120 126
2 126 132
2 132 138
2 138 211

CELL_TYPES 216
3
3
3
3
3
3
3
3
3
3
3
3
3
3
3
3
3
3
3
3
3
3
3
3
3
3
3
3
3
3
3
3
3
3
3
3
3
3
3
3
3
3
3
3
3
3
3
3
3
3
3
3
3
3
3
3
3
3
3
3
3
3
3
3
3
3
3
3
3
3
3
3
3
3
3
3
3
3
3
3
3
3
3
3
3
3
3
3
3
3
3
3
3
3
3
3
3
3
3
3
3
3
3
3
3
3
3
3
3
3
3
3
3
3
3
3
3
3
3
3
3
3
3
3
3
3
3
3
3
3
3
3
3
3
3
3
3
3
3
3
3
3
3
3
3
3
3
3
3
3
3
3
3
3
3
3
3
3
3
3
3
3
3
3
3
3
3
3
3
3
3
3
3
3
3
3
3
3
3
3
3
3
3
3
3
3
3
3
3
3
3
3
3
3
3
3
3
3
3
3
3
3
3
3
3
3
3
3
3
3
3
3
3
3
3
3
POINT_DATA 212
FIELD FieldData 3
ADJOINT_DISPLACEMENT 3 212  float
0.0000000e+00 0.0000000e+00 0.0000000e+00 
-8.2417522e-03 0.0000000e+00 -6.2782553e-16 
-1.6829355e-02 0.0000000e+00 -1.2556511e-15 
-2.6108656e-02 0.0000000e+00 -1.8834764e-15 
-3.6425505e-02 0.0000000e+00 -2.5113021e-15 
-4.8125755e-02 0.0000000e+00 -3.1391276e-15 
-6.1555251e-02 0.0000000e+00 -3.7669529e-15 
-7.7059850e-02 0.0000000e+00 -4.3947784e-15 
-9.4985396e-02 0.0000000e+00 -5.0226043e-15 
-1.1567773e-01 0.0000000e+00 -5.6504297e-15 
-1.3948272e-01 0.0000000e+00 -6.2782552e-15 
-1.6674620e-01 0.0000000e+00 -6.9060807e-15 
-1.9781403e-01 0.0000000e+00 -7.5339058e-15 
-2.2800246e-01 0.0000000e+00 -3.6599869e-07 
-2.5274998e-01 0.0000000e+00 -7.3199737e-07 
-2.7258584e-01 0.0000000e+00 -1.0979960e-06 
-2.8803933e-01 0.0000000e+00 -1.4639947e-06 
-2.9963967e-01 0.0000000e+00 -1.8299934e-06 
-3.0791616e-01 0.0000000e+00 -2.1959920e-06 
-3.1339800e-01 0.0000000e+00 -2.5619909e-06 
-3.1661451e-01 0.0000000e+00 -2.9279895e-06 
-3.1809488e-01 0.0000000e+00 -3.2939881e-06 
-3.1836841e-01 0.0000000e+00 -3.6599868e-06 
-3.1796435e-01 0.0000000e+00 -4.0259856e-06 
-3.1741193e-01 0.0000000e+00 -4.3919840e-06 
-3.1739950e-01 0.0000000e+00 -4.4683711e-06 
-3.1817997e-01 0.0000000e+00 -4.5447578e-06 
-3.1962937e-01 0.0000000e+00 -4.6211444e-06 
-3.2162383e-01 0.0000000e+00 -4.6975310e-06 
-3.2403940e-01 0.0000000e+00 -4.7739177e-06 
-3.2675216e-01 0.0000000e+00 -4.8503043e-06 
-3.2963815e-01 0.0000000e+00 -4.9266910e-06 
-3.3257353e-01 0.0000000e+00 -5.0030781e-06 
-3.3543429e-01 0.0000000e+00 -5.0794647e-06 
-3.3809659e-01 0.0000000e+00 -5.1558513e-06 
-3.4043643e-01 0.0000000e+00 -5.2322380e-06 
-3.4232992e-01 0.0000000e+00 -5.3086246e-06 
-3.4380633e-01 0.0000000e+00 -5.3245658e-06 
-3.4499684e-01 0.0000000e+00 -5.3405074e-06 
-3.4593043e-01 0.0000000e+00 -5.3564486e-06 
-3.4663606e-01 0.0000000e+00 -5.3723898e-06 
-3.4714276e-01 0.0000000e+00 -5.3883309e-06 
-3.4747943e-01 0.0000000e+00 -5.4042725e-06 
-3.4767511e-01 0.0000000e+00 -5.4202137e-06 
-3.4775877e-01 0.0000000e+00 -5.4361549e-06 
-3.4775937e-01 0.0000000e+00 -5.4520960e-06 
-3.4770590e-01 0.0000000e+00 -5.4680377e-06 
-3.4762731e-01 0.0000000e+00 -5.4839788e-06 
-3.4755263e-01 0.0000000e+00 -5.4999200e-06 
-3.4751469e-01 0.0000000e+00 -5.5032410e-06 
-3.4752259e-01 0.0000000e+00 -5.5065620e-06 
-3.4756958e-01 0.0000000e+00 -5.5098831e-06 
-3.4764901e-01 0.0000000e+00 -5.5132041e-06 
-3.4775409e-01 0.0000000e+00 -5.5165251e-06 
-3.4787819e-01 0.0000000e+00 -5.5198461e-06 
-3.4801450e-01 0.0000000e+00 -5.5231671e-06 
-3.4815639e-01 0.0000000e+00 -5.5264882e-06 
-3.4829709e-01 0.0000000e+00 -5.5298092e-06 
-3.4842989e-01 0.0000000e+00 -5.5331307e-06 
-3.4854808e-01 0.0000000e+00 -5.5364517e-06 
-3.4864497e-01 0.0000000e+00 -5.5397727e-06 
-3.4872127e-01 0.0000000e+00 -5.5404366e-06 
-3.4878305e-01 0.0000000e+00 -5.5411010e-06 
-3.4883159e-01 0.0000000e+00 -5.5417649e-06 
-3.4886822e-01 0.0000000e+00 -5.5424293e-06 
-3.4889421e-01 0.0000000e+00 -5.5430937e-06 
-3.4891090e-01 0.0000000e+00 -5.5437577e-06 
-3.4891954e-01 0.0000000e+00 -5.5444220e-06 
-3.4892145e-01 0.0000000e+00 -5.5450860e-06 
-3.4891790e-01 0.0000000e+00 -5.5457504e-06 
-3.4891024e-01 0.0000000e+00 -5.5464143e-06 
-3.4889975e-01 0.0000000e+00 -5.5470787e-06 
-3.4888771e-01 0.0000000e+00 -5.5477431e-06 
-1.9781552e-01 0.0000000e+00 8.6290501e-02 
-3.1740662e-01 0.0000000e+00 -1.8809371e-03 
-3.4233114e-01 0.0000000e+00 2.7618736e-03 
-3.4755233e-01 0.0000000e+00 -1.6691134e-04 
-3.4864503e-01 0.0000000e+00 1.3885908e-04 
-3.4888768e-01 0.0000000e+00 -3.0586547e-05 
-1.9781700e-01 0.0000000e+00 2.1233772e-01 
-3.1740135e-01 0.0000000e+00 -5.3276094e-03 
-3.4233239e-01 0.0000000e+00 4.6271505e-03 
-3.4755203e-01 0.0000000e+00 -3.8210265e-04 
-3.4864512e-01 0.0000000e+00 2.3963620e-04 
-3.4888768e-01 0.0000000e+00 -5.5288448e-05 
-1.9781849e-01 0.0000000e+00 3.7741700e-01 
-3.1739607e-01 0.0000000e+00 -9.7709736e-03 
-3.4233361e-01 0.0000000e+00 5.7102046e-03 
-3.4755176e-01 0.0000000e+00 -6.2608562e-04 
-3.4864518e-01 0.0000000e+00 3.0205215e-04 
-3.4888765e-01 0.0000000e+00 -7.8338337e-05 
-1.9781996e-01 0.0000000e+00 5.8080363e-01 
-3.1739080e-01 0.0000000e+00 -1.4637594e-02 
-3.4233487e-01 0.0000000e+00 6.1307191e-03 
-3.4755147e-01 0.0000000e+00 -8.7387196e-04 
-3.4864524e-01 0.0000000e+00 3.3136757e-04 
-3.4888765e-01 0.0000000e+00 -9.8421093e-05 
-1.9782145e-01 0.0000000e+00 8.2177293e-01 
-3.1738552e-01 0.0000000e+00 -1.9354036e-02 
-3.4233609e-01 0.0000000e+00 6.0083759e-03 
-3.4755117e-01 0.0000000e+00 -1.1004736e-03 
-3.4864530e-01 0.0000000e+00 3.3284299e-04 
-3.4888765e-01 0.0000000e+00 -1.1422159e-04 
-1.9782293e-01 0.0000000e+00 5.9960026e-01 
-3.1738025e-01 0.0000000e+00 -2.3346867e-02 
-3.4233734e-01 0.0000000e+00 5.4628579e-03 
-3.4755090e-01 0.0000000e+00 -1.2809022e-03 
-3.4864536e-01 0.0000000e+00 3.1173899e-04 
-3.4888762e-01 0.0000000e+00 -1.2442473e-04 
-1.9782440e-01 0.0000000e+00 4.1356090e-01 
-3.1737497e-01 0.0000000e+00 -2.6042648e-02 
-3.4233856e-01 0.0000000e+00 4.6138479e-03 
-3.4755060e-01 0.0000000e+00 -1.3901695e-03 
-3.4864542e-01 0.0000000e+00 2.7331614e-04 
-3.4888762e-01 0.0000000e+00 -1.2771538e-04 
-1.9782589e-01 0.0000000e+00 2.6293015e-01 
-3.1736970e-01 0.0000000e+00 -2.6867947e-02 
-3.4233981e-01 0.0000000e+00 3.5810287e-03 
-3.4755030e-01 0.0000000e+00 -1.4032874e-03 
-3.4864551e-01 0.0000000e+00 2.2283506e-04 
-3.4888762e-01 0.0000000e+00 -1.2277842e-04 
-1.9782737e-01 0.0000000e+00 1.4698340e-01 
-3.1736442e-01 0.0000000e+00 -2.5249327e-02 
-3.4234104e-01 0.0000000e+00 2.4840822e-03 
-3.4755003e-01 0.0000000e+00 -1.2952676e-03 
-3.4864557e-01 0.0000000e+00 1.6555630e-04 
-3.4888759e-01 0.0000000e+00 -1.0829876e-04 
-1.9782886e-01 0.0000000e+00 6.4995900e-02 
-3.1735915e-01 0.0000000e+00 -2.0613354e-02 
-3.4234229e-01 0.0000000e+00 1.4426918e-03 
-3.4754974e-01 0.0000000e+00 -1.0411220e-03 
-3.4864563e-01 0.0000000e+00 1.0674044e-04 
-3.4888759e-01 0.0000000e+00 -8.2961247e-05 
-1.9783033e-01 0.0000000e+00 1.6242994e-02 
-3.1735384e-01 0.0000000e+00 -1.2386592e-02 
-3.4234351e-01 0.0000000e+00 5.7653966e-04 
-3.4754944e-01 0.0000000e+00 -6.1586220e-04 
-3.4864569e-01 0.0000000e+00 5.1648076e-05 
-3.4888759e-01 0.0000000e+00 -4.5450790e-05 
0.0000000e+00 0.0000000e+00 0.0000000e+00 
-2.4728736e-02 0.0000000e+00 6.1402435e-16 
-4.9111623e-02 0.0000000e+00 1.2280499e-15 
-7.2802804e-02 0.0000000e+00 1.8420544e-15 
-9.5456444e-02 0.0000000e+00 2.4560781e-15 
-1.1672668e-01 0.0000000e+00 3.0700970e-15 
-1.3626768e-01 0.0000000e+00 3.6840931e-15 
-1.5373357e-01 0.0000000e+00 4.2981048e-15 
-1.6877851e-01 0.0000000e+00 4.9121058e-15 
-1.8105666e-01 0.0000000e+00 5.5261014e-15 
-1.9022216e-01 0.0000000e+00 6.1401177e-15 
-1.9592917e-01 0.0000000e+00 6.7541387e-15 
-1.9783182e-01 0.0000000e+00 7.3681541e-15 
-1.9952686e-01 0.0000000e+00 3.6599869e-07 
-2.0448877e-01 0.0000000e+00 7.3199737e-07 
-2.1218827e-01 0.0000000e+00 1.0979960e-06 
-2.2209612e-01 0.0000000e+00 1.4639947e-06 
-2.3368305e-01 0.0000000e+00 1.8299934e-06 
-2.4641982e-01 0.0000000e+00 2.1959920e-06 
-2.5977716e-01 0.0000000e+00 2.5619909e-06 
-2.7322581e-01 0.0000000e+00 2.9279895e-06 
-2.8623655e-01 0.0000000e+00 3.2939881e-06 
-2.9828009e-01 0.0000000e+00 3.6599868e-06 
-3.0882719e-01 0.0000000e+00 4.0259856e-06 
-3.1734857e-01 0.0000000e+00 4.3919840e-06 
-3.2401609e-01 0.0000000e+00 4.4683711e-06 
-3.2943696e-01 0.0000000e+00 4.5447578e-06 
-3.3373514e-01 0.0000000e+00 4.6211444e-06 
-3.3703455e-01 0.0000000e+00 4.6975310e-06 
-3.3945912e-01 0.0000000e+00 4.7739177e-06 
-3.4113276e-01 0.0000000e+00 4.8503043e-06 
-3.4217939e-01 0.0000000e+00 4.9266910e-06 
-3.4272292e-01 0.0000000e+00 5.0030781e-06 
-3.4288731e-01 0.0000000e+00 5.0794647e-06 
-3.4279647e-01 0.0000000e+00 5.1558513e-06 
-3.4257430e-01 0.0000000e+00 5.2322380e-06 
-3.4234476e-01 0.0000000e+00 5.3086246e-06 
-3.4225807e-01 0.0000000e+00 5.3245658e-06 
-3.4236261e-01 0.0000000e+00 5.3405074e-06 
-3.4262937e-01 0.0000000e+00 5.3564486e-06 
-3.4302938e-01 0.0000000e+00 5.3723898e-06 
-3.4353366e-01 0.0000000e+00 5.3883309e-06 
-3.4411323e-01 0.0000000e+00 5.4042725e-06 
-3.4473914e-01 0.0000000e+00 5.4202137e-06 
-3.4538236e-01 0.0000000e+00 5.4361549e-06 
-3.4601396e-01 0.0000000e+00 5.4520960e-06 
-3.4660494e-01 0.0000000e+00 5.4680377e-06 
-3.4712633e-01 0.0000000e+00 5.4839788e-06 
-3.4754917e-01 0.0000000e+00 5.4999200e-06 
-3.4787801e-01 0.0000000e+00 5.5032410e-06 
-3.4814131e-01 0.0000000e+00 5.5065620e-06 
-3.4834576e-01 0.0000000e+00 5.5098831e-06 
-3.4849805e-01 0.0000000e+00 5.5132041e-06 
-3.4860495e-01 0.0000000e+00 5.5165251e-06 
-3.4867316e-01 0.0000000e+00 5.5198461e-06 
-3.4870937e-01 0.0000000e+00 5.5231671e-06 
-3.4872031e-01 0.0000000e+00 5.5264882e-06 
-3.4871271e-01 0.0000000e+00 5.5298092e-06 
-3.4869328e-01 0.0000000e+00 5.5331307e-06 
-3.4866872e-01 0.0000000e+00 5.5364517e-06 
-3.4864575e-01 0.0000000e+00 5.5397727e-06 
-3.4863153e-01 0.0000000e+00 5.5404366e-06 
-3.4862790e-01 0.0000000e+00 5.5411010e-06 
-3.4863353e-01 0.0000000e+00 5.5417649e-06 
-3.4864715e-01 0.0000000e+00 5.5424293e-06 
-3.4866744e-01 0.0000000e+00 5.5430937e-06 
-3.4869313e-01 0.0000000e+00 5.5437577e-06 
-3.4872290e-01 0.0000000e+00 5.5444220e-06 
-3.4875545e-01 0.0000000e+00 5.5450860e-06 
-3.4878948e-01 0.0000000e+00 5.5457504e-06 
-3.4882373e-01 0.0000000e+00 5.5464143e-06 
-3.4885684e-01 0.0000000e+00 5.5470787e-06 
-3.4888756e-01 0.0000000e+00 5.5477431e-06 
ADJOINT_ROTATION 3 212  float
0.0000000e+00 -3.2736443e-02 0.0000000e+00 
0.0000000e+00 -3.3428144e-02 0.0000000e+00 
0.0000000e+00 -3.5503242e-02 0.0000000e+00 
0.0000000e+00 -3.8961738e-02 0.0000000e+00 
0.0000000e+00 -4.3803632e-02 0.0000000e+00 
0.0000000e+00 -5.0028928e-02 0.0000000e+00 
0.0000000e+00 -5.7637621e-02 0.0000000e+00 
0.0000000e+00 -6.6629708e-02 0.0000000e+00 
0.0000000e+00 -7.7005200e-02 0.0000000e+00 
0.0000000e+00 -8.8764094e-02 0.0000000e+00 
0.0000000e+00 -1.0190638e-01 0.0000000e+00 
0.0000000e+00 -1.1643206e-01 0.0000000e+00 
0.0000000e+00 -1.3234115e-01 0.0000000e+00 
0.0000000e+00 -1.0951903e-01 0.0000000e+00 
0.0000000e+00 -8.8813946e-02 0.0000000e+00 
0.0000000e+00 -7.0225880e-02 0.0000000e+00 
0.0000000e+00 -5.3754840e-02 0.0000000e+00 
0.0000000e+00 -3.9400820e-02 0.0000000e+00 
0.0000000e+00 -2.7163822e-02 0.0000000e+00 
0.0000000e+00 -1.7043848e-02 0.0000000e+00 
0.0000000e+00 -9.0408977e-03 0.0000000e+00 
0.0000000e+00 -3.1549702e-03 0.0000000e+00 
0.0000000e+00 6.1393413e-04 0.0000000e+00 
0.0000000e+00 2.2658154e-03 0.0000000e+00 
0.0000000e+00 1.8006735e-03 0.0000000e+00 
0.0000000e+00 -1.6186956e-03 0.0000000e+00 
0.0000000e+00 -4.5423722e-03 0.0000000e+00 
0.0000000e+00 -6.9703567e-03 0.0000000e+00 
0.0000000e+00 -8.9026485e-03 0.0000000e+00 
0.0000000e+00 -1.0339248e-02 0.0000000e+00 
0.0000000e+00 -1.1280156e-02 0.0000000e+00 
0.0000000e+00 -1.1725370e-02 0.0000000e+00 
0.0000000e+00 -1.1674892e-02 0.0000000e+00 
0.0000000e+00 -1.1128723e-02 0.0000000e+00 
0.0000000e+00 -1.0086860e-02 0.0000000e+00 
0.0000000e+00 -8.5493056e-03 0.0000000e+00 
0.0000000e+00 -6.5160580e-03 0.0000000e+00 
0.0000000e+00 -5.3145085e-03 0.0000000e+00 
0.0000000e+00 -4.2288699e-03 0.0000000e+00 
0.0000000e+00 -3.2591431e-03 0.0000000e+00 
0.0000000e+00 -2.4053275e-03 0.0000000e+00 
0.0000000e+00 -1.6674235e-03 0.0000000e+00 
0.0000000e+00 -1.0454310e-03 0.0000000e+00 
0.0000000e+00 -5.3934986e-04 0.0000000e+00 
0.0000000e+00 -1.4918017e-04 0.0000000e+00 
0.0000000e+00 1.2507808e-04 0.0000000e+00 
0.0000000e+00 2.8342489e-04 0.0000000e+00 
0.0000000e+00 3.2586022e-04 0.0000000e+00 
0.0000000e+00 2.5238414e-04 0.0000000e+00 
0.0000000e+00 5.5615419e-05 0.0000000e+00 
0.0000000e+00 -1.1429098e-04 0.0000000e+00 
0.0000000e+00 -2.5733505e-04 0.0000000e+00 
0.0000000e+00 -3.7351676e-04 0.0000000e+00 
0.0000000e+00 -4.6283615e-04 0.0000000e+00 
0.0000000e+00 -5.2529323e-04 0.0000000e+00 
0.0000000e+00 -5.6088791e-04 0.0000000e+00 
0.0000000e+00 -5.6962029e-04 0.0000000e+00 
0.0000000e+00 -5.5149035e-04 0.0000000e+00 
0.0000000e+00 -5.0649804e-04 0.0000000e+00 
0.0000000e+00 -4.3464344e-04 0.0000000e+00 
0.0000000e+00 -3.3592648e-04 0.0000000e+00 
0.0000000e+00 -2.7525597e-04 0.0000000e+00 
0.0000000e+00 -2.1977611e-04 0.0000000e+00 
0.0000000e+00 -1.6948687e-04 0.0000000e+00 
0.0000000e+00 -1.2438826e-04 0.0000000e+00 
0.0000000e+00 -8.4480285e-05 0.0000000e+00 
0.0000000e+00 -4.9762952e-05 0.0000000e+00 
0.0000000e+00 -2.0236250e-05 0.0000000e+00 
0.0000000e+00 4.0998202e-06 0.0000000e+00 
0.0000000e+00 2.3245257e-05 0.0000000e+00 
0.0000000e+00 3.7200058e-05 0.0000000e+00 
0.0000000e+00 4.5964225e-05 0.0000000e+00 
0.0000000e+00 4.9537761e-05 0.0000000e+00 
0.0000000e+00 -2.1257928e-01 0.0000000e+00 
0.0000000e+00 5.5143624e-03 0.0000000e+00 
0.0000000e+00 -4.5925649e-03 0.0000000e+00 
0.0000000e+00 3.8493212e-04 0.0000000e+00 
0.0000000e+00 -2.4342244e-04 0.0000000e+00 
0.0000000e+00 5.0179078e-05 0.0000000e+00 
0.0000000e+00 -2.9136807e-01 0.0000000e+00 
0.0000000e+00 8.0811810e-03 0.0000000e+00 
0.0000000e+00 -2.9084370e-03 0.0000000e+00 
0.0000000e+00 4.6750365e-04 0.0000000e+00 
0.0000000e+00 -1.6143956e-04 0.0000000e+00 
0.0000000e+00 4.8190162e-05 0.0000000e+00 
0.0000000e+00 -3.6870748e-01 0.0000000e+00 
0.0000000e+00 9.5011303e-03 0.0000000e+00 
0.0000000e+00 -1.4636744e-03 0.0000000e+00 
0.0000000e+00 5.0009874e-04 0.0000000e+00 
0.0000000e+00 -8.9977846e-05 0.0000000e+00 
0.0000000e+00 4.3571014e-05 0.0000000e+00 
0.0000000e+00 -4.4459751e-01 0.0000000e+00 
0.0000000e+00 9.7742090e-03 0.0000000e+00 
0.0000000e+00 -2.5827694e-04 0.0000000e+00 
0.0000000e+00 4.8271738e-04 0.0000000e+00 
0.0000000e+00 -2.9037285e-05 0.0000000e+00 
0.0000000e+00 3.6321628e-05 0.0000000e+00 
0.0000000e+00 -5.1903820e-01 0.0000000e+00 
0.0000000e+00 8.9004170e-03 0.0000000e+00 
0.0000000e+00 7.0775516e-04 0.0000000e+00 
0.0000000e+00 4.1535959e-04 0.0000000e+00 
0.0000000e+00 2.1382117e-05 0.0000000e+00 
0.0000000e+00 2.6442010e-05 0.0000000e+00 
0.0000000e+00 4.0797049e-01 0.0000000e+00 
0.0000000e+00 6.8797562e-03 0.0000000e+00 
0.0000000e+00 1.4344220e-03 0.0000000e+00 
0.0000000e+00 2.9802535e-04 0.0000000e+00 
0.0000000e+00 6.1280356e-05 0.0000000e+00 
0.0000000e+00 1.3932158e-05 0.0000000e+00 
0.0000000e+00 3.3642852e-01 0.0000000e+00 
0.0000000e+00 3.7122248e-03 0.0000000e+00 
0.0000000e+00 1.9217236e-03 0.0000000e+00 
0.0000000e+00 1.3071466e-04 0.0000000e+00 
0.0000000e+00 9.0657442e-05 0.0000000e+00 
0.0000000e+00 -1.2079291e-06 0.0000000e+00 
0.0000000e+00 2.6633593e-01 0.0000000e+00 
0.0000000e+00 -6.0217653e-04 0.0000000e+00 
0.0000000e+00 2.1696601e-03 0.0000000e+00 
0.0000000e+00 -8.6572458e-05 0.0000000e+00 
0.0000000e+00 1.0951337e-04 0.0000000e+00 
0.0000000e+00 -1.8978251e-05 0.0000000e+00 
0.0000000e+00 1.9769271e-01 0.0000000e+00 
0.0000000e+00 -6.0634478e-03 0.0000000e+00 
0.0000000e+00 2.1782310e-03 0.0000000e+00 
0.0000000e+00 -3.5383602e-04 0.0000000e+00 
0.0000000e+00 1.1784814e-04 0.0000000e+00 
0.0000000e+00 -3.9378807e-05 0.0000000e+00 
0.0000000e+00 1.3049884e-01 0.0000000e+00 
0.0000000e+00 -1.2671589e-02 0.0000000e+00 
0.0000000e+00 1.9474368e-03 0.0000000e+00 
0.0000000e+00 -6.7107606e-04 0.0000000e+00 
0.0000000e+00 1.1566175e-04 0.0000000e+00 
0.0000000e+00 -6.2409599e-05 0.0000000e+00 
0.0000000e+00 6.4754337e-02 0.0000000e+00 
0.0000000e+00 -2.0426601e-02 0.0000000e+00 
0.0000000e+00 1.4772774e-03 0.0000000e+00 
0.0000000e+00 -1.0382925e-03 0.0000000e+00 
0.0000000e+00 1.0295420e-04 0.0000000e+00 
0.0000000e+00 -8.8070621e-05 0.0000000e+00 
0.0000000e+00 -9.9145509e-02 0.0000000e+00 
0.0000000e+00 -9.8453812e-02 0.0000000e+00 
0.0000000e+00 -9.6378714e-02 0.0000000e+00 
0.0000000e+00 -9.2920214e-02 0.0000000e+00 
0.0000000e+00 -8.8078320e-02 0.0000000e+00 
0.0000000e+00 -8.1853025e-02 0.0000000e+00 
0.0000000e+00 -7.4244335e-02 0.0000000e+00 
0.0000000e+00 -6.5252244e-02 0.0000000e+00 
0.0000000e+00 -5.4876752e-02 0.0000000e+00 
0.0000000e+00 -4.3117862e-02 0.0000000e+00 
0.0000000e+00 -2.9975574e-02 0.0000000e+00 
0.0000000e+00 -1.5449888e-02 0.0000000e+00 
0.0000000e+00 4.5919718e-04 0.0000000e+00 
0.0000000e+00 -1.3666737e-02 0.0000000e+00 
0.0000000e+00 -2.5675647e-02 0.0000000e+00 
0.0000000e+00 -3.5567533e-02 0.0000000e+00 
0.0000000e+00 -4.3342400e-02 0.0000000e+00 
0.0000000e+00 -4.9000241e-02 0.0000000e+00 
0.0000000e+00 -5.2541059e-02 0.0000000e+00 
0.0000000e+00 -5.3964853e-02 0.0000000e+00 
0.0000000e+00 -5.3271625e-02 0.0000000e+00 
0.0000000e+00 -5.0461374e-02 0.0000000e+00 
0.0000000e+00 -4.5534100e-02 0.0000000e+00 
0.0000000e+00 -3.8489804e-02 0.0000000e+00 
0.0000000e+00 -2.9328482e-02 0.0000000e+00 
0.0000000e+00 -2.4094155e-02 0.0000000e+00 
0.0000000e+00 -1.9355519e-02 0.0000000e+00 
0.0000000e+00 -1.5112576e-02 0.0000000e+00 
0.0000000e+00 -1.1365325e-02 0.0000000e+00 
0.0000000e+00 -8.1137670e-03 0.0000000e+00 
0.0000000e+00 -5.3579016e-03 0.0000000e+00 
0.0000000e+00 -3.0977281e-03 0.0000000e+00 
0.0000000e+00 -1.3332473e-03 0.0000000e+00 
0.0000000e+00 -6.4458691e-05 0.0000000e+00 
0.0000000e+00 7.0863747e-04 0.0000000e+00 
0.0000000e+00 9.8604127e-04 0.0000000e+00 
0.0000000e+00 7.6775264e-04 0.0000000e+00 
0.0000000e+00 -5.5030130e-05 0.0000000e+00 
0.0000000e+00 -7.6190144e-04 0.0000000e+00 
0.0000000e+00 -1.3528613e-03 0.0000000e+00 
0.0000000e+00 -1.8279097e-03 0.0000000e+00 
0.0000000e+00 -2.1870467e-03 0.0000000e+00 
0.0000000e+00 -2.4302723e-03 0.0000000e+00 
0.0000000e+00 -2.5575864e-03 0.0000000e+00 
0.0000000e+00 -2.5689891e-03 0.0000000e+00 
0.0000000e+00 -2.4644805e-03 0.0000000e+00 
0.0000000e+00 -2.2440602e-03 0.0000000e+00 
0.0000000e+00 -1.9077285e-03 0.0000000e+00 
0.0000000e+00 -1.4554854e-03 0.0000000e+00 
0.0000000e+00 -1.1798083e-03 0.0000000e+00 
0.0000000e+00 -9.3099358e-04 0.0000000e+00 
0.0000000e+00 -7.0904114e-04 0.0000000e+00 
0.0000000e+00 -5.1395106e-04 0.0000000e+00 
0.0000000e+00 -3.4572333e-04 0.0000000e+00 
0.0000000e+00 -2.0435792e-04 0.0000000e+00 
0.0000000e+00 -8.9854839e-05 0.0000000e+00 
0.0000000e+00 -2.2140994e-06 0.0000000e+00 
0.0000000e+00 5.8564303e-05 0.0000000e+00 
0.0000000e+00 9.2480368e-05 0.0000000e+00 
0.0000000e+00 9.9534096e-05 0.0000000e+00 
0.0000000e+00 7.9725491e-05 0.0000000e+00 
0.0000000e+00 3.4836394e-05 0.0000000e+00 
0.0000000e+00 -4.8620727e-06 0.0000000e+00 