# vtk DataFile Version 4.0
vtk output
ASCII
DATASET UNSTRUCTURED_GRID
POINTS 31 float
0.0000000e+00 0.0000000e+00 0.0000000e+00 
0.0000000e+00 2.0000000e+00 0.0000000e+00 
2.0000000e+00 2.0000000e+00 0.0000000e+00 
2.0000000e+00 0.0000000e+00 0.0000000e+00 
0.0000000e+00 2.0000000e-01 0.0000000e+00 
0.0000000e+00 4.0000001e-01 0.0000000e+00 
0.0000000e+00 6.0000002e-01 0.0000000e+00 
0.0000000e+00 8.0000001e-01 0.0000000e+00 
0.0000000e+00 1.0000000e+00 0.0000000e+00 
0.0000000e+00 1.2000000e+00 0.0000000e+00 
0.0000000e+00 1.4000000e+00 0.0000000e+00 
0.0000000e+00 1.6000000e+00 0.0000000e+00 
0.0000000e+00 1.8000000e+00 0.0000000e+00 
2.0000000e-01 2.0000000e+00 0.0000000e+00 
4.0000001e-01 2.0000000e+00 0.0000000e+00 
6.0000002e-01 2.0000000e+00 0.0000000e+00 
8.0000001e-01 2.0000000e+00 0.0000000e+00 
1.0000000e+00 2.0000000e+00 0.0000000e+00 
1.2000000e+00 2.0000000e+00 0.0000000e+00 
1.4000000e+00 2.0000000e+00 0.0000000e+00 
1.6000000e+00 2.0000000e+00 0.0000000e+00 
1.8000000e+00 2.0000000e+00 0.0000000e+00 
2.0000000e+00 1.8000000e+00 0.0000000e+00 
2.0000000e+00 1.6000000e+00 0.0000000e+00 
2.0000000e+00 1.4000000e+00 0.0000000e+00 
2.0000000e+00 1.2000000e+00 0.0000000e+00 
2.0000000e+00 1.0000000e+00 0.0000000e+00 
2.0000000e+00 8.0000001e-01 0.0000000e+00 
2.0000000e+00 6.0000002e-01 0.0000000e+00 
2.0000000e+00 4.0000001e-01 0.0000000e+00 
2.0000000e+00 2.0000000e-01 0.0000000e+00 

CELLS 30 90
2 0 4
2 4 5
2 5 6
2 6 7
2 7 8
2 8 9
2 9 10
2 10 11
2 11 12
2 12 1
2 1 13
2 13 14
2 14 15
2 15 16
2 16 17
2 17 18
2 18 19
2 19 20
2 20 21
2 21 2
2 2 22
2 22 23
2 23 24
2 24 25
2 25 26
2 26 27
2 27 28
2 28 29
2 29 30
2 30 3

CELL_TYPES 30
3
3
3
3
3
3
3
3
3
3
3
3
3
3
3
3
3
3
3
3
3
3
3
3
3
3
3
3
3
3
POINT_DATA 31
FIELD FieldData 6
DISPLACEMENT 3 31  float
0.0000000e+00 0.0000000e+00 0.0000000e+00 
1.6421791e-06 -3.3184006e-05 0.0000000e+00 
-1.6421791e-06 -3.3184006e-05 0.0000000e+00 
0.0000000e+00 0.0000000e+00 0.0000000e+00 
-1.2426040e-04 -3.3184006e-06 0.0000000e+00 
-2.4097993e-04 -6.6368011e-06 0.0000000e+00 
-3.4261768e-04 -9.9552017e-06 0.0000000e+00 
-4.2163278e-04 -1.3273602e-05 0.0000000e+00 
-4.7048432e-04 -1.6592003e-05 0.0000000e+00 
-4.8163143e-04 -1.9910403e-05 0.0000000e+00 
-4.4753321e-04 -2.3228804e-05 0.0000000e+00 
-3.6064882e-04 -2.6547204e-05 0.0000000e+00 
-2.1343731e-04 -2.9865605e-05 0.0000000e+00 
1.3137433e-06 -3.1098697e-04 0.0000000e+00 
9.8530745e-07 -5.9816707e-04 0.0000000e+00 
6.5687163e-07 -8.4139092e-04 0.0000000e+00 
3.2843582e-07 -1.0025633e-03 0.0000000e+00 
4.6625471e-17 -1.0588272e-03 0.0000000e+00 
-3.2843582e-07 -1.0025633e-03 0.0000000e+00 
-6.5687163e-07 -8.4139092e-04 0.0000000e+00 
-9.8530745e-07 -5.9816707e-04 0.0000000e+00 
-1.3137433e-06 -3.1098697e-04 0.0000000e+00 
2.1343731e-04 -2.9865605e-05 0.0000000e+00 
3.6064882e-04 -2.6547204e-05 0.0000000e+00 
4.4753321e-04 -2.3228804e-05 0.0000000e+00 
4.8163143e-04 -1.9910403e-05 0.0000000e+00 
4.7048432e-04 -1.6592003e-05 0.0000000e+00 
4.2163278e-04 -1.3273602e-05 0.0000000e+00 
3.4261768e-04 -9.9552017e-06 0.0000000e+00 
2.4097993e-04 -6.6368011e-06 0.0000000e+00 
1.2426040e-04 -3.3184006e-06 0.0000000e+00 
REACTION 3 31  float
9.8684863e+02 9.8844492e+03 0.0000000e+00 
-5.7382672e+02 3.4929083e+02 0.0000000e+00 
5.7382672e+02 3.4929077e+02 0.0000000e+00 
-9.8684863e+02 9.8844492e+03 0.0000000e+00 
1.7198166e-01 1.3653691e+01 0.0000000e+00 
3.4682146e-01 2.4736822e+01 0.0000000e+00 
5.2643049e-01 3.0678829e+01 0.0000000e+00 
7.1082497e-01 2.8909145e+01 0.0000000e+00 
8.9717966e-01 1.6857203e+01 0.0000000e+00 
1.0788800e+00 -8.0475683e+00 0.0000000e+00 
1.2445753e+00 -4.8375721e+01 0.0000000e+00 
1.3772308e+00 -1.0669778e+02 0.0000000e+00 
1.4531817e+00 -1.8558420e+02 0.0000000e+00 
-4.2363041e+01 3.0104857e-02 0.0000000e+00 
1.7167557e+02 -1.2192535e-01 0.0000000e+00 
2.4631735e+02 -5.6952104e-02 0.0000000e+00 
1.6971629e+02 1.4346659e-01 0.0000000e+00 
8.3641794e-08 2.4915370e-01 0.0000000e+00 
-1.6971629e+02 1.4346659e-01 0.0000000e+00 
-2.4631735e+02 -5.6952104e-02 0.0000000e+00 
-1.7167557e+02 -1.2192535e-01 0.0000000e+00 
4.2363041e+01 3.0167807e-02 0.0000000e+00 
-1.4531815e+00 -1.8558420e+02 0.0000000e+00 
-1.3772305e+00 -1.0669778e+02 0.0000000e+00 
-1.2445759e+00 -4.8375721e+01 0.0000000e+00 
-1.0788795e+00 -8.0475683e+00 0.0000000e+00 
-8.9718026e-01 1.6857203e+01 0.0000000e+00 
-7.1082449e-01 2.8909145e+01 0.0000000e+00 
-5.2643031e-01 3.0678829e+01 0.0000000e+00 
-3.4682176e-01 2.4736822e+01 0.0000000e+00 
-1.7198174e-01 1.3653691e+01 0.0000000e+00 
ROTATION 3 31  float
0.0000000e+00 0.0000000e+00 6.2758609e-04 
0.0000000e+00 0.0000000e+00 -1.2576355e-03 
0.0000000e+00 0.0000000e+00 1.2576355e-03 
0.0000000e+00 0.0000000e+00 -6.2758609e-04 
0.0000000e+00 0.0000000e+00 6.0873391e-04 
0.0000000e+00 0.0000000e+00 5.5217725e-04 
0.0000000e+00 0.0000000e+00 4.5791618e-04 
0.0000000e+00 0.0000000e+00 3.2595065e-04 
0.0000000e+00 0.0000000e+00 1.5628072e-04 
0.0000000e+00 0.0000000e+00 -5.1093666e-05 
0.0000000e+00 0.0000000e+00 -2.9617248e-04 
0.0000000e+00 0.0000000e+00 -5.7895575e-04 
0.0000000e+00 0.0000000e+00 -8.9944340e-04 
0.0000000e+00 0.0000000e+00 -1.4632513e-03 
0.0000000e+00 0.0000000e+00 -1.3641051e-03 
0.0000000e+00 0.0000000e+00 -1.0363875e-03 
0.0000000e+00 0.0000000e+00 -5.5628899e-04 
0.0000000e+00 0.0000000e+00 -3.1044085e-17 
0.0000000e+00 0.0000000e+00 5.5628899e-04 
0.0000000e+00 0.0000000e+00 1.0363875e-03 
0.0000000e+00 0.0000000e+00 1.3641051e-03 
0.0000000e+00 0.0000000e+00 1.4632513e-03 
0.0000000e+00 0.0000000e+00 8.9944340e-04 
0.0000000e+00 0.0000000e+00 5.7895575e-04 
0.0000000e+00 0.0000000e+00 2.9617248e-04 
0.0000000e+00 0.0000000e+00 5.1093666e-05 
0.0000000e+00 0.0000000e+00 -1.5628072e-04 
0.0000000e+00 0.0000000e+00 -3.2595065e-04 
0.0000000e+00 0.0000000e+00 -4.5791618e-04 
0.0000000e+00 0.0000000e+00 -5.5217725e-04 
0.0000000e+00 0.0000000e+00 -6.0873391e-04 
REACTION_MOMENT 3 31  float
0.0000000e+00 0.0000000e+00 -3.2469699e-01 
0.0000000e+00 0.0000000e+00 6.1896133e-01 
0.0000000e+00 0.0000000e+00 -6.1895502e-01 
0.0000000e+00 0.0000000e+00 3.2469699e-01 
0.0000000e+00 0.0000000e+00 -6.3012612e-01 
0.0000000e+00 0.0000000e+00 -5.7216680e-01 
0.0000000e+00 0.0000000e+00 -4.7509986e-01 
0.0000000e+00 0.0000000e+00 -3.3840045e-01 
0.0000000e+00 0.0000000e+00 -1.6168834e-01 
0.0000000e+00 0.0000000e+00 5.4917373e-02 
0.0000000e+00 0.0000000e+00 3.1034246e-01 
0.0000000e+00 0.0000000e+00 6.0200030e-01 
0.0000000e+00 0.0000000e+00 9.2513323e-01 
0.0000000e+00 0.0000000e+00 8.8504910e-02 
0.0000000e+00 0.0000000e+00 8.8879369e-02 
0.0000000e+00 0.0000000e+00 8.2348086e-02 
0.0000000e+00 0.0000000e+00 5.2074481e-02 
0.0000000e+00 0.0000000e+00 -1.6234480e-10 
0.0000000e+00 0.0000000e+00 -5.2074481e-02 
0.0000000e+00 0.0000000e+00 -8.2348086e-02 
0.0000000e+00 0.0000000e+00 -8.8879369e-02 
0.0000000e+00 0.0000000e+00 -8.8498615e-02 
0.0000000e+00 0.0000000e+00 -9.2513323e-01 
0.0000000e+00 0.0000000e+00 -6.0200024e-01 
0.0000000e+00 0.0000000e+00 -3.1034246e-01 
0.0000000e+00 0.0000000e+00 -5.4917388e-02 
0.0000000e+00 0.0000000e+00 1.6168833e-01 
0.0000000e+00 0.0000000e+00 3.3840042e-01 
0.0000000e+00 0.0000000e+00 4.7509989e-01 
0.0000000e+00 0.0000000e+00 5.7216680e-01 
0.0000000e+00 0.0000000e+00 6.3012612e-01 
FORCE 3 31  float
-9.8838340e+03 9.9298981e+02 0.0000000e+00 
-5.0299502e+03 -4.0081233e+03 0.0000000e+00 
-5.0299502e+03 4.0081233e+03 0.0000000e+00 
-9.8838340e+03 -9.9298981e+02 0.0000000e+00 
-9.8906797e+03 9.9289343e+02 0.0000000e+00 
-9.9099307e+03 9.9260358e+02 0.0000000e+00 
-9.9377324e+03 9.9211816e+02 0.0000000e+00 
-9.9676562e+03 9.9143463e+02 0.0000000e+00 
-9.9907080e+03 9.9055109e+02 0.0000000e+00 
-9.9953184e+03 9.8946826e+02 0.0000000e+00 
-9.9673486e+03 9.8819153e+02 0.0000000e+00 
-9.8900918e+03 9.8673401e+02 0.0000000e+00 
-9.7442676e+03 9.8511951e+02 0.0000000e+00 
-3.8837106e+02 -8.0004429e+03 0.0000000e+00 
-4.5623761e+02 -6.0004434e+03 0.0000000e+00 
-6.6905103e+02 -4.0004082e+03 0.0000000e+00 
-8.7996759e+02 -2.0002571e+03 0.0000000e+00 
-9.6589392e+02 4.1211479e-13 0.0000000e+00 
-8.7996759e+02 2.0002571e+03 0.0000000e+00 
-6.6905103e+02 4.0004082e+03 0.0000000e+00 
-4.5623761e+02 6.0004434e+03 0.0000000e+00 
-3.8837106e+02 8.0004429e+03 0.0000000e+00 
-9.7442676e+03 -9.8511951e+02 0.0000000e+00 
-9.8900918e+03 -9.8673401e+02 0.0000000e+00 
-9.9673486e+03 -9.8819153e+02 0.0000000e+00 
-9.9953184e+03 -9.8946826e+02 0.0000000e+00 
-9.9907080e+03 -9.9055109e+02 0.0000000e+00 
-9.9676562e+03 -9.9143463e+02 0.0000000e+00 
-9.9377324e+03 -9.9211816e+02 0.0000000e+00 
-9.9099307e+03 -9.9260358e+02 0.0000000e+00 
-9.8906797e+03 -9.9289343e+02 0.0000000e+00 
MOMENT 3 31  float
0.0000000e+00 0.0000000e+00 7.7607262e+01 
0.0000000e+00 0.0000000e+00 1.5873975e+03 
0.0000000e+00 0.0000000e+00 1.5873975e+03 
0.0000000e+00 0.0000000e+00 7.7607262e+01 
0.0000000e+00 0.0000000e+00 1.9794737e+02 
0.0000000e+00 0.0000000e+00 3.9589474e+02 
0.0000000e+00 0.0000000e+00 5.9384216e+02 
0.0000000e+00 0.0000000e+00 7.9178955e+02 
0.0000000e+00 0.0000000e+00 9.8973694e+02 
0.0000000e+00 0.0000000e+00 1.1876843e+03 
0.0000000e+00 0.0000000e+00 1.3856317e+03 
0.0000000e+00 0.0000000e+00 1.5835791e+03 
0.0000000e+00 0.0000000e+00 1.7815262e+03 
0.0000000e+00 0.0000000e+00 2.5796585e+02 
0.0000000e+00 0.0000000e+00 -1.1420328e+03 
0.0000000e+00 0.0000000e+00 -2.1420325e+03 
0.0000000e+00 0.0000000e+00 -2.7420325e+03 
0.0000000e+00 0.0000000e+00 -2.9420327e+03 
0.0000000e+00 0.0000000e+00 -2.7420325e+03 
0.0000000e+00 0.0000000e+00 -2.1420325e+03 
0.0000000e+00 0.0000000e+00 -1.1420328e+03 
0.0000000e+00 0.0000000e+00 2.5796585e+02 
0.0000000e+00 0.0000000e+00 1.7815262e+03 
0.0000000e+00 0.0000000e+00 1.5835791e+03 
0.0000000e+00 0.0000000e+00 1.3856317e+03 
0.0000000e+00 0.0000000e+00 1.1876843e+03 
0.0000000e+00 0.0000000e+00 9.8973694e+02 
0.0000000e+00 0.0000000e+00 7.9178955e+02 
0.0000000e+00 0.0000000e+00 5.9384216e+02 
0.0000000e+00 0.0000000e+00 3.9589474e+02 
0.0000000e+00 0.0000000e+00 1.9794737e+02 
CELL_DATA 30
FIELD FieldData 2
FORCE 3 30  float
-9.8838340e+03 9.9298981e+02 0.0000000e+00 
-9.8975254e+03 9.9279706e+02 0.0000000e+00 
-9.9223369e+03 9.9241010e+02 0.0000000e+00 
-9.9531279e+03 9.9182623e+02 0.0000000e+00 
-9.9821855e+03 9.9104303e+02 0.0000000e+00 
-9.9992295e+03 9.9005920e+02 0.0000000e+00 
-9.9914062e+03 9.8887732e+02 0.0000000e+00 
-9.9432920e+03 9.8750580e+02 0.0000000e+00 
-9.8368926e+03 9.8596222e+02 0.0000000e+00 
-9.6516436e+03 9.8427679e+02 0.0000000e+00 
-4.0832767e+02 -9.0004473e+03 0.0000000e+00 
-3.6841443e+02 -7.0004390e+03 0.0000000e+00 
-5.4406085e+02 -5.0004473e+03 0.0000000e+00 
-7.9404132e+02 -3.0003684e+03 0.0000000e+00 
-9.6589392e+02 -1.0001456e+03 0.0000000e+00 
-9.6589392e+02 1.0001456e+03 0.0000000e+00 
-7.9404132e+02 3.0003684e+03 0.0000000e+00 
-5.4406085e+02 5.0004473e+03 0.0000000e+00 
-3.6841443e+02 7.0004390e+03 0.0000000e+00 
-4.0832767e+02 9.0004473e+03 0.0000000e+00 
-9.6516436e+03 -9.8427679e+02 0.0000000e+00 
-9.8368926e+03 -9.8596222e+02 0.0000000e+00 
-9.9432920e+03 -9.8750580e+02 0.0000000e+00 
-9.9914062e+03 -9.8887732e+02 0.0000000e+00 
-9.9992295e+03 -9.9005920e+02 0.0000000e+00 
-9.9821855e+03 -9.9104303e+02 0.0000000e+00 
-9.9531279e+03 -9.9182623e+02 0.0000000e+00 
-9.9223369e+03 -9.9241010e+02 0.0000000e+00 
-9.8975254e+03 -9.9279706e+02 0.0000000e+00 
-9.8838340e+03 -9.9298981e+02 0.0000000e+00 
MOMENT 3 30  float
0.0000000e+00 0.0000000e+00 9.8972656e+01 
0.0000000e+00 0.0000000e+00 2.9691797e+02 
0.0000000e+00 0.0000000e+00 4.9486325e+02 
0.0000000e+00 0.0000000e+00 6.9280847e+02 
0.0000000e+00 0.0000000e+00 8.9075372e+02 
0.0000000e+00 0.0000000e+00 1.0886990e+03 
0.0000000e+00 0.0000000e+00 1.2866443e+03 
0.0000000e+00 0.0000000e+00 1.4845897e+03 
0.0000000e+00 0.0000000e+00 1.6825353e+03 
0.0000000e+00 0.0000000e+00 1.8804811e+03 
0.0000000e+00 0.0000000e+00 1.0794821e+03 
0.0000000e+00 0.0000000e+00 -5.2051697e+02 
0.0000000e+00 0.0000000e+00 -1.7205159e+03 
0.0000000e+00 0.0000000e+00 -2.5205142e+03 
0.0000000e+00 0.0000000e+00 -2.9205129e+03 
0.0000000e+00 0.0000000e+00 -2.9205129e+03 
0.0000000e+00 0.0000000e+00 -2.5205142e+03 
0.0000000e+00 0.0000000e+00 -1.7205159e+03 
0.0000000e+00 0.0000000e+00 -5.2051697e+02 
0.0000000e+00 0.0000000e+00 1.0794821e+03 
0.0000000e+00 0.0000000e+00 1.8804811e+03 
0.0000000e+00 0.0000000e+00 1.6825353e+03 
0.0000000e+00 0.0000000e+00 1.4845897e+03 
0.0000000e+00 0.0000000e+00 1.2866443e+03 
0.0000000e+00 0.0000000e+00 1.0886990e+03 
0.0000000e+00 0.0000000e+00 8.9075372e+02 
0.0000000e+00 0.0000000e+00 6.9280847e+02 
0.0000000e+00 0.0000000e+00 4.9486325e+02 
0.0000000e+00 0.0000000e+00 2.9691797e+02 
0.0000000e+00 0.0000000e+00 9.8972656e+01 
