# vtk DataFile Version 4.0
vtk output
ASCII
DATASET UNSTRUCTURED_GRID
POINTS 212 float
0.0000000e+00 0.0000000e+00 0.0000000e+00 
0.0000000e+00 0.0000000e+00 2.5000000e-01 
0.0000000e+00 0.0000000e+00 5.0000000e-01 
0.0000000e+00 0.0000000e+00 7.5000000e-01 
0.0000000e+00 0.0000000e+00 1.0000000e+00 
0.0000000e+00 0.0000000e+00 1.2500000e+00 
0.0000000e+00 0.0000000e+00 1.5000000e+00 
0.0000000e+00 0.0000000e+00 1.7500000e+00 
0.0000000e+00 0.0000000e+00 2.0000000e+00 
0.0000000e+00 0.0000000e+00 2.2500000e+00 
0.0000000e+00 0.0000000e+00 2.5000000e+00 
0.0000000e+00 0.0000000e+00 2.7500000e+00 
0.0000000e+00 0.0000000e+00 3.0000000e+00 
0.0000000e+00 0.0000000e+00 3.2500000e+00 
0.0000000e+00 0.0000000e+00 3.5000000e+00 
0.0000000e+00 0.0000000e+00 3.7500000e+00 
0.0000000e+00 0.0000000e+00 4.0000000e+00 
0.0000000e+00 0.0000000e+00 4.2500000e+00 
0.0000000e+00 0.0000000e+00 4.5000000e+00 
0.0000000e+00 0.0000000e+00 4.7500000e+00 
0.0000000e+00 0.0000000e+00 5.0000000e+00 
0.0000000e+00 0.0000000e+00 5.2500000e+00 
0.0000000e+00 0.0000000e+00 5.5000000e+00 
0.0000000e+00 0.0000000e+00 5.7500000e+00 
0.0000000e+00 0.0000000e+00 6.0000000e+00 
0.0000000e+00 0.0000000e+00 6.2500000e+00 
0.0000000e+00 0.0000000e+00 6.5000000e+00 
0.0000000e+00 0.0000000e+00 6.7500000e+00 
0.0000000e+00 0.0000000e+00 7.0000000e+00 
0.0000000e+00 0.0000000e+00 7.2500000e+00 
0.0000000e+00 0.0000000e+00 7.5000000e+00 
0.0000000e+00 0.0000000e+00 7.7500000e+00 
0.0000000e+00 0.0000000e+00 8.0000000e+00 
0.0000000e+00 0.0000000e+00 8.2500000e+00 
0.0000000e+00 0.0000000e+00 8.5000000e+00 
0.0000000e+00 0.0000000e+00 8.7500000e+00 
0.0000000e+00 0.0000000e+00 9.0000000e+00 
0.0000000e+00 0.0000000e+00 9.2500000e+00 
0.0000000e+00 0.0000000e+00 9.5000000e+00 
0.0000000e+00 0.0000000e+00 9.7500000e+00 
0.0000000e+00 0.0000000e+00 1.0000000e+01 
0.0000000e+00 0.0000000e+00 1.0250000e+01 
0.0000000e+00 0.0000000e+00 1.0500000e+01 
0.0000000e+00 0.0000000e+00 1.0750000e+01 
0.0000000e+00 0.0000000e+00 1.1000000e+01 
0.0000000e+00 0.0000000e+00 1.1250000e+01 
0.0000000e+00 0.0000000e+00 1.1500000e+01 
0.0000000e+00 0.0000000e+00 1.1750000e+01 
0.0000000e+00 0.0000000e+00 1.2000000e+01 
0.0000000e+00 0.0000000e+00 1.2250000e+01 
0.0000000e+00 0.0000000e+00 1.2500000e+01 
0.0000000e+00 0.0000000e+00 1.2750000e+01 
0.0000000e+00 0.0000000e+00 1.3000000e+01 
0.0000000e+00 0.0000000e+00 1.3250000e+01 
0.0000000e+00 0.0000000e+00 1.3500000e+01 
0.0000000e+00 0.0000000e+00 1.3750000e+01 
0.0000000e+00 0.0000000e+00 1.4000000e+01 
0.0000000e+00 0.0000000e+00 1.4250000e+01 
0.0000000e+00 0.0000000e+00 1.4500000e+01 
0.0000000e+00 0.0000000e+00 1.4750000e+01 
0.0000000e+00 0.0000000e+00 1.5000000e+01 
0.0000000e+00 0.0000000e+00 1.5250000e+01 
0.0000000e+00 0.0000000e+00 1.5500000e+01 
0.0000000e+00 0.0000000e+00 1.5750000e+01 
0.0000000e+00 0.0000000e+00 1.6000000e+01 
0.0000000e+00 0.0000000e+00 1.6250000e+01 
0.0000000e+00 0.0000000e+00 1.6500000e+01 
0.0000000e+00 0.0000000e+00 1.6750000e+01 
0.0000000e+00 0.0000000e+00 1.7000000e+01 
0.0000000e+00 0.0000000e+00 1.7250000e+01 
0.0000000e+00 0.0000000e+00 1.7500000e+01 
0.0000000e+00 0.0000000e+00 1.7750000e+01 
0.0000000e+00 0.0000000e+00 1.8000000e+01 
5.0000000e-01 0.0000000e+00 3.0000000e+00 
5.0000000e-01 0.0000000e+00 6.0000000e+00 
5.0000000e-01 0.0000000e+00 9.0000000e+00 
5.0000000e-01 0.0000000e+00 1.2000000e+01 
5.0000000e-01 0.0000000e+00 1.5000000e+01 
5.0000000e-01 0.0000000e+00 1.8000000e+01 
1.0000000e+00 0.0000000e+00 3.0000000e+00 
1.0000000e+00 0.0000000e+00 6.0000000e+00 
1.0000000e+00 0.0000000e+00 9.0000000e+00 
1.0000000e+00 0.0000000e+00 1.2000000e+01 
1.0000000e+00 0.0000000e+00 1.5000000e+01 
1.0000000e+00 0.0000000e+00 1.8000000e+01 
1.5000000e+00 0.0000000e+00 3.0000000e+00 
1.5000000e+00 0.0000000e+00 6.0000000e+00 
1.5000000e+00 0.0000000e+00 9.0000000e+00 
1.5000000e+00 0.0000000e+00 1.2000000e+01 
1.5000000e+00 0.0000000e+00 1.5000000e+01 
1.5000000e+00 0.0000000e+00 1.8000000e+01 
2.0000000e+00 0.0000000e+00 3.0000000e+00 
2.0000000e+00 0.0000000e+00 6.0000000e+00 
2.0000000e+00 0.0000000e+00 9.0000000e+00 
2.0000000e+00 0.0000000e+00 1.2000000e+01 
2.0000000e+00 0.0000000e+00 1.5000000e+01 
2.0000000e+00 0.0000000e+00 1.8000000e+01 
2.5000000e+00 0.0000000e+00 3.0000000e+00 
2.5000000e+00 0.0000000e+00 6.0000000e+00 
2.5000000e+00 0.0000000e+00 9.0000000e+00 
2.5000000e+00 0.0000000e+00 1.2000000e+01 
2.5000000e+00 0.0000000e+00 1.5000000e+01 
2.5000000e+00 0.0000000e+00 1.8000000e+01 
3.0000000e+00 0.0000000e+00 3.0000000e+00 
3.0000000e+00 0.0000000e+00 6.0000000e+00 
3.0000000e+00 0.0000000e+00 9.0000000e+00 
3.0000000e+00 0.0000000e+00 1.2000000e+01 
3.0000000e+00 0.0000000e+00 1.5000000e+01 
3.0000000e+00 0.0000000e+00 1.8000000e+01 
3.5000000e+00 0.0000000e+00 3.0000000e+00 
3.5000000e+00 0.0000000e+00 6.0000000e+00 
3.5000000e+00 0.0000000e+00 9.0000000e+00 
3.5000000e+00 0.0000000e+00 1.2000000e+01 
3.5000000e+00 0.0000000e+00 1.5000000e+01 
3.5000000e+00 0.0000000e+00 1.8000000e+01 
4.0000000e+00 0.0000000e+00 3.0000000e+00 
4.0000000e+00 0.0000000e+00 6.0000000e+00 
4.0000000e+00 0.0000000e+00 9.0000000e+00 
4.0000000e+00 0.0000000e+00 1.2000000e+01 
4.0000000e+00 0.0000000e+00 1.5000000e+01 
4.0000000e+00 0.0000000e+00 1.8000000e+01 
4.5000000e+00 0.0000000e+00 3.0000000e+00 
4.5000000e+00 0.0000000e+00 6.0000000e+00 
4.5000000e+00 0.0000000e+00 9.0000000e+00 
4.5000000e+00 0.0000000e+00 1.2000000e+01 
4.5000000e+00 0.0000000e+00 1.5000000e+01 
4.5000000e+00 0.0000000e+00 1.8000000e+01 
5.0000000e+00 0.0000000e+00 3.0000000e+00 
5.0000000e+00 0.0000000e+00 6.0000000e+00 
5.0000000e+00 0.0000000e+00 9.0000000e+00 
5.0000000e+00 0.0000000e+00 1.2000000e+01 
5.0000000e+00 0.0000000e+00 1.5000000e+01 
5.0000000e+00 0.0000000e+00 1.8000000e+01 
5.5000000e+00 0.0000000e+00 3.0000000e+00 
5.5000000e+00 0.0000000e+00 6.0000000e+00 
5.5000000e+00 0.0000000e+00 9.0000000e+00 
5.5000000e+00 0.0000000e+00 1.2000000e+01 
5.5000000e+00 0.0000000e+00 1.5000000e+01 
5.5000000e+00 0.0000000e+00 1.8000000e+01 
6.0000000e+00 0.0000000e+00 0.0000000e+00 
6.0000000e+00 0.0000000e+00 2.5000000e-01 
6.0000000e+00 0.0000000e+00 5.0000000e-01 
6.0000000e+00 0.0000000e+00 7.5000000e-01 
6.0000000e+00 0.0000000e+00 1.0000000e+00 
6.0000000e+00 0.0000000e+00 1.2500000e+00 
6.0000000e+00 0.0000000e+00 1.5000000e+00 
6.0000000e+00 0.0000000e+00 1.7500000e+00 
6.0000000e+00 0.0000000e+00 2.0000000e+00 
6.0000000e+00 0.0000000e+00 2.2500000e+00 
6.0000000e+00 0.0000000e+00 2.5000000e+00 
6.0000000e+00 0.0000000e+00 2.7500000e+00 
6.0000000e+00 0.0000000e+00 3.0000000e+00 
6.0000000e+00 0.0000000e+00 3.2500000e+00 
6.0000000e+00 0.0000000e+00 3.5000000e+00 
6.0000000e+00 0.0000000e+00 3.7500000e+00 
6.0000000e+00 0.0000000e+00 4.0000000e+00 
6.0000000e+00 0.0000000e+00 4.2500000e+00 
6.0000000e+00 0.0000000e+00 4.5000000e+00 
6.0000000e+00 0.0000000e+00 4.7500000e+00 
6.0000000e+00 0.0000000e+00 5.0000000e+00 
6.0000000e+00 0.0000000e+00 5.2500000e+00 
6.0000000e+00 0.0000000e+00 5.5000000e+00 
6.0000000e+00 0.0000000e+00 5.7500000e+00 
6.0000000e+00 0.0000000e+00 6.0000000e+00 
6.0000000e+00 0.0000000e+00 6.2500000e+00 
6.0000000e+00 0.0000000e+00 6.5000000e+00 
6.0000000e+00 0.0000000e+00 6.7500000e+00 
6.0000000e+00 0.0000000e+00 7.0000000e+00 
6.0000000e+00 0.0000000e+00 7.2500000e+00 
6.0000000e+00 0.0000000e+00 7.5000000e+00 
6.0000000e+00 0.0000000e+00 7.7500000e+00 
6.0000000e+00 0.0000000e+00 8.0000000e+00 
6.0000000e+00 0.0000000e+00 8.2500000e+00 
6.0000000e+00 0.0000000e+00 8.5000000e+00 
6.0000000e+00 0.0000000e+00 8.7500000e+00 
6.0000000e+00 0.0000000e+00 9.0000000e+00 
6.0000000e+00 0.0000000e+00 9.2500000e+00 
6.0000000e+00 0.0000000e+00 9.5000000e+00 
6.0000000e+00 0.0000000e+00 9.7500000e+00 
6.0000000e+00 0.0000000e+00 1.0000000e+01 
6.0000000e+00 0.0000000e+00 1.0250000e+01 
6.0000000e+00 0.0000000e+00 1.0500000e+01 
6.0000000e+00 0.0000000e+00 1.0750000e+01 
6.0000000e+00 0.0000000e+00 1.1000000e+01 
6.0000000e+00 0.0000000e+00 1.1250000e+01 
6.0000000e+00 0.0000000e+00 1.1500000e+01 
6.0000000e+00 0.0000000e+00 1.1750000e+01 
6.0000000e+00 0.0000000e+00 1.2000000e+01 
6.0000000e+00 0.0000000e+00 1.2250000e+01 
6.0000000e+00 0.0000000e+00 1.2500000e+01 
6.0000000e+00 0.0000000e+00 1.2750000e+01 
6.0000000e+00 0.0000000e+00 1.3000000e+01 
6.0000000e+00 0.0000000e+00 1.3250000e+01 
6.0000000e+00 0.0000000e+00 1.3500000e+01 
6.0000000e+00 0.0000000e+00 1.3750000e+01 
6.0000000e+00 0.0000000e+00 1.4000000e+01 
6.0000000e+00 0.0000000e+00 1.4250000e+01 
6.0000000e+00 0.0000000e+00 1.4500000e+01 
6.0000000e+00 0.0000000e+00 1.4750000e+01 
6.0000000e+00 0.0000000e+00 1.5000000e+01 
6.0000000e+00 0.0000000e+00 1.5250000e+01 
6.0000000e+00 0.0000000e+00 1.5500000e+01 
6.0000000e+00 0.0000000e+00 1.5750000e+01 
6.0000000e+00 0.0000000e+00 1.6000000e+01 
6.0000000e+00 0.0000000e+00 1.6250000e+01 
6.0000000e+00 0.0000000e+00 1.6500000e+01 
6.0000000e+00 0.0000000e+00 1.6750000e+01 
6.0000000e+00 0.0000000e+00 1.7000000e+01 
6.0000000e+00 0.0000000e+00 1.7250000e+01 
6.0000000e+00 0.0000000e+00 1.7500000e+01 
6.0000000e+00 0.0000000e+00 1.7750000e+01 
6.0000000e+00 0.0000000e+00 1.8000000e+01 

CELLS 216 648
2 0 1
2 1 2
2 2 3
2 3 4
2 4 5
2 5 6
2 6 7
2 7 8
2 8 9
2 9 10
2 10 11
2 11 12
2 12 13
2 13 14
2 14 15
2 15 16
2 16 17
2 17 18
2 18 19
2 19 20
2 20 21
2 21 22
2 22 23
2 23 24
2 24 25
2 25 26
2 26 27
2 27 28
2 28 29
2 29 30
2 30 31
2 31 32
2 32 33
2 33 34
2 34 35
2 35 36
2 36 37
2 37 38
2 38 39
2 39 40
2 40 41
2 41 42
2 42 43
2 43 44
2 44 45
2 45 46
2 46 47
2 47 48
2 48 49
2 49 50
2 50 51
2 51 52
2 52 53
2 53 54
2 54 55
2 55 56
2 56 57
2 57 58
2 58 59
2 59 60
2 60 61
2 61 62
2 62 63
2 63 64
2 64 65
2 65 66
2 66 67
2 67 68
2 68 69
2 69 70
2 70 71
2 71 72
2 139 140
2 140 141
2 141 142
2 142 143
2 143 144
2 144 145
2 145 146
2 146 147
2 147 148
2 148 149
2 149 150
2 150 151
2 151 152
2 152 153
2 153 154
2 154 155
2 155 156
2 156 157
2 157 158
2 158 159
2 159 160
2 160 161
2 161 162
2 162 163
2 163 164
2 164 165
2 165 166
2 166 167
2 167 168
2 168 169
2 169 170
2 170 171
2 171 172
2 172 173
2 173 174
2 174 175
2 175 176
2 176 177
2 177 178
2 178 179
2 179 180
2 180 181
2 181 182
2 182 183
2 183 184
2 184 185
2 185 186
2 186 187
2 187 188
2 188 189
2 189 190
2 190 191
2 191 192
2 192 193
2 193 194
2 194 195
2 195 196
2 196 197
2 197 198
2 198 199
2 199 200
2 200 201
2 201 202
2 202 203
2 203 204
2 204 205
2 205 206
2 206 207
2 207 208
2 208 209
2 209 210
2 210 211
2 12 73
2 73 79
2 79 85
2 85 91
2 91 97
2 97 103
2 103 109
2 109 115
2 115 121
2 121 127
2 127 133
2 133 151
2 24 74
2 74 80
2 80 86
2 86 92
2 92 98
2 98 104
2 104 110
2 110 116
2 116 122
2 122 128
2 128 134
2 134 163
2 36 75
2 75 81
2 81 87
2 87 93
2 93 99
2 99 105
2 105 111
2 111 117
2 117 123
2 123 129
2 129 135
2 135 175
2 48 76
2 76 82
2 82 88
2 88 94
2 94 100
2 100 106
2 106 112
2 112 118
2 118 124
2 124 130
2 130 136
2 136 187
2 60 77
2 77 83
2 83 89
2 89 95
2 95 101
2 101 107
2 107 113
2 113 119
2 119 125
2 125 131
2 131 137
2 137 199
2 72 78
2 78 84
2 84 90
2 90 96
2 96 102
2 102 108
2 108 114
2 114 120
2 120 126
2 126 132
2 132 138
2 138 211

CELL_TYPES 216
3
3
3
3
3
3
3
3
3
3
3
3
3
3
3
3
3
3
3
3
3
3
3
3
3
3
3
3
3
3
3
3
3
3
3
3
3
3
3
3
3
3
3
3
3
3
3
3
3
3
3
3
3
3
3
3
3
3
3
3
3
3
3
3
3
3
3
3
3
3
3
3
3
3
3
3
3
3
3
3
3
3
3
3
3
3
3
3
3
3
3
3
3
3
3
3
3
3
3
3
3
3
3
3
3
3
3
3
3
3
3
3
3
3
3
3
3
3
3
3
3
3
3
3
3
3
3
3
3
3
3
3
3
3
3
3
3
3
3
3
3
3
3
3
3
3
3
3
3
3
3
3
3
3
3
3
3
3
3
3
3
3
3
3
3
3
3
3
3
3
3
3
3
3
3
3
3
3
3
3
3
3
3
3
3
3
3
3
3
3
3
3
3
3
3
3
3
3
3
3
3
3
3
3
3
3
3
3
3
3
3
3
3
3
3
3
POINT_DATA 212
FIELD FieldData 8
DISPLACEMENT 3 212  float
0.0000000e+00 0.0000000e+00 0.0000000e+00 
-2.5637857e-05 0.0000000e+00 -1.6192767e-05 
-5.0213981e-05 0.0000000e+00 -3.2273496e-05 
-7.2666648e-05 0.0000000e+00 -4.8242182e-05 
-9.1934118e-05 0.0000000e+00 -6.4098829e-05 
-1.0695466e-04 0.0000000e+00 -7.9843441e-05 
-1.1666655e-04 0.0000000e+00 -9.5476011e-05 
-1.2000806e-04 0.0000000e+00 -1.1099654e-04 
-1.1591745e-04 0.0000000e+00 -1.2640504e-04 
-1.0333299e-04 0.0000000e+00 -1.4170149e-04 
-8.1192949e-05 0.0000000e+00 -1.5688590e-04 
-4.8435595e-05 0.0000000e+00 -1.7195827e-04 
-3.9992046e-06 0.0000000e+00 -1.8691859e-04 
3.6114074e-05 0.0000000e+00 -2.0040323e-04 
5.7496669e-05 0.0000000e+00 -2.1377583e-04 
6.3602172e-05 0.0000000e+00 -2.2703639e-04 
5.7884186e-05 0.0000000e+00 -2.4018491e-04 
4.3796303e-05 0.0000000e+00 -2.5322140e-04 
2.4792127e-05 0.0000000e+00 -2.6614583e-04 
4.3252503e-06 0.0000000e+00 -2.7895824e-04 
-1.4150727e-05 0.0000000e+00 -2.9165859e-04 
-2.7182206e-05 0.0000000e+00 -3.0424690e-04 
-3.1315594e-05 0.0000000e+00 -3.1672319e-04 
-2.3097286e-05 0.0000000e+00 -3.2908743e-04 
9.2630995e-07 0.0000000e+00 -3.4133962e-04 
2.5922580e-05 0.0000000e+00 -3.5211613e-04 
3.6689569e-05 0.0000000e+00 -3.6278059e-04 
3.6126858e-05 0.0000000e+00 -3.7333302e-04 
2.7134034e-05 0.0000000e+00 -3.8377341e-04 
1.2610682e-05 0.0000000e+00 -3.9410175e-04 
-4.5436127e-06 0.0000000e+00 -4.0431807e-04 
-2.1429265e-05 0.0000000e+00 -4.1442233e-04 
-3.5146692e-05 0.0000000e+00 -4.2441455e-04 
-4.2796302e-05 0.0000000e+00 -4.3429475e-04 
-4.1478517e-05 0.0000000e+00 -4.4406290e-04 
-2.8293751e-05 0.0000000e+00 -4.5371900e-04 
-3.4241577e-07 0.0000000e+00 -4.6326307e-04 
2.7249647e-05 0.0000000e+00 -4.7133144e-04 
3.9493127e-05 0.0000000e+00 -4.7928779e-04 
3.9492406e-05 0.0000000e+00 -4.8713209e-04 
3.0351861e-05 0.0000000e+00 -4.9486436e-04 
1.5175870e-05 0.0000000e+00 -5.0248456e-04 
-2.9311873e-06 0.0000000e+00 -5.0999271e-04 
-2.0864931e-05 0.0000000e+00 -5.1738886e-04 
-3.5520981e-05 0.0000000e+00 -5.2467297e-04 
-4.3794964e-05 0.0000000e+00 -5.3184503e-04 
-4.2582495e-05 0.0000000e+00 -5.3890503e-04 
-2.8779195e-05 0.0000000e+00 -5.4585299e-04 
7.1931049e-07 0.0000000e+00 -5.5268896e-04 
3.0972802e-05 0.0000000e+00 -5.5804919e-04 
4.6754249e-05 0.0000000e+00 -5.6329742e-04 
5.0737824e-05 0.0000000e+00 -5.6843355e-04 
4.5597695e-05 0.0000000e+00 -5.7345768e-04 
3.4008030e-05 0.0000000e+00 -5.7836977e-04 
1.8642999e-05 0.0000000e+00 -5.8316981e-04 
2.1767758e-06 0.0000000e+00 -5.8785785e-04 
-1.2716473e-05 0.0000000e+00 -5.9243379e-04 
-2.3362578e-05 0.0000000e+00 -5.9689773e-04 
-2.7087366e-05 0.0000000e+00 -6.0124963e-04 
-2.1216672e-05 0.0000000e+00 -6.0548948e-04 
-3.0763233e-06 0.0000000e+00 -6.0961727e-04 
1.1791003e-05 0.0000000e+00 -6.1226939e-04 
9.0692320e-06 0.0000000e+00 -6.1480945e-04 
-6.7275619e-06 0.0000000e+00 -6.1723747e-04 
-3.1085303e-05 0.0000000e+00 -6.1955350e-04 
-5.9489921e-05 0.0000000e+00 -6.2175741e-04 
-8.7427332e-05 0.0000000e+00 -6.2384934e-04 
-1.1038347e-04 0.0000000e+00 -6.2582921e-04 
-1.2384426e-04 0.0000000e+00 -6.2769704e-04 
-1.2329564e-04 0.0000000e+00 -6.2945287e-04 
-1.0422351e-04 0.0000000e+00 -6.3109660e-04 
-6.2113810e-05 0.0000000e+00 -6.3262833e-04 
7.5475396e-06 0.0000000e+00 -6.3404802e-04 
-3.3326708e-06 0.0000000e+00 -3.4553040e-04 
7.7192499e-07 0.0000000e+00 -4.6777204e-04 
-2.8534646e-07 0.0000000e+00 -5.9560564e-04 
5.9942539e-07 0.0000000e+00 -6.8884442e-04 
-2.5636027e-06 0.0000000e+00 -7.2154641e-04 
6.2896161e-06 0.0000000e+00 -8.5556519e-04 
-2.6661364e-06 0.0000000e+00 -5.7317375e-04 
6.1753997e-07 0.0000000e+00 -6.6908682e-04 
-2.2827717e-07 0.0000000e+00 -8.0175599e-04 
4.7954029e-07 0.0000000e+00 -8.9811441e-04 
-2.0508821e-06 0.0000000e+00 -9.1099489e-04 
5.0316930e-06 0.0000000e+00 -1.1346766e-03 
-1.9996023e-06 0.0000000e+00 -8.1112667e-04 
4.6315498e-07 0.0000000e+00 -8.8656193e-04 
-1.7120789e-07 0.0000000e+00 -1.0229921e-03 
3.5965525e-07 0.0000000e+00 -1.1217769e-03 
-1.5381617e-06 0.0000000e+00 -1.1192407e-03 
3.7737698e-06 0.0000000e+00 -1.4126602e-03 
-1.3330682e-06 0.0000000e+00 -1.0137163e-03 
3.0876998e-07 0.0000000e+00 -1.0745247e-03 
-1.1413859e-07 0.0000000e+00 -1.2136413e-03 
2.3977015e-07 0.0000000e+00 -1.3141591e-03 
-1.0254411e-06 0.0000000e+00 -1.3006110e-03 
2.5158465e-06 0.0000000e+00 -1.6438433e-03 
-6.6653411e-07 0.0000000e+00 -1.1483196e-03 
1.5438499e-07 0.0000000e+00 -1.2003516e-03 
-5.7069297e-08 0.0000000e+00 -1.3410801e-03 
1.1988507e-07 0.0000000e+00 -1.4426379e-03 
-5.1272053e-07 0.0000000e+00 -1.4224825e-03 
1.2579233e-06 0.0000000e+00 -1.7956025e-03 
-3.8783267e-16 0.0000000e+00 -1.1953622e-03 
-6.3221025e-16 0.0000000e+00 -1.2444688e-03 
-8.4363777e-16 0.0000000e+00 -1.3857345e-03 
-1.0142567e-15 0.0000000e+00 -1.4876390e-03 
-1.1146301e-15 0.0000000e+00 -1.4652812e-03 
-1.2028475e-15 0.0000000e+00 -1.8483638e-03 
6.6653411e-07 0.0000000e+00 -1.1483196e-03 
-1.5438499e-07 0.0000000e+00 -1.2003516e-03 
5.7069293e-08 0.0000000e+00 -1.3410801e-03 
-1.1988507e-07 0.0000000e+00 -1.4426379e-03 
5.1272053e-07 0.0000000e+00 -1.4224825e-03 
-1.2579233e-06 0.0000000e+00 -1.7956025e-03 
1.3330682e-06 0.0000000e+00 -1.0137163e-03 
-3.0876998e-07 0.0000000e+00 -1.0745247e-03 
1.1413859e-07 0.0000000e+00 -1.2136413e-03 
-2.3977015e-07 0.0000000e+00 -1.3141591e-03 
1.0254411e-06 0.0000000e+00 -1.3006110e-03 
-2.5158465e-06 0.0000000e+00 -1.6438433e-03 
1.9996023e-06 0.0000000e+00 -8.1112667e-04 
-4.6315498e-07 0.0000000e+00 -8.8656193e-04 
1.7120789e-07 0.0000000e+00 -1.0229921e-03 
-3.5965525e-07 0.0000000e+00 -1.1217769e-03 
1.5381617e-06 0.0000000e+00 -1.1192407e-03 
-3.7737698e-06 0.0000000e+00 -1.4126602e-03 
2.6661364e-06 0.0000000e+00 -5.7317375e-04 
-6.1753997e-07 0.0000000e+00 -6.6908682e-04 
2.2827717e-07 0.0000000e+00 -8.0175599e-04 
-4.7954029e-07 0.0000000e+00 -8.9811441e-04 
2.0508821e-06 0.0000000e+00 -9.1099489e-04 
-5.0316930e-06 0.0000000e+00 -1.1346766e-03 
3.3326708e-06 0.0000000e+00 -3.4553040e-04 
-7.7192499e-07 0.0000000e+00 -4.6777204e-04 
2.8534646e-07 0.0000000e+00 -5.9560564e-04 
-5.9942539e-07 0.0000000e+00 -6.8884442e-04 
2.5636027e-06 0.0000000e+00 -7.2154641e-04 
-6.2896161e-06 0.0000000e+00 -8.5556519e-04 
0.0000000e+00 0.0000000e+00 0.0000000e+00 
2.5637857e-05 0.0000000e+00 -1.6192767e-05 
5.0213981e-05 0.0000000e+00 -3.2273496e-05 
7.2666648e-05 0.0000000e+00 -4.8242182e-05 
9.1934118e-05 0.0000000e+00 -6.4098829e-05 
1.0695466e-04 0.0000000e+00 -7.9843441e-05 
1.1666655e-04 0.0000000e+00 -9.5476011e-05 
1.2000806e-04 0.0000000e+00 -1.1099654e-04 
1.1591745e-04 0.0000000e+00 -1.2640504e-04 
1.0333299e-04 0.0000000e+00 -1.4170149e-04 
8.1192949e-05 0.0000000e+00 -1.5688590e-04 
4.8435595e-05 0.0000000e+00 -1.7195827e-04 
3.9992046e-06 0.0000000e+00 -1.8691859e-04 
-3.6114074e-05 0.0000000e+00 -2.0040323e-04 
-5.7496669e-05 0.0000000e+00 -2.1377583e-04 
-6.3602172e-05 0.0000000e+00 -2.2703639e-04 
-5.7884186e-05 0.0000000e+00 -2.4018491e-04 
-4.3796303e-05 0.0000000e+00 -2.5322140e-04 
-2.4792127e-05 0.0000000e+00 -2.6614583e-04 
-4.3252503e-06 0.0000000e+00 -2.7895824e-04 
1.4150727e-05 0.0000000e+00 -2.9165859e-04 
2.7182206e-05 0.0000000e+00 -3.0424690e-04 
3.1315594e-05 0.0000000e+00 -3.1672319e-04 
2.3097286e-05 0.0000000e+00 -3.2908743e-04 
-9.2630995e-07 0.0000000e+00 -3.4133962e-04 
-2.5922580e-05 0.0000000e+00 -3.5211613e-04 
-3.6689569e-05 0.0000000e+00 -3.6278059e-04 
-3.6126858e-05 0.0000000e+00 -3.7333302e-04 
-2.7134034e-05 0.0000000e+00 -3.8377341e-04 
-1.2610682e-05 0.0000000e+00 -3.9410175e-04 
4.5436127e-06 0.0000000e+00 -4.0431807e-04 
2.1429265e-05 0.0000000e+00 -4.1442233e-04 
3.5146692e-05 0.0000000e+00 -4.2441455e-04 
4.2796302e-05 0.0000000e+00 -4.3429475e-04 
4.1478517e-05 0.0000000e+00 -4.4406290e-04 
2.8293751e-05 0.0000000e+00 -4.5371900e-04 
3.4241577e-07 0.0000000e+00 -4.6326307e-04 
-2.7249647e-05 0.0000000e+00 -4.7133144e-04 
-3.9493127e-05 0.0000000e+00 -4.7928779e-04 
-3.9492406e-05 0.0000000e+00 -4.8713209e-04 
-3.0351861e-05 0.0000000e+00 -4.9486436e-04 
-1.5175870e-05 0.0000000e+00 -5.0248456e-04 
2.9311873e-06 0.0000000e+00 -5.0999271e-04 
2.0864931e-05 0.0000000e+00 -5.1738886e-04 
3.5520981e-05 0.0000000e+00 -5.2467297e-04 
4.3794964e-05 0.0000000e+00 -5.3184503e-04 
4.2582495e-05 0.0000000e+00 -5.3890503e-04 
2.8779195e-05 0.0000000e+00 -5.4585299e-04 
-7.1931049e-07 0.0000000e+00 -5.5268896e-04 
-3.0972802e-05 0.0000000e+00 -5.5804919e-04 
-4.6754249e-05 0.0000000e+00 -5.6329742e-04 
-5.0737824e-05 0.0000000e+00 -5.6843355e-04 
-4.5597695e-05 0.0000000e+00 -5.7345768e-04 
-3.4008030e-05 0.0000000e+00 -5.7836977e-04 
-1.8642999e-05 0.0000000e+00 -5.8316981e-04 
-2.1767758e-06 0.0000000e+00 -5.8785785e-04 
1.2716473e-05 0.0000000e+00 -5.9243379e-04 
2.3362578e-05 0.0000000e+00 -5.9689773e-04 
2.7087366e-05 0.0000000e+00 -6.0124963e-04 
2.1216672e-05 0.0000000e+00 -6.0548948e-04 
3.0763233e-06 0.0000000e+00 -6.0961727e-04 
-1.1791003e-05 0.0000000e+00 -6.1226939e-04 
-9.0692320e-06 0.0000000e+00 -6.1480945e-04 
6.7275619e-06 0.0000000e+00 -6.1723747e-04 
3.1085303e-05 0.0000000e+00 -6.1955350e-04 
5.9489921e-05 0.0000000e+00 -6.2175741e-04 
8.7427332e-05 0.0000000e+00 -6.2384934e-04 
1.1038347e-04 0.0000000e+00 -6.2582921e-04 
1.2384426e-04 0.0000000e+00 -6.2769704e-04 
1.2329564e-04 0.0000000e+00 -6.2945287e-04 
1.0422351e-04 0.0000000e+00 -6.3109660e-04 
6.2113810e-05 0.0000000e+00 -6.3262833e-04 
-7.5475396e-06 0.0000000e+00 -6.3404802e-04 
ROTATION 3 212  float
0.0000000e+00 -1.0325925e-04 0.0000000e+00 
0.0000000e+00 -1.0113579e-04 0.0000000e+00 
0.0000000e+00 -9.4765397e-05 0.0000000e+00 
0.0000000e+00 -8.4148087e-05 0.0000000e+00 
0.0000000e+00 -6.9283858e-05 0.0000000e+00 
0.0000000e+00 -5.0172697e-05 0.0000000e+00 
0.0000000e+00 -2.6814614e-05 0.0000000e+00 
0.0000000e+00 7.9039381e-07 0.0000000e+00 
0.0000000e+00 3.2642325e-05 0.0000000e+00 
0.0000000e+00 6.8741181e-05 0.0000000e+00 
0.0000000e+00 1.0908696e-04 0.0000000e+00 
0.0000000e+00 1.5367966e-04 0.0000000e+00 
0.0000000e+00 2.0251930e-04 0.0000000e+00 
0.0000000e+00 1.2068935e-04 0.0000000e+00 
0.0000000e+00 5.2673797e-05 0.0000000e+00 
0.0000000e+00 -1.5273652e-06 0.0000000e+00 
0.0000000e+00 -4.1914136e-05 0.0000000e+00 
0.0000000e+00 -6.8486515e-05 0.0000000e+00 
0.0000000e+00 -8.1244507e-05 0.0000000e+00 
0.0000000e+00 -8.0188103e-05 0.0000000e+00 
0.0000000e+00 -6.5317312e-05 0.0000000e+00 
0.0000000e+00 -3.6632129e-05 0.0000000e+00 
0.0000000e+00 5.8674427e-06 0.0000000e+00 
0.0000000e+00 6.2181403e-05 0.0000000e+00 
0.0000000e+00 1.3230977e-04 0.0000000e+00 
0.0000000e+00 6.9593458e-05 0.0000000e+00 
0.0000000e+00 1.8475497e-05 0.0000000e+00 
0.0000000e+00 -2.1044125e-05 0.0000000e+00 
0.0000000e+00 -4.8965408e-05 0.0000000e+00 
0.0000000e+00 -6.5288346e-05 0.0000000e+00 
0.0000000e+00 -7.0012953e-05 0.0000000e+00 
0.0000000e+00 -6.3139210e-05 0.0000000e+00 
0.0000000e+00 -4.4667133e-05 0.0000000e+00 
0.0000000e+00 -1.4596712e-05 0.0000000e+00 
0.0000000e+00 2.7072047e-05 0.0000000e+00 
0.0000000e+00 8.0339145e-05 0.0000000e+00 
0.0000000e+00 1.4520458e-04 0.0000000e+00 
0.0000000e+00 7.7601500e-05 0.0000000e+00 
0.0000000e+00 2.2415932e-05 0.0000000e+00 
0.0000000e+00 -2.0352121e-05 0.0000000e+00 
0.0000000e+00 -5.0702660e-05 0.0000000e+00 
0.0000000e+00 -6.8635680e-05 0.0000000e+00 
0.0000000e+00 -7.4151190e-05 0.0000000e+00 
0.0000000e+00 -6.7249173e-05 0.0000000e+00 
0.0000000e+00 -4.7929650e-05 0.0000000e+00 
0.0000000e+00 -1.6192609e-05 0.0000000e+00 
0.0000000e+00 2.7961949e-05 0.0000000e+00 
0.0000000e+00 8.4534026e-05 0.0000000e+00 
0.0000000e+00 1.5352361e-04 0.0000000e+00 
0.0000000e+00 9.0287096e-05 0.0000000e+00 
0.0000000e+00 3.7747264e-05 0.0000000e+00 
0.0000000e+00 -4.0958926e-06 0.0000000e+00 
0.0000000e+00 -3.5242370e-05 0.0000000e+00 
0.0000000e+00 -5.5692166e-05 0.0000000e+00 
0.0000000e+00 -6.5445289e-05 0.0000000e+00 
0.0000000e+00 -6.4501728e-05 0.0000000e+00 
0.0000000e+00 -5.2861487e-05 0.0000000e+00 
0.0000000e+00 -3.0524567e-05 0.0000000e+00 
0.0000000e+00 2.5090305e-06 0.0000000e+00 
0.0000000e+00 4.6239307e-05 0.0000000e+00 
0.0000000e+00 1.0066626e-04 0.0000000e+00 
0.0000000e+00 2.1281727e-05 0.0000000e+00 
0.0000000e+00 -4.0046511e-05 0.0000000e+00 
0.0000000e+00 -8.3318453e-05 0.0000000e+00 
0.0000000e+00 -1.0853410e-04 0.0000000e+00 
0.0000000e+00 -1.1569344e-04 0.0000000e+00 
0.0000000e+00 -1.0479650e-04 0.0000000e+00 
0.0000000e+00 -7.5843251e-05 0.0000000e+00 
0.0000000e+00 -2.8833705e-05 0.0000000e+00 
0.0000000e+00 3.6232137e-05 0.0000000e+00 
0.0000000e+00 1.1935428e-04 0.0000000e+00 
0.0000000e+00 2.2053272e-04 0.0000000e+00 
0.0000000e+00 3.3976746e-04 0.0000000e+00 
0.0000000e+00 4.0800407e-04 0.0000000e+00 
0.0000000e+00 3.4949611e-04 0.0000000e+00 
0.0000000e+00 3.6024180e-04 0.0000000e+00 
0.0000000e+00 3.6717433e-04 0.0000000e+00 
0.0000000e+00 3.2312653e-04 0.0000000e+00 
0.0000000e+00 5.2237749e-04 0.0000000e+00 
0.0000000e+00 4.8299538e-04 0.0000000e+00 
0.0000000e+00 4.3618903e-04 0.0000000e+00 
0.0000000e+00 4.4478558e-04 0.0000000e+00 
0.0000000e+00 4.5033160e-04 0.0000000e+00 
0.0000000e+00 4.1509335e-04 0.0000000e+00 
0.0000000e+00 5.7449413e-04 0.0000000e+00 
0.0000000e+00 4.5359196e-04 0.0000000e+00 
0.0000000e+00 4.1848718e-04 0.0000000e+00 
0.0000000e+00 4.2493461e-04 0.0000000e+00 
0.0000000e+00 4.2909410e-04 0.0000000e+00 
0.0000000e+00 4.0266544e-04 0.0000000e+00 
0.0000000e+00 5.2221603e-04 0.0000000e+00 
0.0000000e+00 3.4589245e-04 0.0000000e+00 
0.0000000e+00 3.2248927e-04 0.0000000e+00 
0.0000000e+00 3.2678756e-04 0.0000000e+00 
0.0000000e+00 3.2956054e-04 0.0000000e+00 
0.0000000e+00 3.1194143e-04 0.0000000e+00 
0.0000000e+00 3.9164184e-04 0.0000000e+00 
0.0000000e+00 1.8599557e-04 0.0000000e+00 
0.0000000e+00 1.7429398e-04 0.0000000e+00 
0.0000000e+00 1.7644312e-04 0.0000000e+00 
0.0000000e+00 1.7782963e-04 0.0000000e+00 
0.0000000e+00 1.6902006e-04 0.0000000e+00 
0.0000000e+00 2.0887026e-04 0.0000000e+00 
0.0000000e+00 2.8715595e-17 0.0000000e+00 
0.0000000e+00 2.2733180e-17 0.0000000e+00 
0.0000000e+00 2.8715595e-17 0.0000000e+00 
0.0000000e+00 1.6750765e-17 0.0000000e+00 
0.0000000e+00 2.3929663e-17 0.0000000e+00 
0.0000000e+00 4.2357414e-17 0.0000000e+00 
0.0000000e+00 -1.8599557e-04 0.0000000e+00 
0.0000000e+00 -1.7429398e-04 0.0000000e+00 
0.0000000e+00 -1.7644312e-04 0.0000000e+00 
0.0000000e+00 -1.7782963e-04 0.0000000e+00 
0.0000000e+00 -1.6902006e-04 0.0000000e+00 
0.0000000e+00 -2.0887026e-04 0.0000000e+00 
0.0000000e+00 -3.4589245e-04 0.0000000e+00 
0.0000000e+00 -3.2248927e-04 0.0000000e+00 
0.0000000e+00 -3.2678756e-04 0.0000000e+00 
0.0000000e+00 -3.2956054e-04 0.0000000e+00 
0.0000000e+00 -3.1194143e-04 0.0000000e+00 
0.0000000e+00 -3.9164184e-04 0.0000000e+00 
0.0000000e+00 -4.5359196e-04 0.0000000e+00 
0.0000000e+00 -4.1848718e-04 0.0000000e+00 
0.0000000e+00 -4.2493461e-04 0.0000000e+00 
0.0000000e+00 -4.2909410e-04 0.0000000e+00 
0.0000000e+00 -4.0266544e-04 0.0000000e+00 
0.0000000e+00 -5.2221603e-04 0.0000000e+00 
0.0000000e+00 -4.8299538e-04 0.0000000e+00 
0.0000000e+00 -4.3618903e-04 0.0000000e+00 
0.0000000e+00 -4.4478558e-04 0.0000000e+00 
0.0000000e+00 -4.5033160e-04 0.0000000e+00 
0.0000000e+00 -4.1509335e-04 0.0000000e+00 
0.0000000e+00 -5.7449413e-04 0.0000000e+00 
0.0000000e+00 -4.0800407e-04 0.0000000e+00 
0.0000000e+00 -3.4949611e-04 0.0000000e+00 
0.0000000e+00 -3.6024180e-04 0.0000000e+00 
0.0000000e+00 -3.6717433e-04 0.0000000e+00 
0.0000000e+00 -3.2312653e-04 0.0000000e+00 
0.0000000e+00 -5.2237749e-04 0.0000000e+00 
0.0000000e+00 1.0325925e-04 0.0000000e+00 
0.0000000e+00 1.0113579e-04 0.0000000e+00 
0.0000000e+00 9.4765397e-05 0.0000000e+00 
0.0000000e+00 8.4148087e-05 0.0000000e+00 
0.0000000e+00 6.9283858e-05 0.0000000e+00 
0.0000000e+00 5.0172697e-05 0.0000000e+00 
0.0000000e+00 2.6814614e-05 0.0000000e+00 
0.0000000e+00 -7.9039381e-07 0.0000000e+00 
0.0000000e+00 -3.2642325e-05 0.0000000e+00 
0.0000000e+00 -6.8741181e-05 0.0000000e+00 
0.0000000e+00 -1.0908696e-04 0.0000000e+00 
0.0000000e+00 -1.5367966e-04 0.0000000e+00 
0.0000000e+00 -2.0251930e-04 0.0000000e+00 
0.0000000e+00 -1.2068935e-04 0.0000000e+00 
0.0000000e+00 -5.2673797e-05 0.0000000e+00 
0.0000000e+00 1.5273652e-06 0.0000000e+00 
0.0000000e+00 4.1914136e-05 0.0000000e+00 
0.0000000e+00 6.8486515e-05 0.0000000e+00 
0.0000000e+00 8.1244507e-05 0.0000000e+00 
0.0000000e+00 8.0188103e-05 0.0000000e+00 
0.0000000e+00 6.5317312e-05 0.0000000e+00 
0.0000000e+00 3.6632129e-05 0.0000000e+00 
0.0000000e+00 -5.8674427e-06 0.0000000e+00 
0.0000000e+00 -6.2181403e-05 0.0000000e+00 
0.0000000e+00 -1.3230977e-04 0.0000000e+00 
0.0000000e+00 -6.9593458e-05 0.0000000e+00 
0.0000000e+00 -1.8475497e-05 0.0000000e+00 
0.0000000e+00 2.1044125e-05 0.0000000e+00 
0.0000000e+00 4.8965408e-05 0.0000000e+00 
0.0000000e+00 6.5288346e-05 0.0000000e+00 
0.0000000e+00 7.0012953e-05 0.0000000e+00 
0.0000000e+00 6.3139210e-05 0.0000000e+00 
0.0000000e+00 4.4667133e-05 0.0000000e+00 
0.0000000e+00 1.4596712e-05 0.0000000e+00 
0.0000000e+00 -2.7072047e-05 0.0000000e+00 
0.0000000e+00 -8.0339145e-05 0.0000000e+00 
0.0000000e+00 -1.4520458e-04 0.0000000e+00 
0.0000000e+00 -7.7601500e-05 0.0000000e+00 
0.0000000e+00 -2.2415932e-05 0.0000000e+00 
0.0000000e+00 2.0352121e-05 0.0000000e+00 
0.0000000e+00 5.0702660e-05 0.0000000e+00 
0.0000000e+00 6.8635680e-05 0.0000000e+00 
0.0000000e+00 7.4151190e-05 0.0000000e+00 
0.0000000e+00 6.7249173e-05 0.0000000e+00 
0.0000000e+00 4.7929650e-05 0.0000000e+00 
0.0000000e+00 1.6192609e-05 0.0000000e+00 
0.0000000e+00 -2.7961949e-05 0.0000000e+00 
0.0000000e+00 -8.4534026e-05 0.0000000e+00 
0.0000000e+00 -1.5352361e-04 0.0000000e+00 
0.0000000e+00 -9.0287096e-05 0.0000000e+00 
0.0000000e+00 -3.7747264e-05 0.0000000e+00 
0.0000000e+00 4.0958926e-06 0.0000000e+00 
0.0000000e+00 3.5242370e-05 0.0000000e+00 
0.0000000e+00 5.5692166e-05 0.0000000e+00 
0.0000000e+00 6.5445289e-05 0.0000000e+00 
0.0000000e+00 6.4501728e-05 0.0000000e+00 
0.0000000e+00 5.2861487e-05 0.0000000e+00 
0.0000000e+00 3.0524567e-05 0.0000000e+00 
0.0000000e+00 -2.5090305e-06 0.0000000e+00 
0.0000000e+00 -4.6239307e-05 0.0000000e+00 
0.0000000e+00 -1.0066626e-04 0.0000000e+00 
0.0000000e+00 -2.1281727e-05 0.0000000e+00 
0.0000000e+00 4.0046511e-05 0.0000000e+00 
0.0000000e+00 8.3318453e-05 0.0000000e+00 
0.0000000e+00 1.0853410e-04 0.0000000e+00 