# vtk DataFile Version 4.0
vtk output
ASCII
DATASET UNSTRUCTURED_GRID
POINTS 212 float
0.0000000e+00 0.0000000e+00 0.0000000e+00 
0.0000000e+00 0.0000000e+00 2.5000000e-01 
0.0000000e+00 0.0000000e+00 5.0000000e-01 
0.0000000e+00 0.0000000e+00 7.5000000e-01 
0.0000000e+00 0.0000000e+00 1.0000000e+00 
0.0000000e+00 0.0000000e+00 1.2500000e+00 
0.0000000e+00 0.0000000e+00 1.5000000e+00 
0.0000000e+00 0.0000000e+00 1.7500000e+00 
0.0000000e+00 0.0000000e+00 2.0000000e+00 
0.0000000e+00 0.0000000e+00 2.2500000e+00 
0.0000000e+00 0.0000000e+00 2.5000000e+00 
0.0000000e+00 0.0000000e+00 2.7500000e+00 
0.0000000e+00 0.0000000e+00 3.0000000e+00 
0.0000000e+00 0.0000000e+00 3.2500000e+00 
0.0000000e+00 0.0000000e+00 3.5000000e+00 
0.0000000e+00 0.0000000e+00 3.7500000e+00 
0.0000000e+00 0.0000000e+00 4.0000000e+00 
0.0000000e+00 0.0000000e+00 4.2500000e+00 
0.0000000e+00 0.0000000e+00 4.5000000e+00 
0.0000000e+00 0.0000000e+00 4.7500000e+00 
0.0000000e+00 0.0000000e+00 5.0000000e+00 
0.0000000e+00 0.0000000e+00 5.2500000e+00 
0.0000000e+00 0.0000000e+00 5.5000000e+00 
0.0000000e+00 0.0000000e+00 5.7500000e+00 
0.0000000e+00 0.0000000e+00 6.0000000e+00 
0.0000000e+00 0.0000000e+00 6.2500000e+00 
0.0000000e+00 0.0000000e+00 6.5000000e+00 
0.0000000e+00 0.0000000e+00 6.7500000e+00 
0.0000000e+00 0.0000000e+00 7.0000000e+00 
0.0000000e+00 0.0000000e+00 7.2500000e+00 
0.0000000e+00 0.0000000e+00 7.5000000e+00 
0.0000000e+00 0.0000000e+00 7.7500000e+00 
0.0000000e+00 0.0000000e+00 8.0000000e+00 
0.0000000e+00 0.0000000e+00 8.2500000e+00 
0.0000000e+00 0.0000000e+00 8.5000000e+00 
0.0000000e+00 0.0000000e+00 8.7500000e+00 
0.0000000e+00 0.0000000e+00 9.0000000e+00 
0.0000000e+00 0.0000000e+00 9.2500000e+00 
0.0000000e+00 0.0000000e+00 9.5000000e+00 
0.0000000e+00 0.0000000e+00 9.7500000e+00 
0.0000000e+00 0.0000000e+00 1.0000000e+01 
0.0000000e+00 0.0000000e+00 1.0250000e+01 
0.0000000e+00 0.0000000e+00 1.0500000e+01 
0.0000000e+00 0.0000000e+00 1.0750000e+01 
0.0000000e+00 0.0000000e+00 1.1000000e+01 
0.0000000e+00 0.0000000e+00 1.1250000e+01 
0.0000000e+00 0.0000000e+00 1.1500000e+01 
0.0000000e+00 0.0000000e+00 1.1750000e+01 
0.0000000e+00 0.0000000e+00 1.2000000e+01 
0.0000000e+00 0.0000000e+00 1.2250000e+01 
0.0000000e+00 0.0000000e+00 1.2500000e+01 
0.0000000e+00 0.0000000e+00 1.2750000e+01 
0.0000000e+00 0.0000000e+00 1.3000000e+01 
0.0000000e+00 0.0000000e+00 1.3250000e+01 
0.0000000e+00 0.0000000e+00 1.3500000e+01 
0.0000000e+00 0.0000000e+00 1.3750000e+01 
0.0000000e+00 0.0000000e+00 1.4000000e+01 
0.0000000e+00 0.0000000e+00 1.4250000e+01 
0.0000000e+00 0.0000000e+00 1.4500000e+01 
0.0000000e+00 0.0000000e+00 1.4750000e+01 
0.0000000e+00 0.0000000e+00 1.5000000e+01 
0.0000000e+00 0.0000000e+00 1.5250000e+01 
0.0000000e+00 0.0000000e+00 1.5500000e+01 
0.0000000e+00 0.0000000e+00 1.5750000e+01 
0.0000000e+00 0.0000000e+00 1.6000000e+01 
0.0000000e+00 0.0000000e+00 1.6250000e+01 
0.0000000e+00 0.0000000e+00 1.6500000e+01 
0.0000000e+00 0.0000000e+00 1.6750000e+01 
0.0000000e+00 0.0000000e+00 1.7000000e+01 
0.0000000e+00 0.0000000e+00 1.7250000e+01 
0.0000000e+00 0.0000000e+00 1.7500000e+01 
0.0000000e+00 0.0000000e+00 1.7750000e+01 
0.0000000e+00 0.0000000e+00 1.8000000e+01 
6.0000000e+00 0.0000000e+00 0.0000000e+00 
6.0000000e+00 0.0000000e+00 2.5000000e-01 
6.0000000e+00 0.0000000e+00 5.0000000e-01 
6.0000000e+00 0.0000000e+00 7.5000000e-01 
6.0000000e+00 0.0000000e+00 1.0000000e+00 
6.0000000e+00 0.0000000e+00 1.2500000e+00 
6.0000000e+00 0.0000000e+00 1.5000000e+00 
6.0000000e+00 0.0000000e+00 1.7500000e+00 
6.0000000e+00 0.0000000e+00 2.0000000e+00 
6.0000000e+00 0.0000000e+00 2.2500000e+00 
6.0000000e+00 0.0000000e+00 2.5000000e+00 
6.0000000e+00 0.0000000e+00 2.7500000e+00 
6.0000000e+00 0.0000000e+00 3.0000000e+00 
6.0000000e+00 0.0000000e+00 3.2500000e+00 
6.0000000e+00 0.0000000e+00 3.5000000e+00 
6.0000000e+00 0.0000000e+00 3.7500000e+00 
6.0000000e+00 0.0000000e+00 4.0000000e+00 
6.0000000e+00 0.0000000e+00 4.2500000e+00 
6.0000000e+00 0.0000000e+00 4.5000000e+00 
6.0000000e+00 0.0000000e+00 4.7500000e+00 
6.0000000e+00 0.0000000e+00 5.0000000e+00 
6.0000000e+00 0.0000000e+00 5.2500000e+00 
6.0000000e+00 0.0000000e+00 5.5000000e+00 
6.0000000e+00 0.0000000e+00 5.7500000e+00 
6.0000000e+00 0.0000000e+00 6.0000000e+00 
6.0000000e+00 0.0000000e+00 6.2500000e+00 
6.0000000e+00 0.0000000e+00 6.5000000e+00 
6.0000000e+00 0.0000000e+00 6.7500000e+00 
6.0000000e+00 0.0000000e+00 7.0000000e+00 
6.0000000e+00 0.0000000e+00 7.2500000e+00 
6.0000000e+00 0.0000000e+00 7.5000000e+00 
6.0000000e+00 0.0000000e+00 7.7500000e+00 
6.0000000e+00 0.0000000e+00 8.0000000e+00 
6.0000000e+00 0.0000000e+00 8.2500000e+00 
6.0000000e+00 0.0000000e+00 8.5000000e+00 
6.0000000e+00 0.0000000e+00 8.7500000e+00 
6.0000000e+00 0.0000000e+00 9.0000000e+00 
6.0000000e+00 0.0000000e+00 9.2500000e+00 
6.0000000e+00 0.0000000e+00 9.5000000e+00 
6.0000000e+00 0.0000000e+00 9.7500000e+00 
6.0000000e+00 0.0000000e+00 1.0000000e+01 
6.0000000e+00 0.0000000e+00 1.0250000e+01 
6.0000000e+00 0.0000000e+00 1.0500000e+01 
6.0000000e+00 0.0000000e+00 1.0750000e+01 
6.0000000e+00 0.0000000e+00 1.1000000e+01 
6.0000000e+00 0.0000000e+00 1.1250000e+01 
6.0000000e+00 0.0000000e+00 1.1500000e+01 
6.0000000e+00 0.0000000e+00 1.1750000e+01 
6.0000000e+00 0.0000000e+00 1.2000000e+01 
6.0000000e+00 0.0000000e+00 1.2250000e+01 
6.0000000e+00 0.0000000e+00 1.2500000e+01 
6.0000000e+00 0.0000000e+00 1.2750000e+01 
6.0000000e+00 0.0000000e+00 1.3000000e+01 
6.0000000e+00 0.0000000e+00 1.3250000e+01 
6.0000000e+00 0.0000000e+00 1.3500000e+01 
6.0000000e+00 0.0000000e+00 1.3750000e+01 
6.0000000e+00 0.0000000e+00 1.4000000e+01 
6.0000000e+00 0.0000000e+00 1.4250000e+01 
6.0000000e+00 0.0000000e+00 1.4500000e+01 
6.0000000e+00 0.0000000e+00 1.4750000e+01 
6.0000000e+00 0.0000000e+00 1.5000000e+01 
6.0000000e+00 0.0000000e+00 1.5250000e+01 
6.0000000e+00 0.0000000e+00 1.5500000e+01 
6.0000000e+00 0.0000000e+00 1.5750000e+01 
6.0000000e+00 0.0000000e+00 1.6000000e+01 
6.0000000e+00 0.0000000e+00 1.6250000e+01 
6.0000000e+00 0.0000000e+00 1.6500000e+01 
6.0000000e+00 0.0000000e+00 1.6750000e+01 
6.0000000e+00 0.0000000e+00 1.7000000e+01 
6.0000000e+00 0.0000000e+00 1.7250000e+01 
6.0000000e+00 0.0000000e+00 1.7500000e+01 
6.0000000e+00 0.0000000e+00 1.7750000e+01 
6.0000000e+00 0.0000000e+00 1.8000000e+01 
5.0000000e-01 0.0000000e+00 3.0000000e+00 
1.0000000e+00 0.0000000e+00 3.0000000e+00 
1.5000000e+00 0.0000000e+00 3.0000000e+00 
2.0000000e+00 0.0000000e+00 3.0000000e+00 
2.5000000e+00 0.0000000e+00 3.0000000e+00 
3.0000000e+00 0.0000000e+00 3.0000000e+00 
3.5000000e+00 0.0000000e+00 3.0000000e+00 
4.0000000e+00 0.0000000e+00 3.0000000e+00 
4.5000000e+00 0.0000000e+00 3.0000000e+00 
5.0000000e+00 0.0000000e+00 3.0000000e+00 
5.5000000e+00 0.0000000e+00 3.0000000e+00 
5.0000000e-01 0.0000000e+00 6.0000000e+00 
1.0000000e+00 0.0000000e+00 6.0000000e+00 
1.5000000e+00 0.0000000e+00 6.0000000e+00 
2.0000000e+00 0.0000000e+00 6.0000000e+00 
2.5000000e+00 0.0000000e+00 6.0000000e+00 
3.0000000e+00 0.0000000e+00 6.0000000e+00 
3.5000000e+00 0.0000000e+00 6.0000000e+00 
4.0000000e+00 0.0000000e+00 6.0000000e+00 
4.5000000e+00 0.0000000e+00 6.0000000e+00 
5.0000000e+00 0.0000000e+00 6.0000000e+00 
5.5000000e+00 0.0000000e+00 6.0000000e+00 
5.0000000e-01 0.0000000e+00 9.0000000e+00 
1.0000000e+00 0.0000000e+00 9.0000000e+00 
1.5000000e+00 0.0000000e+00 9.0000000e+00 
2.0000000e+00 0.0000000e+00 9.0000000e+00 
2.5000000e+00 0.0000000e+00 9.0000000e+00 
3.0000000e+00 0.0000000e+00 9.0000000e+00 
3.5000000e+00 0.0000000e+00 9.0000000e+00 
4.0000000e+00 0.0000000e+00 9.0000000e+00 
4.5000000e+00 0.0000000e+00 9.0000000e+00 
5.0000000e+00 0.0000000e+00 9.0000000e+00 
5.5000000e+00 0.0000000e+00 9.0000000e+00 
5.0000000e-01 0.0000000e+00 1.2000000e+01 
1.0000000e+00 0.0000000e+00 1.2000000e+01 
1.5000000e+00 0.0000000e+00 1.2000000e+01 
2.0000000e+00 0.0000000e+00 1.2000000e+01 
2.5000000e+00 0.0000000e+00 1.2000000e+01 
3.0000000e+00 0.0000000e+00 1.2000000e+01 
3.5000000e+00 0.0000000e+00 1.2000000e+01 
4.0000000e+00 0.0000000e+00 1.2000000e+01 
4.5000000e+00 0.0000000e+00 1.2000000e+01 
5.0000000e+00 0.0000000e+00 1.2000000e+01 
5.5000000e+00 0.0000000e+00 1.2000000e+01 
5.0000000e-01 0.0000000e+00 1.5000000e+01 
1.0000000e+00 0.0000000e+00 1.5000000e+01 
1.5000000e+00 0.0000000e+00 1.5000000e+01 
2.0000000e+00 0.0000000e+00 1.5000000e+01 
2.5000000e+00 0.0000000e+00 1.5000000e+01 
3.0000000e+00 0.0000000e+00 1.5000000e+01 
3.5000000e+00 0.0000000e+00 1.5000000e+01 
4.0000000e+00 0.0000000e+00 1.5000000e+01 
4.5000000e+00 0.0000000e+00 1.5000000e+01 
5.0000000e+00 0.0000000e+00 1.5000000e+01 
5.5000000e+00 0.0000000e+00 1.5000000e+01 
5.0000000e-01 0.0000000e+00 1.8000000e+01 
1.0000000e+00 0.0000000e+00 1.8000000e+01 
1.5000000e+00 0.0000000e+00 1.8000000e+01 
2.0000000e+00 0.0000000e+00 1.8000000e+01 
2.5000000e+00 0.0000000e+00 1.8000000e+01 
3.0000000e+00 0.0000000e+00 1.8000000e+01 
3.5000000e+00 0.0000000e+00 1.8000000e+01 
4.0000000e+00 0.0000000e+00 1.8000000e+01 
4.5000000e+00 0.0000000e+00 1.8000000e+01 
5.0000000e+00 0.0000000e+00 1.8000000e+01 
5.5000000e+00 0.0000000e+00 1.8000000e+01 

CELLS 216 648
2 0 1
2 1 2
2 2 3
2 3 4
2 4 5
2 5 6
2 6 7
2 7 8
2 8 9
2 9 10
2 10 11
2 11 12
2 12 13
2 13 14
2 14 15
2 15 16
2 16 17
2 17 18
2 18 19
2 19 20
2 20 21
2 21 22
2 22 23
2 23 24
2 24 25
2 25 26
2 26 27
2 27 28
2 28 29
2 29 30
2 30 31
2 31 32
2 32 33
2 33 34
2 34 35
2 35 36
2 36 37
2 37 38
2 38 39
2 39 40
2 40 41
2 41 42
2 42 43
2 43 44
2 44 45
2 45 46
2 46 47
2 47 48
2 48 49
2 49 50
2 50 51
2 51 52
2 52 53
2 53 54
2 54 55
2 55 56
2 56 57
2 57 58
2 58 59
2 59 60
2 60 61
2 61 62
2 62 63
2 63 64
2 64 65
2 65 66
2 66 67
2 67 68
2 68 69
2 69 70
2 70 71
2 71 72
2 73 74
2 74 75
2 75 76
2 76 77
2 77 78
2 78 79
2 79 80
2 80 81
2 81 82
2 82 83
2 83 84
2 84 85
2 85 86
2 86 87
2 87 88
2 88 89
2 89 90
2 90 91
2 91 92
2 92 93
2 93 94
2 94 95
2 95 96
2 96 97
2 97 98
2 98 99
2 99 100
2 100 101
2 101 102
2 102 103
2 103 104
2 104 105
2 105 106
2 106 107
2 107 108
2 108 109
2 109 110
2 110 111
2 111 112
2 112 113
2 113 114
2 114 115
2 115 116
2 116 117
2 117 118
2 118 119
2 119 120
2 120 121
2 121 122
2 122 123
2 123 124
2 124 125
2 125 126
2 126 127
2 127 128
2 128 129
2 129 130
2 130 131
2 131 132
2 132 133
2 133 134
2 134 135
2 135 136
2 136 137
2 137 138
2 138 139
2 139 140
2 140 141
2 141 142
2 142 143
2 143 144
2 144 145
2 12 146
2 146 147
2 147 148
2 148 149
2 149 150
2 150 151
2 151 152
2 152 153
2 153 154
2 154 155
2 155 156
2 156 85
2 24 157
2 157 158
2 158 159
2 159 160
2 160 161
2 161 162
2 162 163
2 163 164
2 164 165
2 165 166
2 166 167
2 167 97
2 36 168
2 168 169
2 169 170
2 170 171
2 171 172
2 172 173
2 173 174
2 174 175
2 175 176
2 176 177
2 177 178
2 178 109
2 48 179
2 179 180
2 180 181
2 181 182
2 182 183
2 183 184
2 184 185
2 185 186
2 186 187
2 187 188
2 188 189
2 189 121
2 60 190
2 190 191
2 191 192
2 192 193
2 193 194
2 194 195
2 195 196
2 196 197
2 197 198
2 198 199
2 199 200
2 200 133
2 72 201
2 201 202
2 202 203
2 203 204
2 204 205
2 205 206
2 206 207
2 207 208
2 208 209
2 209 210
2 210 211
2 211 145

CELL_TYPES 216
3
3
3
3
3
3
3
3
3
3
3
3
3
3
3
3
3
3
3
3
3
3
3
3
3
3
3
3
3
3
3
3
3
3
3
3
3
3
3
3
3
3
3
3
3
3
3
3
3
3
3
3
3
3
3
3
3
3
3
3
3
3
3
3
3
3
3
3
3
3
3
3
3
3
3
3
3
3
3
3
3
3
3
3
3
3
3
3
3
3
3
3
3
3
3
3
3
3
3
3
3
3
3
3
3
3
3
3
3
3
3
3
3
3
3
3
3
3
3
3
3
3
3
3
3
3
3
3
3
3
3
3
3
3
3
3
3
3
3
3
3
3
3
3
3
3
3
3
3
3
3
3
3
3
3
3
3
3
3
3
3
3
3
3
3
3
3
3
3
3
3
3
3
3
3
3
3
3
3
3
3
3
3
3
3
3
3
3
3
3
3
3
3
3
3
3
3
3
3
3
3
3
3
3
3
3
3
3
3
3
3
3
3
3
3
3
POINT_DATA 212
FIELD FieldData 7
DISPLACEMENT 3 212  float
0.0000000e+00 0.0000000e+00 0.0000000e+00 
-2.2403714e-04 0.0000000e+00 -9.1563112e-07 
-4.3867558e-04 0.0000000e+00 -1.8312622e-06 
-6.3451659e-04 0.0000000e+00 -2.7468934e-06 
-8.0216146e-04 0.0000000e+00 -3.6625245e-06 
-9.3221158e-04 0.0000000e+00 -4.5781553e-06 
-1.0152681e-03 0.0000000e+00 -5.4937868e-06 
-1.0419324e-03 0.0000000e+00 -6.4094179e-06 
-1.0028058e-03 0.0000000e+00 -7.3250490e-06 
-8.8848942e-04 0.0000000e+00 -8.2406796e-06 
-6.8958476e-04 0.0000000e+00 -9.1563106e-06 
-3.9669307e-04 0.0000000e+00 -1.0071942e-05 
-4.1554685e-07 0.0000000e+00 -1.0987574e-05 
3.5618947e-04 0.0000000e+00 -1.1750599e-05 
5.4449250e-04 0.0000000e+00 -1.2513625e-05 
5.9553527e-04 0.0000000e+00 -1.3276651e-05 
5.4035953e-04 0.0000000e+00 -1.4039677e-05 
4.1000711e-04 0.0000000e+00 -1.4802703e-05 
2.3551976e-04 0.0000000e+00 -1.5565729e-05 
4.7939258e-05 0.0000000e+00 -1.6328755e-05 
-1.2169265e-04 0.0000000e+00 -1.7091781e-05 
-2.4233416e-04 0.0000000e+00 -1.7854807e-05 
-2.8294354e-04 0.0000000e+00 -1.8617833e-05 
-2.1247896e-04 0.0000000e+00 -1.9380859e-05 
1.0129274e-07 0.0000000e+00 -2.0143883e-05 
2.2234903e-04 0.0000000e+00 -2.0754305e-05 
3.1829890e-04 0.0000000e+00 -2.1364725e-05 
3.1371703e-04 0.0000000e+00 -2.1975147e-05 
2.3436952e-04 0.0000000e+00 -2.2585567e-05 
1.0602249e-04 0.0000000e+00 -2.3195988e-05 
-4.5557965e-05 0.0000000e+00 -2.3806409e-05 
-1.9460573e-04 0.0000000e+00 -2.4416830e-05 
-3.1535470e-04 0.0000000e+00 -2.5027250e-05 
-3.8203879e-04 0.0000000e+00 -2.5637672e-05 
-3.6889184e-04 0.0000000e+00 -2.6248092e-05 
-2.5014777e-04 0.0000000e+00 -2.6858512e-05 
-4.0481869e-08 0.0000000e+00 -2.7468934e-05 
2.4620318e-04 0.0000000e+00 -2.7926748e-05 
3.5476199e-04 0.0000000e+00 -2.8384564e-05 
3.5351046e-04 0.0000000e+00 -2.8842380e-05 
2.7032313e-04 0.0000000e+00 -2.9300196e-05 
1.3307456e-04 0.0000000e+00 -2.9758010e-05 
-3.0360708e-05 0.0000000e+00 -3.0215826e-05 
-1.9210816e-04 0.0000000e+00 -3.0673640e-05 
-3.2429321e-04 0.0000000e+00 -3.1131458e-05 
-3.9904137e-04 0.0000000e+00 -3.1589272e-05 
-3.8847810e-04 0.0000000e+00 -3.2047090e-05 
-2.6472882e-04 0.0000000e+00 -3.2504904e-05 
8.1007428e-08 0.0000000e+00 -3.2962718e-05 
2.7262224e-04 0.0000000e+00 -3.3267930e-05 
4.1675306e-04 0.0000000e+00 -3.3573142e-05 
4.5612882e-04 0.0000000e+00 -3.3878350e-05 
4.1440493e-04 0.0000000e+00 -3.4183562e-05 
3.1523686e-04 0.0000000e+00 -3.4488770e-05 
1.8227992e-04 0.0000000e+00 -3.4793982e-05 
3.9189588e-05 0.0000000e+00 -3.5099194e-05 
-9.0378766e-05 0.0000000e+00 -3.5404402e-05 
-1.8276974e-04 0.0000000e+00 -3.5709614e-05 
-2.1432791e-04 0.0000000e+00 -3.6014822e-05 
-1.6139790e-04 0.0000000e+00 -3.6320034e-05 
-3.2427488e-07 0.0000000e+00 -3.6625243e-05 
1.2979607e-04 0.0000000e+00 -3.6777848e-05 
1.0112580e-04 0.0000000e+00 -3.6930454e-05 
-4.5790359e-05 0.0000000e+00 -3.7083060e-05 
-2.7040768e-04 0.0000000e+00 -3.7235666e-05 
-5.3218147e-04 0.0000000e+00 -3.7388269e-05 
-7.9056690e-04 0.0000000e+00 -3.7540874e-05 
-1.0050194e-03 0.0000000e+00 -3.7693480e-05 
-1.1349942e-03 0.0000000e+00 -3.7846086e-05 
-1.1399465e-03 0.0000000e+00 -3.7998692e-05 
-9.7933167e-04 0.0000000e+00 -3.8151295e-05 
-6.1260490e-04 0.0000000e+00 -3.8303901e-05 
7.7845868e-07 0.0000000e+00 -3.8456506e-05 
0.0000000e+00 0.0000000e+00 0.0000000e+00 
2.2403714e-04 0.0000000e+00 -9.1563112e-07 
4.3867558e-04 0.0000000e+00 -1.8312622e-06 
6.3451659e-04 0.0000000e+00 -2.7468934e-06 
8.0216146e-04 0.0000000e+00 -3.6625245e-06 
9.3221158e-04 0.0000000e+00 -4.5781553e-06 
1.0152681e-03 0.0000000e+00 -5.4937868e-06 
1.0419324e-03 0.0000000e+00 -6.4094179e-06 
1.0028058e-03 0.0000000e+00 -7.3250490e-06 
8.8848942e-04 0.0000000e+00 -8.2406796e-06 
6.8958476e-04 0.0000000e+00 -9.1563106e-06 
3.9669307e-04 0.0000000e+00 -1.0071942e-05 
4.1554685e-07 0.0000000e+00 -1.0987574e-05 
-3.5618947e-04 0.0000000e+00 -1.1750599e-05 
-5.4449250e-04 0.0000000e+00 -1.2513625e-05 
-5.9553527e-04 0.0000000e+00 -1.3276651e-05 
-5.4035953e-04 0.0000000e+00 -1.4039677e-05 
-4.1000711e-04 0.0000000e+00 -1.4802703e-05 
-2.3551976e-04 0.0000000e+00 -1.5565729e-05 
-4.7939258e-05 0.0000000e+00 -1.6328755e-05 
1.2169265e-04 0.0000000e+00 -1.7091781e-05 
2.4233416e-04 0.0000000e+00 -1.7854807e-05 
2.8294354e-04 0.0000000e+00 -1.8617833e-05 
2.1247896e-04 0.0000000e+00 -1.9380859e-05 
-1.0129272e-07 0.0000000e+00 -2.0143883e-05 
-2.2234903e-04 0.0000000e+00 -2.0754305e-05 
-3.1829890e-04 0.0000000e+00 -2.1364725e-05 
-3.1371703e-04 0.0000000e+00 -2.1975147e-05 
-2.3436952e-04 0.0000000e+00 -2.2585567e-05 
-1.0602249e-04 0.0000000e+00 -2.3195988e-05 
4.5557965e-05 0.0000000e+00 -2.3806409e-05 
1.9460573e-04 0.0000000e+00 -2.4416830e-05 
3.1535470e-04 0.0000000e+00 -2.5027250e-05 
3.8203879e-04 0.0000000e+00 -2.5637672e-05 
3.6889184e-04 0.0000000e+00 -2.6248092e-05 
2.5014777e-04 0.0000000e+00 -2.6858512e-05 
4.0481893e-08 0.0000000e+00 -2.7468934e-05 
-2.4620318e-04 0.0000000e+00 -2.7926748e-05 
-3.5476199e-04 0.0000000e+00 -2.8384564e-05 
-3.5351046e-04 0.0000000e+00 -2.8842380e-05 
-2.7032313e-04 0.0000000e+00 -2.9300196e-05 
-1.3307456e-04 0.0000000e+00 -2.9758010e-05 
3.0360708e-05 0.0000000e+00 -3.0215826e-05 
1.9210816e-04 0.0000000e+00 -3.0673640e-05 
3.2429321e-04 0.0000000e+00 -3.1131458e-05 
3.9904137e-04 0.0000000e+00 -3.1589272e-05 
3.8847810e-04 0.0000000e+00 -3.2047090e-05 
2.6472882e-04 0.0000000e+00 -3.2504904e-05 
-8.1007400e-08 0.0000000e+00 -3.2962718e-05 
-2.7262224e-04 0.0000000e+00 -3.3267930e-05 
-4.1675306e-04 0.0000000e+00 -3.3573142e-05 
-4.5612882e-04 0.0000000e+00 -3.3878350e-05 
-4.1440493e-04 0.0000000e+00 -3.4183562e-05 
-3.1523686e-04 0.0000000e+00 -3.4488770e-05 
-1.8227992e-04 0.0000000e+00 -3.4793982e-05 
-3.9189588e-05 0.0000000e+00 -3.5099194e-05 
9.0378766e-05 0.0000000e+00 -3.5404402e-05 
1.8276974e-04 0.0000000e+00 -3.5709614e-05 
2.1432791e-04 0.0000000e+00 -3.6014822e-05 
1.6139790e-04 0.0000000e+00 -3.6320034e-05 
3.2427494e-07 0.0000000e+00 -3.6625243e-05 
-1.2979607e-04 0.0000000e+00 -3.6777848e-05 
-1.0112580e-04 0.0000000e+00 -3.6930454e-05 
4.5790359e-05 0.0000000e+00 -3.7083060e-05 
2.7040768e-04 0.0000000e+00 -3.7235666e-05 
5.3218147e-04 0.0000000e+00 -3.7388269e-05 
7.9056690e-04 0.0000000e+00 -3.7540874e-05 
1.0050194e-03 0.0000000e+00 -3.7693480e-05 
1.1349942e-03 0.0000000e+00 -3.7846086e-05 
1.1399465e-03 0.0000000e+00 -3.7998692e-05 
9.7933167e-04 0.0000000e+00 -3.8151295e-05 
6.1260490e-04 0.0000000e+00 -3.8303901e-05 
-7.7845863e-07 0.0000000e+00 -3.8456506e-05 
-3.4628903e-07 0.0000000e+00 -1.4298445e-03 
-2.7703123e-07 0.0000000e+00 -3.4711419e-03 
-2.0777341e-07 0.0000000e+00 -5.6066313e-03 
-1.3851560e-07 0.0000000e+00 -7.4254521e-03 
-6.9257801e-08 0.0000000e+00 -8.6341333e-03 
6.0176689e-15 0.0000000e+00 -9.0565924e-03 
6.9257815e-08 0.0000000e+00 -8.6341333e-03 
1.3851562e-07 0.0000000e+00 -7.4254521e-03 
2.0777343e-07 0.0000000e+00 -5.6066313e-03 
2.7703123e-07 0.0000000e+00 -3.4711419e-03 
3.4628906e-07 0.0000000e+00 -1.4298445e-03 
8.4410622e-08 0.0000000e+00 -1.1509513e-03 
6.7528497e-08 0.0000000e+00 -2.9565718e-03 
5.0646374e-08 0.0000000e+00 -4.9087568e-03 
3.3764252e-08 0.0000000e+00 -6.5966463e-03 
1.6882131e-08 0.0000000e+00 -7.7267685e-03 
9.5030676e-15 0.0000000e+00 -8.1230402e-03 
-1.6882112e-08 0.0000000e+00 -7.7267685e-03 
-3.3764234e-08 0.0000000e+00 -6.5966463e-03 
-5.0646356e-08 0.0000000e+00 -4.9087568e-03 
-6.7528475e-08 0.0000000e+00 -2.9565718e-03 
-8.4410601e-08 0.0000000e+00 -1.1509513e-03 
-3.3734889e-08 0.0000000e+00 -1.2139954e-03 
-2.6987909e-08 0.0000000e+00 -3.0652042e-03 
-2.0240929e-08 0.0000000e+00 -5.0528469e-03 
-1.3493948e-08 0.0000000e+00 -6.7660632e-03 
-6.7469683e-09 0.0000000e+00 -7.9113813e-03 
1.2027651e-14 0.0000000e+00 -8.3127189e-03 
6.7469923e-09 0.0000000e+00 -7.9113813e-03 
1.3493972e-08 0.0000000e+00 -6.7660632e-03 
2.0240952e-08 0.0000000e+00 -5.0528469e-03 
2.6987932e-08 0.0000000e+00 -3.0652042e-03 
3.3734914e-08 0.0000000e+00 -1.2139954e-03 
6.7506193e-08 0.0000000e+00 -1.2566216e-03 
5.4004953e-08 0.0000000e+00 -3.1382113e-03 
4.0503721e-08 0.0000000e+00 -5.1494837e-03 
2.7002486e-08 0.0000000e+00 -6.8795783e-03 
1.3501250e-08 0.0000000e+00 -8.0350237e-03 
1.4399584e-14 0.0000000e+00 -8.4397364e-03 
-1.3501221e-08 0.0000000e+00 -8.0350237e-03 
-2.7002455e-08 0.0000000e+00 -6.8795783e-03 
-4.0503693e-08 0.0000000e+00 -5.1494837e-03 
-5.4004925e-08 0.0000000e+00 -3.1382113e-03 
-6.7506164e-08 0.0000000e+00 -1.2566216e-03 
-2.7022907e-07 0.0000000e+00 -1.0373488e-03 
-2.1618325e-07 0.0000000e+00 -2.7365370e-03 
-1.6213744e-07 0.0000000e+00 -4.6059415e-03 
-1.0809162e-07 0.0000000e+00 -6.2347017e-03 
-5.4045803e-08 0.0000000e+00 -7.3293466e-03 
1.6782723e-14 0.0000000e+00 -7.7137933e-03 
5.4045834e-08 0.0000000e+00 -7.3293466e-03 
1.0809165e-07 0.0000000e+00 -6.2347017e-03 
1.6213747e-07 0.0000000e+00 -4.6059415e-03 
2.1618330e-07 0.0000000e+00 -2.7365370e-03 
2.7022909e-07 0.0000000e+00 -1.0373488e-03 
6.4871557e-07 0.0000000e+00 -2.0057061e-03 
5.1897246e-07 0.0000000e+00 -4.4956882e-03 
3.8922934e-07 0.0000000e+00 -6.9801547e-03 
2.5948623e-07 0.0000000e+00 -9.0482449e-03 
1.2974313e-07 0.0000000e+00 -1.0406488e-02 
1.7851455e-14 0.0000000e+00 -1.0878800e-02 
-1.2974309e-07 0.0000000e+00 -1.0406488e-02 
-2.5948620e-07 0.0000000e+00 -9.0482449e-03 
-3.8922931e-07 0.0000000e+00 -6.9801547e-03 
-5.1897240e-07 0.0000000e+00 -4.4956882e-03 
-6.4871551e-07 0.0000000e+00 -2.0057061e-03 
ROTATION 3 212  float
0.0000000e+00 -9.0241438e-04 0.0000000e+00 
0.0000000e+00 -8.8361697e-04 0.0000000e+00 
0.0000000e+00 -8.2722469e-04 0.0000000e+00 
0.0000000e+00 -7.3323766e-04 0.0000000e+00 
0.0000000e+00 -6.0165575e-04 0.0000000e+00 
0.0000000e+00 -4.3247902e-04 0.0000000e+00 
0.0000000e+00 -2.2570748e-04 0.0000000e+00 
0.0000000e+00 1.8658899e-05 0.0000000e+00 
0.0000000e+00 3.0062010e-04 0.0000000e+00 
0.0000000e+00 6.2017614e-04 0.0000000e+00 
0.0000000e+00 9.7732700e-04 0.0000000e+00 
0.0000000e+00 1.3720726e-03 0.0000000e+00 
0.0000000e+00 1.8044132e-03 0.0000000e+00 
0.0000000e+00 1.0691215e-03 0.0000000e+00 
0.0000000e+00 4.5799703e-04 0.0000000e+00 
0.0000000e+00 -2.8960420e-05 0.0000000e+00 
0.0000000e+00 -3.9175077e-04 0.0000000e+00 
0.0000000e+00 -6.3037407e-04 0.0000000e+00 
0.0000000e+00 -7.4483023e-04 0.0000000e+00 
0.0000000e+00 -7.3511933e-04 0.0000000e+00 
0.0000000e+00 -6.0124137e-04 0.0000000e+00 
0.0000000e+00 -3.4319627e-04 0.0000000e+00 
0.0000000e+00 3.9015878e-05 0.0000000e+00 
0.0000000e+00 5.4539513e-04 0.0000000e+00 
0.0000000e+00 1.1759414e-03 0.0000000e+00 
0.0000000e+00 6.1921781e-04 0.0000000e+00 
0.0000000e+00 1.6555861e-04 0.0000000e+00 
0.0000000e+00 -1.8503616e-04 0.0000000e+00 
0.0000000e+00 -4.3256651e-04 0.0000000e+00 
0.0000000e+00 -5.7703239e-04 0.0000000e+00 
0.0000000e+00 -6.1843387e-04 0.0000000e+00 
0.0000000e+00 -5.5677089e-04 0.0000000e+00 
0.0000000e+00 -3.9204350e-04 0.0000000e+00 
0.0000000e+00 -1.2425166e-04 0.0000000e+00 
0.0000000e+00 2.4660461e-04 0.0000000e+00 
0.0000000e+00 7.2052534e-04 0.0000000e+00 
0.0000000e+00 1.2975105e-03 0.0000000e+00 
0.0000000e+00 6.9102191e-04 0.0000000e+00 
0.0000000e+00 1.9603151e-04 0.0000000e+00 
0.0000000e+00 -1.8746073e-04 0.0000000e+00 
0.0000000e+00 -4.5945481e-04 0.0000000e+00 
0.0000000e+00 -6.1995070e-04 0.0000000e+00 
0.0000000e+00 -6.6894846e-04 0.0000000e+00 
0.0000000e+00 -6.0644804e-04 0.0000000e+00 
0.0000000e+00 -4.3244948e-04 0.0000000e+00 
0.0000000e+00 -1.4695276e-04 0.0000000e+00 
0.0000000e+00 2.5004213e-04 0.0000000e+00 
0.0000000e+00 7.5853517e-04 0.0000000e+00 
0.0000000e+00 1.3785263e-03 0.0000000e+00 
0.0000000e+00 8.1757380e-04 0.0000000e+00 
0.0000000e+00 3.5124287e-04 0.0000000e+00 
0.0000000e+00 -2.0466478e-05 0.0000000e+00 
0.0000000e+00 -2.9755419e-04 0.0000000e+00 
0.0000000e+00 -4.8002030e-04 0.0000000e+00 
0.0000000e+00 -5.6786480e-04 0.0000000e+00 
0.0000000e+00 -5.6108768e-04 0.0000000e+00 
0.0000000e+00 -4.5968892e-04 0.0000000e+00 
0.0000000e+00 -2.6366857e-04 0.0000000e+00 
0.0000000e+00 2.6973416e-05 0.0000000e+00 
0.0000000e+00 4.1223702e-04 0.0000000e+00 
0.0000000e+00 8.9212222e-04 0.0000000e+00 
0.0000000e+00 1.7587033e-04 0.0000000e+00 
0.0000000e+00 -3.7820268e-04 0.0000000e+00 
0.0000000e+00 -7.7009678e-04 0.0000000e+00 
0.0000000e+00 -9.9981204e-04 0.0000000e+00 
0.0000000e+00 -1.0673483e-03 0.0000000e+00 
0.0000000e+00 -9.7270578e-04 0.0000000e+00 
0.0000000e+00 -7.1588432e-04 0.0000000e+00 
0.0000000e+00 -2.9688395e-04 0.0000000e+00 
0.0000000e+00 2.8429527e-04 0.0000000e+00 
0.0000000e+00 1.0276533e-03 0.0000000e+00 
0.0000000e+00 1.9331904e-03 0.0000000e+00 
0.0000000e+00 3.0009062e-03 0.0000000e+00 
0.0000000e+00 9.0241438e-04 0.0000000e+00 
0.0000000e+00 8.8361697e-04 0.0000000e+00 
0.0000000e+00 8.2722469e-04 0.0000000e+00 
0.0000000e+00 7.3323766e-04 0.0000000e+00 
0.0000000e+00 6.0165575e-04 0.0000000e+00 
0.0000000e+00 4.3247902e-04 0.0000000e+00 
0.0000000e+00 2.2570748e-04 0.0000000e+00 
0.0000000e+00 -1.8658899e-05 0.0000000e+00 
0.0000000e+00 -3.0062010e-04 0.0000000e+00 
0.0000000e+00 -6.2017614e-04 0.0000000e+00 
0.0000000e+00 -9.7732700e-04 0.0000000e+00 
0.0000000e+00 -1.3720726e-03 0.0000000e+00 
0.0000000e+00 -1.8044132e-03 0.0000000e+00 
0.0000000e+00 -1.0691215e-03 0.0000000e+00 
0.0000000e+00 -4.5799703e-04 0.0000000e+00 
0.0000000e+00 2.8960420e-05 0.0000000e+00 
0.0000000e+00 3.9175077e-04 0.0000000e+00 
0.0000000e+00 6.3037407e-04 0.0000000e+00 
0.0000000e+00 7.4483023e-04 0.0000000e+00 
0.0000000e+00 7.3511933e-04 0.0000000e+00 
0.0000000e+00 6.0124137e-04 0.0000000e+00 
0.0000000e+00 3.4319627e-04 0.0000000e+00 
0.0000000e+00 -3.9015878e-05 0.0000000e+00 
0.0000000e+00 -5.4539513e-04 0.0000000e+00 
0.0000000e+00 -1.1759414e-03 0.0000000e+00 
0.0000000e+00 -6.1921781e-04 0.0000000e+00 
0.0000000e+00 -1.6555861e-04 0.0000000e+00 
0.0000000e+00 1.8503616e-04 0.0000000e+00 
0.0000000e+00 4.3256651e-04 0.0000000e+00 
0.0000000e+00 5.7703239e-04 0.0000000e+00 
0.0000000e+00 6.1843387e-04 0.0000000e+00 
0.0000000e+00 5.5677089e-04 0.0000000e+00 
0.0000000e+00 3.9204350e-04 0.0000000e+00 
0.0000000e+00 1.2425166e-04 0.0000000e+00 
0.0000000e+00 -2.4660461e-04 0.0000000e+00 
0.0000000e+00 -7.2052534e-04 0.0000000e+00 
0.0000000e+00 -1.2975105e-03 0.0000000e+00 
0.0000000e+00 -6.9102191e-04 0.0000000e+00 
0.0000000e+00 -1.9603151e-04 0.0000000e+00 
0.0000000e+00 1.8746073e-04 0.0000000e+00 
0.0000000e+00 4.5945481e-04 0.0000000e+00 
0.0000000e+00 6.1995070e-04 0.0000000e+00 
0.0000000e+00 6.6894846e-04 0.0000000e+00 
0.0000000e+00 6.0644804e-04 0.0000000e+00 
0.0000000e+00 4.3244948e-04 0.0000000e+00 
0.0000000e+00 1.4695276e-04 0.0000000e+00 
0.0000000e+00 -2.5004213e-04 0.0000000e+00 
0.0000000e+00 -7.5853517e-04 0.0000000e+00 
0.0000000e+00 -1.3785263e-03 0.0000000e+00 
0.0000000e+00 -8.1757380e-04 0.0000000e+00 
0.0000000e+00 -3.5124287e-04 0.0000000e+00 
0.0000000e+00 2.0466478e-05 0.0000000e+00 
0.0000000e+00 2.9755419e-04 0.0000000e+00 
0.0000000e+00 4.8002030e-04 0.0000000e+00 
0.0000000e+00 5.6786480e-04 0.0000000e+00 
0.0000000e+00 5.6108768e-04 0.0000000e+00 
0.0000000e+00 4.5968892e-04 0.0000000e+00 
0.0000000e+00 2.6366857e-04 0.0000000e+00 
0.0000000e+00 -2.6973416e-05 0.0000000e+00 
0.0000000e+00 -4.1223702e-04 0.0000000e+00 
0.0000000e+00 -8.9212222e-04 0.0000000e+00 
0.0000000e+00 -1.7587033e-04 0.0000000e+00 
0.0000000e+00 3.7820268e-04 0.0000000e+00 
0.0000000e+00 7.7009678e-04 0.0000000e+00 
0.0000000e+00 9.9981204e-04 0.0000000e+00 
0.0000000e+00 1.0673483e-03 0.0000000e+00 
0.0000000e+00 9.7270578e-04 0.0000000e+00 
0.0000000e+00 7.1588432e-04 0.0000000e+00 
0.0000000e+00 2.9688395e-04 0.0000000e+00 
0.0000000e+00 -2.8429527e-04 0.0000000e+00 
0.0000000e+00 -1.0276533e-03 0.0000000e+00 
0.0000000e+00 -1.9331904e-03 0.0000000e+00 
0.0000000e+00 -3.0009062e-03 0.0000000e+00 
0.0000000e+00 3.6558020e-03 0.0000000e+00 
0.0000000e+00 4.3333047e-03 0.0000000e+00 
0.0000000e+00 4.0716990e-03 0.0000000e+00 
0.0000000e+00 3.1057613e-03 0.0000000e+00 
0.0000000e+00 1.6702692e-03 0.0000000e+00 
0.0000000e+00 -5.2750692e-16 0.0000000e+00 
0.0000000e+00 -1.6702692e-03 0.0000000e+00 
0.0000000e+00 -3.1057613e-03 0.0000000e+00 
0.0000000e+00 -4.0716990e-03 0.0000000e+00 
0.0000000e+00 -4.3333047e-03 0.0000000e+00 
0.0000000e+00 -3.6558020e-03 0.0000000e+00 
0.0000000e+00 3.1320755e-03 0.0000000e+00 
0.0000000e+00 3.9143236e-03 0.0000000e+00 
0.0000000e+00 3.7574631e-03 0.0000000e+00 
0.0000000e+00 2.8962707e-03 0.0000000e+00 
0.0000000e+00 1.5655239e-03 0.0000000e+00 
0.0000000e+00 -4.0624097e-16 0.0000000e+00 
0.0000000e+00 -1.5655239e-03 0.0000000e+00 
0.0000000e+00 -2.8962707e-03 0.0000000e+00 
0.0000000e+00 -3.7574631e-03 0.0000000e+00 
0.0000000e+00 -3.9143236e-03 0.0000000e+00 
0.0000000e+00 -3.1320755e-03 0.0000000e+00 
0.0000000e+00 3.2333832e-03 0.0000000e+00 
0.0000000e+00 3.9953697e-03 0.0000000e+00 
0.0000000e+00 3.8182475e-03 0.0000000e+00 
0.0000000e+00 2.9367937e-03 0.0000000e+00 
0.0000000e+00 1.5857854e-03 0.0000000e+00 
0.0000000e+00 -3.8805107e-16 0.0000000e+00 
0.0000000e+00 -1.5857854e-03 0.0000000e+00 
0.0000000e+00 -2.9367937e-03 0.0000000e+00 
0.0000000e+00 -3.8182475e-03 0.0000000e+00 
0.0000000e+00 -3.9953697e-03 0.0000000e+00 
0.0000000e+00 -3.2333832e-03 0.0000000e+00 
0.0000000e+00 3.3008964e-03 0.0000000e+00 
0.0000000e+00 4.0493803e-03 0.0000000e+00 
0.0000000e+00 3.8587556e-03 0.0000000e+00 
0.0000000e+00 2.9637991e-03 0.0000000e+00 
0.0000000e+00 1.5992881e-03 0.0000000e+00 
0.0000000e+00 -2.8497500e-16 0.0000000e+00 
0.0000000e+00 -1.5992881e-03 0.0000000e+00 
0.0000000e+00 -2.9637991e-03 0.0000000e+00 
0.0000000e+00 -3.8587556e-03 0.0000000e+00 
0.0000000e+00 -4.0493803e-03 0.0000000e+00 
0.0000000e+00 -3.3008964e-03 0.0000000e+00 
0.0000000e+00 2.8955596e-03 0.0000000e+00 
0.0000000e+00 3.7251108e-03 0.0000000e+00 
0.0000000e+00 3.6155535e-03 0.0000000e+00 
0.0000000e+00 2.8016642e-03 0.0000000e+00 
0.0000000e+00 1.5182208e-03 0.0000000e+00 
0.0000000e+00 -3.0922820e-16 0.0000000e+00 
0.0000000e+00 -1.5182208e-03 0.0000000e+00 
0.0000000e+00 -2.8016642e-03 0.0000000e+00 
0.0000000e+00 -3.6155535e-03 0.0000000e+00 
0.0000000e+00 -3.7251108e-03 0.0000000e+00 
0.0000000e+00 -2.8955596e-03 0.0000000e+00 
0.0000000e+00 4.6528797e-03 0.0000000e+00 
0.0000000e+00 5.1309671e-03 0.0000000e+00 
0.0000000e+00 4.6699452e-03 0.0000000e+00 