# vtk DataFile Version 4.0
vtk output
ASCII
DATASET UNSTRUCTURED_GRID
POINTS 30 float
0.0000000e+00 0.0000000e+00 0.0000000e+00 
0.0000000e+00 0.0000000e+00 8.0000001e-01 
0.0000000e+00 0.0000000e+00 1.6000000e+00 
0.0000000e+00 0.0000000e+00 2.4000001e+00 
0.0000000e+00 0.0000000e+00 3.2000000e+00 
0.0000000e+00 0.0000000e+00 4.0000000e+00 
0.0000000e+00 0.0000000e+00 4.8000002e+00 
0.0000000e+00 0.0000000e+00 5.5999999e+00 
0.0000000e+00 0.0000000e+00 6.4000001e+00 
0.0000000e+00 0.0000000e+00 7.1999998e+00 
0.0000000e+00 0.0000000e+00 8.0000000e+00 
1.0000000e+01 0.0000000e+00 0.0000000e+00 
1.0000000e+01 0.0000000e+00 8.0000001e-01 
1.0000000e+01 0.0000000e+00 1.6000000e+00 
1.0000000e+01 0.0000000e+00 2.4000001e+00 
1.0000000e+01 0.0000000e+00 3.2000000e+00 
1.0000000e+01 0.0000000e+00 4.0000000e+00 
1.0000000e+01 0.0000000e+00 4.8000002e+00 
1.0000000e+01 0.0000000e+00 5.5999999e+00 
1.0000000e+01 0.0000000e+00 6.4000001e+00 
1.0000000e+01 0.0000000e+00 7.1999998e+00 
1.0000000e+01 0.0000000e+00 8.0000000e+00 
2.0000000e+00 0.0000000e+00 4.0000000e+00 
4.0000000e+00 0.0000000e+00 4.0000000e+00 
6.0000000e+00 0.0000000e+00 4.0000000e+00 
8.0000000e+00 0.0000000e+00 4.0000000e+00 
2.0000000e+00 0.0000000e+00 8.0000000e+00 
4.0000000e+00 0.0000000e+00 8.0000000e+00 
6.0000000e+00 0.0000000e+00 8.0000000e+00 
8.0000000e+00 0.0000000e+00 8.0000000e+00 

CELLS 30 90
2 0 1
2 1 2
2 2 3
2 3 4
2 4 5
2 5 6
2 6 7
2 7 8
2 8 9
2 9 10
2 11 12
2 12 13
2 13 14
2 14 15
2 15 16
2 16 17
2 17 18
2 18 19
2 19 20
2 20 21
2 5 22
2 22 23
2 23 24
2 24 25
2 25 16
2 10 26
2 26 27
2 27 28
2 28 29
2 29 21

CELL_TYPES 30
3
3
3
3
3
3
3
3
3
3
3
3
3
3
3
3
3
3
3
3
3
3
3
3
3
3
3
3
3
3
POINT_DATA 30
FIELD FieldData 3
ADJOINT_DISPLACEMENT 3 30  float
0.0000000e+00 0.0000000e+00 0.0000000e+00 
-2.4750903e-02 0.0000000e+00 -1.8089921e-17 
-6.6314623e-02 0.0000000e+00 -3.6179841e-17 
-1.4150396e-01 0.0000000e+00 -5.4269758e-17 
-2.6713175e-01 0.0000000e+00 -7.2359682e-17 
-4.6001077e-01 0.0000000e+00 -9.0449599e-17 
-7.6367575e-01 0.0000000e+00 1.6358282e-04 
-3.9611131e-01 0.0000000e+00 3.2716565e-04 
-1.3580514e-01 0.0000000e+00 4.9074850e-04 
3.8755067e-02 0.0000000e+00 6.5433129e-04 
1.4908165e-01 0.0000000e+00 8.1791414e-04 
0.0000000e+00 0.0000000e+00 0.0000000e+00 
-1.5700780e-01 0.0000000e+00 4.9847932e-17 
-2.9720277e-01 0.0000000e+00 1.0021500e-16 
-4.0377212e-01 0.0000000e+00 1.5057275e-16 
-4.5990303e-01 0.0000000e+00 2.0020827e-16 
-4.4878271e-01 0.0000000e+00 2.4556134e-16 
-3.7049851e-01 0.0000000e+00 -1.6358282e-04 
-2.5068790e-01 0.0000000e+00 -3.2716565e-04 
-1.1086322e-01 0.0000000e+00 -4.9074850e-04 
2.7463261e-02 0.0000000e+00 -6.5433129e-04 
1.4277920e-01 0.0000000e+00 -8.1791414e-04 
-4.5776516e-01 0.0000000e+00 3.9151439e-01 
-4.5551956e-01 0.0000000e+00 4.7821635e-01 
-4.5327392e-01 0.0000000e+00 3.6916113e-01 
-4.5102832e-01 0.0000000e+00 1.7340395e-01 
1.4782116e-01 0.0000000e+00 -9.7305082e-02 
1.4656067e-01 0.0000000e+00 -3.7474938e-02 
1.4530018e-01 0.0000000e+00 7.1253113e-02 
1.4403969e-01 0.0000000e+00 1.1982386e-01 
ADJOINT_ROTATION 3 30  float
0.0000000e+00 -2.7435960e-02 0.0000000e+00 
0.0000000e+00 -3.7943967e-02 0.0000000e+00 
0.0000000e+00 -6.9467992e-02 0.0000000e+00 
0.0000000e+00 -1.2200803e-01 0.0000000e+00 
0.0000000e+00 -1.9556409e-01 0.0000000e+00 
0.0000000e+00 -2.9013616e-01 0.0000000e+00 
0.0000000e+00 -4.6454456e-01 0.0000000e+00 
0.0000000e+00 3.8793740e-01 0.0000000e+00 
0.0000000e+00 2.6730976e-01 0.0000000e+00 
0.0000000e+00 1.7357251e-01 0.0000000e+00 
0.0000000e+00 1.0672565e-01 0.0000000e+00 
0.0000000e+00 -1.9976242e-01 0.0000000e+00 
0.0000000e+00 -1.8925440e-01 0.0000000e+00 
0.0000000e+00 -1.5773039e-01 0.0000000e+00 
0.0000000e+00 -1.0519034e-01 0.0000000e+00 
0.0000000e+00 -3.1634282e-02 0.0000000e+00 
0.0000000e+00 6.2937789e-02 0.0000000e+00 
0.0000000e+00 1.2829098e-01 0.0000000e+00 
0.0000000e+00 1.6675378e-01 0.0000000e+00 
0.0000000e+00 1.7832620e-01 0.0000000e+00 
0.0000000e+00 1.6300824e-01 0.0000000e+00 
0.0000000e+00 1.2079989e-01 0.0000000e+00 
0.0000000e+00 -1.1046615e-01 0.0000000e+00 
0.0000000e+00 1.4676247e-02 0.0000000e+00 
0.0000000e+00 8.5291035e-02 0.0000000e+00 
0.0000000e+00 1.0137822e-01 0.0000000e+00 
0.0000000e+00 4.8527835e-04 0.0000000e+00 
0.0000000e+00 -5.1227484e-02 0.0000000e+00 
0.0000000e+00 -4.8412636e-02 0.0000000e+00 
0.0000000e+00 8.9298226e-03 0.0000000e+00 
SHAPE_SENSITIVITY 3 30  float
0.0000000e+00 0.0000000e+00 0.0000000e+00 
0.0000000e+00 0.0000000e+00 0.0000000e+00 
0.0000000e+00 0.0000000e+00 0.0000000e+00 
0.0000000e+00 0.0000000e+00 0.0000000e+00 
0.0000000e+00 0.0000000e+00 0.0000000e+00 
0.0000000e+00 0.0000000e+00 0.0000000e+00 
0.0000000e+00 0.0000000e+00 0.0000000e+00 
0.0000000e+00 0.0000000e+00 0.0000000e+00 
0.0000000e+00 0.0000000e+00 0.0000000e+00 
0.0000000e+00 0.0000000e+00 0.0000000e+00 
0.0000000e+00 0.0000000e+00 0.0000000e+00 
0.0000000e+00 0.0000000e+00 0.0000000e+00 
0.0000000e+00 0.0000000e+00 0.0000000e+00 
0.0000000e+00 0.0000000e+00 0.0000000e+00 
0.0000000e+00 0.0000000e+00 0.0000000e+00 
0.0000000e+00 0.0000000e+00 0.0000000e+00 
0.0000000e+00 0.0000000e+00 0.0000000e+00 
0.0000000e+00 0.0000000e+00 0.0000000e+00 
0.0000000e+00 0.0000000e+00 0.0000000e+00 
0.0000000e+00 0.0000000e+00 0.0000000e+00 
0.0000000e+00 0.0000000e+00 0.0000000e+00 
0.0000000e+00 0.0000000e+00 0.0000000e+00 
0.0000000e+00 0.0000000e+00 0.0000000e+00 
0.0000000e+00 0.0000000e+00 0.0000000e+00 
0.0000000e+00 0.0000000e+00 0.0000000e+00 
0.0000000e+00 0.0000000e+00 0.0000000e+00 
0.0000000e+00 0.0000000e+00 0.0000000e+00 
0.0000000e+00 0.0000000e+00 0.0000000e+00 
0.0000000e+00 0.0000000e+00 0.0000000e+00 
0.0000000e+00 0.0000000e+00 0.0000000e+00 
CELL_DATA 30
FIELD FieldData 1
I22_SENSITIVITY 1 30  float
1.0108713e+05
7.0760994e+05
2.4585332e+06
4.8040825e+06
6.6842995e+06
-6.3288810e+06
-4.6874025e+06
-5.4002900e+06
-4.8037865e+06
-1.1992628e+06
-1.3650978e+05
-7.9016438e+05
-7.4530512e+05
1.0525088e+06
4.0595162e+06
-2.7554888e+06
-1.0385564e+06
-1.7629450e+05
3.4152169e+05
8.9922719e+05
-7.2841895e+06
6.9789095e+06
4.4412670e+06
6.3335838e+05
2.2136175e+06
9.4518956e+05
6.0726875e+05
-5.5727773e+04
-1.0438001e+06
1.4902831e+05
