# vtk DataFile Version 4.0
vtk output
ASCII
DATASET UNSTRUCTURED_GRID
POINTS 212 float
0.0000000e+00 0.0000000e+00 0.0000000e+00 
0.0000000e+00 0.0000000e+00 2.5000000e-01 
0.0000000e+00 0.0000000e+00 5.0000000e-01 
0.0000000e+00 0.0000000e+00 7.5000000e-01 
0.0000000e+00 0.0000000e+00 1.0000000e+00 
0.0000000e+00 0.0000000e+00 1.2500000e+00 
0.0000000e+00 0.0000000e+00 1.5000000e+00 
0.0000000e+00 0.0000000e+00 1.7500000e+00 
0.0000000e+00 0.0000000e+00 2.0000000e+00 
0.0000000e+00 0.0000000e+00 2.2500000e+00 
0.0000000e+00 0.0000000e+00 2.5000000e+00 
0.0000000e+00 0.0000000e+00 2.7500000e+00 
0.0000000e+00 0.0000000e+00 3.0000000e+00 
0.0000000e+00 0.0000000e+00 3.2500000e+00 
0.0000000e+00 0.0000000e+00 3.5000000e+00 
0.0000000e+00 0.0000000e+00 3.7500000e+00 
0.0000000e+00 0.0000000e+00 4.0000000e+00 
0.0000000e+00 0.0000000e+00 4.2500000e+00 
0.0000000e+00 0.0000000e+00 4.5000000e+00 
0.0000000e+00 0.0000000e+00 4.7500000e+00 
0.0000000e+00 0.0000000e+00 5.0000000e+00 
0.0000000e+00 0.0000000e+00 5.2500000e+00 
0.0000000e+00 0.0000000e+00 5.5000000e+00 
0.0000000e+00 0.0000000e+00 5.7500000e+00 
0.0000000e+00 0.0000000e+00 6.0000000e+00 
0.0000000e+00 0.0000000e+00 6.2500000e+00 
0.0000000e+00 0.0000000e+00 6.5000000e+00 
0.0000000e+00 0.0000000e+00 6.7500000e+00 
0.0000000e+00 0.0000000e+00 7.0000000e+00 
0.0000000e+00 0.0000000e+00 7.2500000e+00 
0.0000000e+00 0.0000000e+00 7.5000000e+00 
0.0000000e+00 0.0000000e+00 7.7500000e+00 
0.0000000e+00 0.0000000e+00 8.0000000e+00 
0.0000000e+00 0.0000000e+00 8.2500000e+00 
0.0000000e+00 0.0000000e+00 8.5000000e+00 
0.0000000e+00 0.0000000e+00 8.7500000e+00 
0.0000000e+00 0.0000000e+00 9.0000000e+00 
0.0000000e+00 0.0000000e+00 9.2500000e+00 
0.0000000e+00 0.0000000e+00 9.5000000e+00 
0.0000000e+00 0.0000000e+00 9.7500000e+00 
0.0000000e+00 0.0000000e+00 1.0000000e+01 
0.0000000e+00 0.0000000e+00 1.0250000e+01 
0.0000000e+00 0.0000000e+00 1.0500000e+01 
0.0000000e+00 0.0000000e+00 1.0750000e+01 
0.0000000e+00 0.0000000e+00 1.1000000e+01 
0.0000000e+00 0.0000000e+00 1.1250000e+01 
0.0000000e+00 0.0000000e+00 1.1500000e+01 
0.0000000e+00 0.0000000e+00 1.1750000e+01 
0.0000000e+00 0.0000000e+00 1.2000000e+01 
0.0000000e+00 0.0000000e+00 1.2250000e+01 
0.0000000e+00 0.0000000e+00 1.2500000e+01 
0.0000000e+00 0.0000000e+00 1.2750000e+01 
0.0000000e+00 0.0000000e+00 1.3000000e+01 
0.0000000e+00 0.0000000e+00 1.3250000e+01 
0.0000000e+00 0.0000000e+00 1.3500000e+01 
0.0000000e+00 0.0000000e+00 1.3750000e+01 
0.0000000e+00 0.0000000e+00 1.4000000e+01 
0.0000000e+00 0.0000000e+00 1.4250000e+01 
0.0000000e+00 0.0000000e+00 1.4500000e+01 
0.0000000e+00 0.0000000e+00 1.4750000e+01 
0.0000000e+00 0.0000000e+00 1.5000000e+01 
0.0000000e+00 0.0000000e+00 1.5250000e+01 
0.0000000e+00 0.0000000e+00 1.5500000e+01 
0.0000000e+00 0.0000000e+00 1.5750000e+01 
0.0000000e+00 0.0000000e+00 1.6000000e+01 
0.0000000e+00 0.0000000e+00 1.6250000e+01 
0.0000000e+00 0.0000000e+00 1.6500000e+01 
0.0000000e+00 0.0000000e+00 1.6750000e+01 
0.0000000e+00 0.0000000e+00 1.7000000e+01 
0.0000000e+00 0.0000000e+00 1.7250000e+01 
0.0000000e+00 0.0000000e+00 1.7500000e+01 
0.0000000e+00 0.0000000e+00 1.7750000e+01 
0.0000000e+00 0.0000000e+00 1.8000000e+01 
5.0000000e-01 0.0000000e+00 3.0000000e+00 
5.0000000e-01 0.0000000e+00 6.0000000e+00 
5.0000000e-01 0.0000000e+00 9.0000000e+00 
5.0000000e-01 0.0000000e+00 1.2000000e+01 
5.0000000e-01 0.0000000e+00 1.5000000e+01 
5.0000000e-01 0.0000000e+00 1.8000000e+01 
1.0000000e+00 0.0000000e+00 3.0000000e+00 
1.0000000e+00 0.0000000e+00 6.0000000e+00 
1.0000000e+00 0.0000000e+00 9.0000000e+00 
1.0000000e+00 0.0000000e+00 1.2000000e+01 
1.0000000e+00 0.0000000e+00 1.5000000e+01 
1.0000000e+00 0.0000000e+00 1.8000000e+01 
1.5000000e+00 0.0000000e+00 3.0000000e+00 
1.5000000e+00 0.0000000e+00 6.0000000e+00 
1.5000000e+00 0.0000000e+00 9.0000000e+00 
1.5000000e+00 0.0000000e+00 1.2000000e+01 
1.5000000e+00 0.0000000e+00 1.5000000e+01 
1.5000000e+00 0.0000000e+00 1.8000000e+01 
2.0000000e+00 0.0000000e+00 3.0000000e+00 
2.0000000e+00 0.0000000e+00 6.0000000e+00 
2.0000000e+00 0.0000000e+00 9.0000000e+00 
2.0000000e+00 0.0000000e+00 1.2000000e+01 
2.0000000e+00 0.0000000e+00 1.5000000e+01 
2.0000000e+00 0.0000000e+00 1.8000000e+01 
2.5000000e+00 0.0000000e+00 3.0000000e+00 
2.5000000e+00 0.0000000e+00 6.0000000e+00 
2.5000000e+00 0.0000000e+00 9.0000000e+00 
2.5000000e+00 0.0000000e+00 1.2000000e+01 
2.5000000e+00 0.0000000e+00 1.5000000e+01 
2.5000000e+00 0.0000000e+00 1.8000000e+01 
3.0000000e+00 0.0000000e+00 3.0000000e+00 
3.0000000e+00 0.0000000e+00 6.0000000e+00 
3.0000000e+00 0.0000000e+00 9.0000000e+00 
3.0000000e+00 0.0000000e+00 1.2000000e+01 
3.0000000e+00 0.0000000e+00 1.5000000e+01 
3.0000000e+00 0.0000000e+00 1.8000000e+01 
3.5000000e+00 0.0000000e+00 3.0000000e+00 
3.5000000e+00 0.0000000e+00 6.0000000e+00 
3.5000000e+00 0.0000000e+00 9.0000000e+00 
3.5000000e+00 0.0000000e+00 1.2000000e+01 
3.5000000e+00 0.0000000e+00 1.5000000e+01 
3.5000000e+00 0.0000000e+00 1.8000000e+01 
4.0000000e+00 0.0000000e+00 3.0000000e+00 
4.0000000e+00 0.0000000e+00 6.0000000e+00 
4.0000000e+00 0.0000000e+00 9.0000000e+00 
4.0000000e+00 0.0000000e+00 1.2000000e+01 
4.0000000e+00 0.0000000e+00 1.5000000e+01 
4.0000000e+00 0.0000000e+00 1.8000000e+01 
4.5000000e+00 0.0000000e+00 3.0000000e+00 
4.5000000e+00 0.0000000e+00 6.0000000e+00 
4.5000000e+00 0.0000000e+00 9.0000000e+00 
4.5000000e+00 0.0000000e+00 1.2000000e+01 
4.5000000e+00 0.0000000e+00 1.5000000e+01 
4.5000000e+00 0.0000000e+00 1.8000000e+01 
5.0000000e+00 0.0000000e+00 3.0000000e+00 
5.0000000e+00 0.0000000e+00 6.0000000e+00 
5.0000000e+00 0.0000000e+00 9.0000000e+00 
5.0000000e+00 0.0000000e+00 1.2000000e+01 
5.0000000e+00 0.0000000e+00 1.5000000e+01 
5.0000000e+00 0.0000000e+00 1.8000000e+01 
5.5000000e+00 0.0000000e+00 3.0000000e+00 
5.5000000e+00 0.0000000e+00 6.0000000e+00 
5.5000000e+00 0.0000000e+00 9.0000000e+00 
5.5000000e+00 0.0000000e+00 1.2000000e+01 
5.5000000e+00 0.0000000e+00 1.5000000e+01 
5.5000000e+00 0.0000000e+00 1.8000000e+01 
6.0000000e+00 0.0000000e+00 0.0000000e+00 
6.0000000e+00 0.0000000e+00 2.5000000e-01 
6.0000000e+00 0.0000000e+00 5.0000000e-01 
6.0000000e+00 0.0000000e+00 7.5000000e-01 
6.0000000e+00 0.0000000e+00 1.0000000e+00 
6.0000000e+00 0.0000000e+00 1.2500000e+00 
6.0000000e+00 0.0000000e+00 1.5000000e+00 
6.0000000e+00 0.0000000e+00 1.7500000e+00 
6.0000000e+00 0.0000000e+00 2.0000000e+00 
6.0000000e+00 0.0000000e+00 2.2500000e+00 
6.0000000e+00 0.0000000e+00 2.5000000e+00 
6.0000000e+00 0.0000000e+00 2.7500000e+00 
6.0000000e+00 0.0000000e+00 3.0000000e+00 
6.0000000e+00 0.0000000e+00 3.2500000e+00 
6.0000000e+00 0.0000000e+00 3.5000000e+00 
6.0000000e+00 0.0000000e+00 3.7500000e+00 
6.0000000e+00 0.0000000e+00 4.0000000e+00 
6.0000000e+00 0.0000000e+00 4.2500000e+00 
6.0000000e+00 0.0000000e+00 4.5000000e+00 
6.0000000e+00 0.0000000e+00 4.7500000e+00 
6.0000000e+00 0.0000000e+00 5.0000000e+00 
6.0000000e+00 0.0000000e+00 5.2500000e+00 
6.0000000e+00 0.0000000e+00 5.5000000e+00 
6.0000000e+00 0.0000000e+00 5.7500000e+00 
6.0000000e+00 0.0000000e+00 6.0000000e+00 
6.0000000e+00 0.0000000e+00 6.2500000e+00 
6.0000000e+00 0.0000000e+00 6.5000000e+00 
6.0000000e+00 0.0000000e+00 6.7500000e+00 
6.0000000e+00 0.0000000e+00 7.0000000e+00 
6.0000000e+00 0.0000000e+00 7.2500000e+00 
6.0000000e+00 0.0000000e+00 7.5000000e+00 
6.0000000e+00 0.0000000e+00 7.7500000e+00 
6.0000000e+00 0.0000000e+00 8.0000000e+00 
6.0000000e+00 0.0000000e+00 8.2500000e+00 
6.0000000e+00 0.0000000e+00 8.5000000e+00 
6.0000000e+00 0.0000000e+00 8.7500000e+00 
6.0000000e+00 0.0000000e+00 9.0000000e+00 
6.0000000e+00 0.0000000e+00 9.2500000e+00 
6.0000000e+00 0.0000000e+00 9.5000000e+00 
6.0000000e+00 0.0000000e+00 9.7500000e+00 
6.0000000e+00 0.0000000e+00 1.0000000e+01 
6.0000000e+00 0.0000000e+00 1.0250000e+01 
6.0000000e+00 0.0000000e+00 1.0500000e+01 
6.0000000e+00 0.0000000e+00 1.0750000e+01 
6.0000000e+00 0.0000000e+00 1.1000000e+01 
6.0000000e+00 0.0000000e+00 1.1250000e+01 
6.0000000e+00 0.0000000e+00 1.1500000e+01 
6.0000000e+00 0.0000000e+00 1.1750000e+01 
6.0000000e+00 0.0000000e+00 1.2000000e+01 
6.0000000e+00 0.0000000e+00 1.2250000e+01 
6.0000000e+00 0.0000000e+00 1.2500000e+01 
6.0000000e+00 0.0000000e+00 1.2750000e+01 
6.0000000e+00 0.0000000e+00 1.3000000e+01 
6.0000000e+00 0.0000000e+00 1.3250000e+01 
6.0000000e+00 0.0000000e+00 1.3500000e+01 
6.0000000e+00 0.0000000e+00 1.3750000e+01 
6.0000000e+00 0.0000000e+00 1.4000000e+01 
6.0000000e+00 0.0000000e+00 1.4250000e+01 
6.0000000e+00 0.0000000e+00 1.4500000e+01 
6.0000000e+00 0.0000000e+00 1.4750000e+01 
6.0000000e+00 0.0000000e+00 1.5000000e+01 
6.0000000e+00 0.0000000e+00 1.5250000e+01 
6.0000000e+00 0.0000000e+00 1.5500000e+01 
6.0000000e+00 0.0000000e+00 1.5750000e+01 
6.0000000e+00 0.0000000e+00 1.6000000e+01 
6.0000000e+00 0.0000000e+00 1.6250000e+01 
6.0000000e+00 0.0000000e+00 1.6500000e+01 
6.0000000e+00 0.0000000e+00 1.6750000e+01 
6.0000000e+00 0.0000000e+00 1.7000000e+01 
6.0000000e+00 0.0000000e+00 1.7250000e+01 
6.0000000e+00 0.0000000e+00 1.7500000e+01 
6.0000000e+00 0.0000000e+00 1.7750000e+01 
6.0000000e+00 0.0000000e+00 1.8000000e+01 

CELLS 216 648
2 0 1
2 1 2
2 2 3
2 3 4
2 4 5
2 5 6
2 6 7
2 7 8
2 8 9
2 9 10
2 10 11
2 11 12
2 12 13
2 13 14
2 14 15
2 15 16
2 16 17
2 17 18
2 18 19
2 19 20
2 20 21
2 21 22
2 22 23
2 23 24
2 24 25
2 25 26
2 26 27
2 27 28
2 28 29
2 29 30
2 30 31
2 31 32
2 32 33
2 33 34
2 34 35
2 35 36
2 36 37
2 37 38
2 38 39
2 39 40
2 40 41
2 41 42
2 42 43
2 43 44
2 44 45
2 45 46
2 46 47
2 47 48
2 48 49
2 49 50
2 50 51
2 51 52
2 52 53
2 53 54
2 54 55
2 55 56
2 56 57
2 57 58
2 58 59
2 59 60
2 60 61
2 61 62
2 62 63
2 63 64
2 64 65
2 65 66
2 66 67
2 67 68
2 68 69
2 69 70
2 70 71
2 71 72
2 139 140
2 140 141
2 141 142
2 142 143
2 143 144
2 144 145
2 145 146
2 146 147
2 147 148
2 148 149
2 149 150
2 150 151
2 151 152
2 152 153
2 153 154
2 154 155
2 155 156
2 156 157
2 157 158
2 158 159
2 159 160
2 160 161
2 161 162
2 162 163
2 163 164
2 164 165
2 165 166
2 166 167
2 167 168
2 168 169
2 169 170
2 170 171
2 171 172
2 172 173
2 173 174
2 174 175
2 175 176
2 176 177
2 177 178
2 178 179
2 179 180
2 180 181
2 181 182
2 182 183
2 183 184
2 184 185
2 185 186
2 186 187
2 187 188
2 188 189
2 189 190
2 190 191
2 191 192
2 192 193
2 193 194
2 194 195
2 195 196
2 196 197
2 197 198
2 198 199
2 199 200
2 200 201
2 201 202
2 202 203
2 203 204
2 204 205
2 205 206
2 206 207
2 207 208
2 208 209
2 209 210
2 210 211
2 12 73
2 73 79
2 79 85
2 85 91
2 91 97
2 97 103
2 103 109
2 109 115
2 115 121
2 121 127
2 127 133
2 133 151
2 24 74
2 74 80
2 80 86
2 86 92
2 92 98
2 98 104
2 104 110
2 110 116
2 116 122
2 122 128
2 128 134
2 134 163
2 36 75
2 75 81
2 81 87
2 87 93
2 93 99
2 99 105
2 105 111
2 111 117
2 117 123
2 123 129
2 129 135
2 135 175
2 48 76
2 76 82
2 82 88
2 88 94
2 94 100
2 100 106
2 106 112
2 112 118
2 118 124
2 124 130
2 130 136
2 136 187
2 60 77
2 77 83
2 83 89
2 89 95
2 95 101
2 101 107
2 107 113
2 113 119
2 119 125
2 125 131
2 131 137
2 137 199
2 72 78
2 78 84
2 84 90
2 90 96
2 96 102
2 102 108
2 108 114
2 114 120
2 120 126
2 126 132
2 132 138
2 138 211

CELL_TYPES 216
3
3
3
3
3
3
3
3
3
3
3
3
3
3
3
3
3
3
3
3
3
3
3
3
3
3
3
3
3
3
3
3
3
3
3
3
3
3
3
3
3
3
3
3
3
3
3
3
3
3
3
3
3
3
3
3
3
3
3
3
3
3
3
3
3
3
3
3
3
3
3
3
3
3
3
3
3
3
3
3
3
3
3
3
3
3
3
3
3
3
3
3
3
3
3
3
3
3
3
3
3
3
3
3
3
3
3
3
3
3
3
3
3
3
3
3
3
3
3
3
3
3
3
3
3
3
3
3
3
3
3
3
3
3
3
3
3
3
3
3
3
3
3
3
3
3
3
3
3
3
3
3
3
3
3
3
3
3
3
3
3
3
3
3
3
3
3
3
3
3
3
3
3
3
3
3
3
3
3
3
3
3
3
3
3
3
3
3
3
3
3
3
3
3
3
3
3
3
3
3
3
3
3
3
3
3
3
3
3
3
3
3
3
3
3
3
POINT_DATA 212
FIELD FieldData 3
ADJOINT_DISPLACEMENT 3 212  float
0.0000000e+00 0.0000000e+00 0.0000000e+00 
-2.4982422e-04 0.0000000e+00 -2.1591755e-16 
-5.3704431e-04 0.0000000e+00 -4.3183510e-16 
-8.9905603e-04 0.0000000e+00 -6.4775267e-16 
-1.3732553e-03 0.0000000e+00 -8.6367021e-16 
-1.9970380e-03 0.0000000e+00 -1.0795877e-15 
-2.8077997e-03 0.0000000e+00 -1.2955053e-15 
-3.8429366e-03 0.0000000e+00 -1.5114228e-15 
-5.1398445e-03 0.0000000e+00 -1.7273404e-15 
-6.7359190e-03 0.0000000e+00 -1.9432579e-15 
-8.6685559e-03 0.0000000e+00 -2.1591755e-15 
-1.0975151e-02 0.0000000e+00 -2.3750931e-15 
-1.3693101e-02 0.0000000e+00 -2.5910107e-15 
-1.7032934e-02 0.0000000e+00 4.5166098e-07 
-2.1029675e-02 0.0000000e+00 9.0332196e-07 
-2.5457462e-02 0.0000000e+00 1.3549829e-06 
-3.0090436e-02 0.0000000e+00 1.8066439e-06 
-3.4702733e-02 0.0000000e+00 2.2583049e-06 
-3.9068494e-02 0.0000000e+00 2.7099659e-06 
-4.2961858e-02 0.0000000e+00 3.1616269e-06 
-4.6156961e-02 0.0000000e+00 3.6132878e-06 
-4.8427943e-02 0.0000000e+00 4.0649488e-06 
-4.9548946e-02 0.0000000e+00 4.5166098e-06 
-4.9294107e-02 0.0000000e+00 4.9682708e-06 
-4.7437560e-02 0.0000000e+00 5.4199318e-06 
-4.4220153e-02 0.0000000e+00 7.6784163e-06 
-4.0689990e-02 0.0000000e+00 9.9369008e-06 
-3.7832119e-02 0.0000000e+00 1.2195385e-05 
-3.6631580e-02 0.0000000e+00 1.4453869e-05 
-3.8073417e-02 0.0000000e+00 1.6712354e-05 
-4.3142673e-02 0.0000000e+00 1.8970839e-05 
-5.2824389e-02 0.0000000e+00 2.1229323e-05 
-6.8103619e-02 0.0000000e+00 2.3487806e-05 
-8.9965388e-02 0.0000000e+00 2.5746291e-05 
-1.1939476e-01 0.0000000e+00 2.8004775e-05 
-1.5737677e-01 0.0000000e+00 3.0263260e-05 
-2.0489645e-01 0.0000000e+00 3.2521744e-05 
-2.6664218e-01 0.0000000e+00 4.3363405e-05 
-3.4614924e-01 0.0000000e+00 5.4205062e-05 
-4.4267306e-01 0.0000000e+00 6.5046719e-05 
-5.5546904e-01 0.0000000e+00 7.5888383e-05 
-4.3379259e-01 0.0000000e+00 8.6730040e-05 
-3.2689917e-01 0.0000000e+00 9.7571698e-05 
-2.3404418e-01 0.0000000e+00 1.0841335e-04 
-1.5448301e-01 0.0000000e+00 1.1925502e-04 
-8.7471105e-02 0.0000000e+00 1.3009667e-04 
-3.2263875e-02 0.0000000e+00 1.4093834e-04 
1.1883260e-02 0.0000000e+00 1.5178000e-04 
4.5714881e-02 0.0000000e+00 1.6262165e-04 
7.2893560e-02 0.0000000e+00 1.6488014e-04 
9.6739285e-02 0.0000000e+00 1.6713863e-04 
1.1748277e-01 0.0000000e+00 1.6939711e-04 
1.3535474e-01 0.0000000e+00 1.7165559e-04 
1.5058589e-01 0.0000000e+00 1.7391407e-04 
1.6340694e-01 0.0000000e+00 1.7617256e-04 
1.7404859e-01 0.0000000e+00 1.7843104e-04 
1.8274155e-01 0.0000000e+00 1.8068953e-04 
1.8971656e-01 0.0000000e+00 1.8294802e-04 
1.9520432e-01 0.0000000e+00 1.8520650e-04 
1.9943552e-01 0.0000000e+00 1.8746498e-04 
2.0264091e-01 0.0000000e+00 1.8972346e-04 
2.0549874e-01 0.0000000e+00 1.9017512e-04 
2.0850378e-01 0.0000000e+00 1.9062679e-04 
2.1161149e-01 0.0000000e+00 1.9107845e-04 
2.1477726e-01 0.0000000e+00 1.9153011e-04 
2.1795653e-01 0.0000000e+00 1.9198177e-04 
2.2110471e-01 0.0000000e+00 1.9243344e-04 
2.2417723e-01 0.0000000e+00 1.9288510e-04 
2.2712952e-01 0.0000000e+00 1.9333676e-04 
2.2991700e-01 0.0000000e+00 1.9378841e-04 
2.3249510e-01 0.0000000e+00 1.9424007e-04 
2.3481923e-01 0.0000000e+00 1.9469173e-04 
2.3684484e-01 0.0000000e+00 1.9514340e-04 
-1.3683054e-02 0.0000000e+00 5.0357035e-03 
-4.7483776e-02 0.0000000e+00 -6.3932408e-03 
-2.0483044e-01 0.0000000e+00 8.9899585e-02 
4.5695268e-02 0.0000000e+00 -4.6266664e-02 
2.0263040e-01 0.0000000e+00 -3.5014136e-03 
2.3684654e-01 0.0000000e+00 -2.8731355e-03 
-1.3673006e-02 0.0000000e+00 8.5246759e-03 
-4.7529992e-02 0.0000000e+00 -1.4153520e-02 
-2.0476443e-01 0.0000000e+00 1.5143211e-01 
4.5675654e-02 0.0000000e+00 -7.2265103e-02 
2.0261988e-01 0.0000000e+00 -4.0023378e-03 
2.3684824e-01 0.0000000e+00 -4.7583100e-03 
-1.3662959e-02 0.0000000e+00 1.0656262e-02 
-4.7576208e-02 0.0000000e+00 -2.2517962e-02 
-2.0469840e-01 0.0000000e+00 1.8822832e-01 
4.5656044e-02 0.0000000e+00 -8.1430919e-02 
2.0260938e-01 0.0000000e+00 -2.0705028e-03 
2.3684993e-01 0.0000000e+00 -5.6497250e-03 
-1.3652910e-02 0.0000000e+00 1.1619804e-02 
-4.7622424e-02 0.0000000e+00 -3.0729115e-02 
-2.0463239e-01 0.0000000e+00 2.0388645e-01 
4.5636430e-02 0.0000000e+00 -7.7362336e-02 
2.0259887e-01 0.0000000e+00 1.5366375e-03 
2.3685165e-01 0.0000000e+00 -5.7367249e-03 
-1.3642863e-02 0.0000000e+00 1.1604651e-02 
-4.7668640e-02 0.0000000e+00 -3.8029522e-02 
-2.0456637e-01 0.0000000e+00 2.0200472e-01 
4.5616817e-02 0.0000000e+00 -6.3657589e-02 
2.0258836e-01 0.0000000e+00 6.0616289e-03 
2.3685335e-01 0.0000000e+00 -5.2086548e-03 
-1.3632815e-02 0.0000000e+00 1.0800145e-02 
-4.7714856e-02 0.0000000e+00 -4.3661732e-02 
-2.0450036e-01 0.0000000e+00 1.8618135e-01 
4.5597207e-02 0.0000000e+00 -4.3914899e-02 
2.0257786e-01 0.0000000e+00 1.0747018e-02 
2.3685504e-01 0.0000000e+00 -4.2548585e-03 
-1.3622768e-02 0.0000000e+00 9.3956301e-03 
-4.7761071e-02 0.0000000e+00 -4.6868291e-02 
-2.0443435e-01 0.0000000e+00 1.6001457e-01 
4.5577593e-02 0.0000000e+00 -2.1732492e-02 
2.0256735e-01 0.0000000e+00 1.4835350e-02 
2.3685674e-01 0.0000000e+00 -3.0646813e-03 
-1.3612721e-02 0.0000000e+00 7.5804521e-03 
-4.7807287e-02 0.0000000e+00 -4.6891745e-02 
-2.0436834e-01 0.0000000e+00 1.2710261e-01 
4.5557979e-02 0.0000000e+00 -7.0859428e-04 
2.0255685e-01 0.0000000e+00 1.7569173e-02 
2.3685844e-01 0.0000000e+00 -1.8274678e-03 
-1.3602673e-02 0.0000000e+00 5.5439556e-03 
-4.7853503e-02 0.0000000e+00 -4.2974640e-02 
-2.0430233e-01 0.0000000e+00 9.1043696e-02 
4.5538370e-02 0.0000000e+00 1.5558568e-02 
2.0254634e-01 0.0000000e+00 1.8191030e-02 
2.3686014e-01 0.0000000e+00 -7.3256262e-04 
-1.3592626e-02 0.0000000e+00 3.4754849e-03 
-4.7899719e-02 0.0000000e+00 -3.4359518e-02 
-2.0423631e-01 0.0000000e+00 5.5436052e-02 
4.5518756e-02 0.0000000e+00 2.3470769e-02 
2.0253584e-01 0.0000000e+00 1.5943469e-02 
2.3686185e-01 0.0000000e+00 3.0689647e-05 
-1.3582578e-02 0.0000000e+00 1.5643848e-03 
-4.7945935e-02 0.0000000e+00 -2.0288929e-02 
-2.0417030e-01 0.0000000e+00 2.3877904e-02 
4.5499142e-02 0.0000000e+00 1.9429781e-02 
2.0252533e-01 0.0000000e+00 1.0069036e-02 
2.3686355e-01 0.0000000e+00 2.7294428e-04 
0.0000000e+00 0.0000000e+00 0.0000000e+00 
-2.0223118e-03 0.0000000e+00 1.8800250e-16 
-4.0072277e-03 0.0000000e+00 3.7600478e-16 
-5.9173517e-03 0.0000000e+00 5.6400885e-16 
-7.7152885e-03 0.0000000e+00 7.5201242e-16 
-9.3636420e-03 0.0000000e+00 9.4001821e-16 
-1.0825016e-02 0.0000000e+00 1.1280246e-15 
-1.2062015e-02 0.0000000e+00 1.3160282e-15 
-1.3037243e-02 0.0000000e+00 1.5040343e-15 
-1.3713305e-02 0.0000000e+00 1.6920381e-15 
-1.4052804e-02 0.0000000e+00 1.8800453e-15 
-1.4018345e-02 0.0000000e+00 2.0680515e-15 
-1.3572531e-02 0.0000000e+00 2.2560600e-15 
-1.2788851e-02 0.0000000e+00 -4.5166098e-07 
-1.1916297e-02 0.0000000e+00 -9.0332196e-07 
-1.1180730e-02 0.0000000e+00 -1.3549829e-06 
-1.0808012e-02 0.0000000e+00 -1.8066439e-06 
-1.1024003e-02 0.0000000e+00 -2.2583049e-06 
-1.2054564e-02 0.0000000e+00 -2.7099659e-06 
-1.4125559e-02 0.0000000e+00 -3.1616269e-06 
-1.7462846e-02 0.0000000e+00 -3.6132878e-06 
-2.2292288e-02 0.0000000e+00 -4.0649488e-06 
-2.8839745e-02 0.0000000e+00 -4.5166098e-06 
-3.7331078e-02 0.0000000e+00 -4.9682708e-06 
-4.7992148e-02 0.0000000e+00 -5.4199318e-06 
-6.1718300e-02 0.0000000e+00 -7.6784163e-06 
-7.8597598e-02 0.0000000e+00 -9.9369008e-06 
-9.7645007e-02 0.0000000e+00 -1.2195385e-05 
-1.1787547e-01 0.0000000e+00 -1.4453869e-05 
-1.3830397e-01 0.0000000e+00 -1.6712354e-05 
-1.5794542e-01 0.0000000e+00 -1.8970839e-05 
-1.7581482e-01 0.0000000e+00 -2.1229323e-05 
-1.9092710e-01 0.0000000e+00 -2.3487806e-05 
-2.0229724e-01 0.0000000e+00 -2.5746291e-05 
-2.0894018e-01 0.0000000e+00 -2.8004775e-05 
-2.0987087e-01 0.0000000e+00 -3.0263260e-05 
-2.0410429e-01 0.0000000e+00 -3.2521744e-05 
-1.9234939e-01 0.0000000e+00 -4.3363405e-05 
-1.7646822e-01 0.0000000e+00 -5.4205062e-05 
-1.5720539e-01 0.0000000e+00 -6.5046719e-05 
-1.3530546e-01 0.0000000e+00 -7.5888383e-05 
-1.1151302e-01 0.0000000e+00 -8.6730040e-05 
-8.6572647e-02 0.0000000e+00 -9.7571698e-05 
-6.1228927e-02 0.0000000e+00 -1.0841335e-04 
-3.6226444e-02 0.0000000e+00 -1.1925502e-04 
-1.2309771e-02 0.0000000e+00 -1.3009667e-04 
9.7765028e-03 0.0000000e+00 -1.4093834e-04 
2.9287796e-02 0.0000000e+00 -1.5178000e-04 
4.5479532e-02 0.0000000e+00 -1.6262165e-04 
6.0086470e-02 0.0000000e+00 -1.6488014e-04 
7.5185969e-02 0.0000000e+00 -1.6713863e-04 
9.0547301e-02 0.0000000e+00 -1.6939711e-04 
1.0593978e-01 0.0000000e+00 -1.7165559e-04 
1.2113266e-01 0.0000000e+00 -1.7391407e-04 
1.3589525e-01 0.0000000e+00 -1.7617256e-04 
1.4999685e-01 0.0000000e+00 -1.7843104e-04 
1.6320673e-01 0.0000000e+00 -1.8068953e-04 
1.7529418e-01 0.0000000e+00 -1.8294802e-04 
1.8602848e-01 0.0000000e+00 -1.8520650e-04 
1.9517893e-01 0.0000000e+00 -1.8746498e-04 
2.0251481e-01 0.0000000e+00 -1.8972346e-04 
2.0849404e-01 0.0000000e+00 -1.9017512e-04 
2.1375799e-01 0.0000000e+00 -1.9062679e-04 
2.1835127e-01 0.0000000e+00 -1.9107845e-04 
2.2231846e-01 0.0000000e+00 -1.9153011e-04 
2.2570412e-01 0.0000000e+00 -1.9198177e-04 
2.2855280e-01 0.0000000e+00 -1.9243344e-04 
2.3090914e-01 0.0000000e+00 -1.9288510e-04 
2.3281765e-01 0.0000000e+00 -1.9333676e-04 
2.3432295e-01 0.0000000e+00 -1.9378841e-04 
2.3546959e-01 0.0000000e+00 -1.9424007e-04 
2.3630217e-01 0.0000000e+00 -1.9469173e-04 
2.3686525e-01 0.0000000e+00 -1.9514340e-04 
ADJOINT_ROTATION 3 212  float
0.0000000e+00 -9.7436632e-04 0.0000000e+00 
0.0000000e+00 -1.0491580e-03 0.0000000e+00 
0.0000000e+00 -1.2735331e-03 0.0000000e+00 
0.0000000e+00 -1.6474915e-03 0.0000000e+00 
0.0000000e+00 -2.1710333e-03 0.0000000e+00 
0.0000000e+00 -2.8441583e-03 0.0000000e+00 
0.0000000e+00 -3.6668668e-03 0.0000000e+00 
0.0000000e+00 -4.6391585e-03 0.0000000e+00 
0.0000000e+00 -5.7610339e-03 0.0000000e+00 
0.0000000e+00 -7.0324922e-03 0.0000000e+00 
0.0000000e+00 -8.4535340e-03 0.0000000e+00 
0.0000000e+00 -1.0024159e-02 0.0000000e+00 
0.0000000e+00 -1.1744368e-02 0.0000000e+00 
0.0000000e+00 -1.4823723e-02 0.0000000e+00 
0.0000000e+00 -1.6999632e-02 0.0000000e+00 
0.0000000e+00 -1.8272096e-02 0.0000000e+00 
0.0000000e+00 -1.8641116e-02 0.0000000e+00 
0.0000000e+00 -1.8106692e-02 0.0000000e+00 
0.0000000e+00 -1.6668821e-02 0.0000000e+00 
0.0000000e+00 -1.4327507e-02 0.0000000e+00 
0.0000000e+00 -1.1082748e-02 0.0000000e+00 
0.0000000e+00 -6.9345445e-03 0.0000000e+00 
0.0000000e+00 -1.8828964e-03 0.0000000e+00 
0.0000000e+00 4.0721968e-03 0.0000000e+00 
0.0000000e+00 1.0930735e-02 0.0000000e+00 
0.0000000e+00 1.4151836e-02 0.0000000e+00 
0.0000000e+00 1.3432764e-02 0.0000000e+00 
0.0000000e+00 8.7735197e-03 0.0000000e+00 
0.0000000e+00 1.7410143e-04 0.0000000e+00 
0.0000000e+00 -1.2365490e-02 0.0000000e+00 
0.0000000e+00 -2.8845254e-02 0.0000000e+00 
0.0000000e+00 -4.9265195e-02 0.0000000e+00 
0.0000000e+00 -7.3625304e-02 0.0000000e+00 
0.0000000e+00 -1.0192559e-01 0.0000000e+00 
0.0000000e+00 -1.3416605e-01 0.0000000e+00 
0.0000000e+00 -1.7034668e-01 0.0000000e+00 
0.0000000e+00 -2.1046749e-01 0.0000000e+00 
0.0000000e+00 -2.8300199e-01 0.0000000e+00 
0.0000000e+00 -3.5255814e-01 0.0000000e+00 
0.0000000e+00 -4.1913599e-01 0.0000000e+00 
0.0000000e+00 -4.8273548e-01 0.0000000e+00 
0.0000000e+00 4.5664334e-01 0.0000000e+00 
0.0000000e+00 3.9900047e-01 0.0000000e+00 
0.0000000e+00 3.4433594e-01 0.0000000e+00 
0.0000000e+00 2.9264975e-01 0.0000000e+00 
0.0000000e+00 2.4394187e-01 0.0000000e+00 
0.0000000e+00 1.9821234e-01 0.0000000e+00 
0.0000000e+00 1.5546112e-01 0.0000000e+00 
0.0000000e+00 1.1568823e-01 0.0000000e+00 
0.0000000e+00 1.0189500e-01 0.0000000e+00 
0.0000000e+00 8.9024626e-02 0.0000000e+00 
0.0000000e+00 7.7077098e-02 0.0000000e+00 
0.0000000e+00 6.6052414e-02 0.0000000e+00 
0.0000000e+00 5.5950575e-02 0.0000000e+00 
0.0000000e+00 4.6771586e-02 0.0000000e+00 
0.0000000e+00 3.8515445e-02 0.0000000e+00 
0.0000000e+00 3.1182153e-02 0.0000000e+00 
0.0000000e+00 2.4771707e-02 0.0000000e+00 
0.0000000e+00 1.9284111e-02 0.0000000e+00 
0.0000000e+00 1.4719360e-02 0.0000000e+00 
0.0000000e+00 1.1077457e-02 0.0000000e+00 
0.0000000e+00 1.1755493e-02 0.0000000e+00 
0.0000000e+00 1.2255227e-02 0.0000000e+00 
0.0000000e+00 1.2576657e-02 0.0000000e+00 
0.0000000e+00 1.2719785e-02 0.0000000e+00 
0.0000000e+00 1.2684609e-02 0.0000000e+00 
0.0000000e+00 1.2471130e-02 0.0000000e+00 
0.0000000e+00 1.2079348e-02 0.0000000e+00 
0.0000000e+00 1.1509263e-02 0.0000000e+00 
0.0000000e+00 1.0760875e-02 0.0000000e+00 
0.0000000e+00 9.8341834e-03 0.0000000e+00 
0.0000000e+00 8.7291896e-03 0.0000000e+00 
0.0000000e+00 7.4458919e-03 0.0000000e+00 
0.0000000e+00 -8.4615611e-03 0.0000000e+00 
0.0000000e+00 1.4411424e-02 0.0000000e+00 
0.0000000e+00 -1.5020017e-01 0.0000000e+00 
0.0000000e+00 7.1228310e-02 0.0000000e+00 
0.0000000e+00 3.9395764e-03 0.0000000e+00 
0.0000000e+00 4.8903385e-03 0.0000000e+00 
0.0000000e+00 -5.5574430e-03 0.0000000e+00 
0.0000000e+00 1.6377205e-02 0.0000000e+00 
0.0000000e+00 -9.7129330e-02 0.0000000e+00 
0.0000000e+00 3.3964846e-02 0.0000000e+00 
0.0000000e+00 -1.6833956e-03 0.0000000e+00 
0.0000000e+00 2.7134747e-03 0.0000000e+00 
0.0000000e+00 -3.0320142e-03 0.0000000e+00 
0.0000000e+00 1.6828079e-02 0.0000000e+00 
0.0000000e+00 -5.1254932e-02 0.0000000e+00 
0.0000000e+00 3.8978285e-03 0.0000000e+00 
0.0000000e+00 -5.7914602e-03 0.0000000e+00 
0.0000000e+00 9.1529998e-04 0.0000000e+00 
0.0000000e+00 -8.8527479e-04 0.0000000e+00 
0.0000000e+00 1.5764045e-02 0.0000000e+00 
0.0000000e+00 -1.2576983e-02 0.0000000e+00 
0.0000000e+00 -1.8972736e-02 0.0000000e+00 
0.0000000e+00 -8.3846161e-03 0.0000000e+00 
0.0000000e+00 -5.0418539e-04 0.0000000e+00 
0.0000000e+00 8.8277523e-04 0.0000000e+00 
0.0000000e+00 1.3185103e-02 0.0000000e+00 
0.0000000e+00 1.8904511e-02 0.0000000e+00 
0.0000000e+00 -3.4646846e-02 0.0000000e+00 
0.0000000e+00 -9.4628651e-03 0.0000000e+00 
0.0000000e+00 -1.5449815e-03 0.0000000e+00 
0.0000000e+00 2.2721360e-03 0.0000000e+00 
0.0000000e+00 9.0912534e-03 0.0000000e+00 
0.0000000e+00 4.3189555e-02 0.0000000e+00 
0.0000000e+00 -4.3124504e-02 0.0000000e+00 
0.0000000e+00 -9.0262061e-03 0.0000000e+00 
0.0000000e+00 -2.2070881e-03 0.0000000e+00 
0.0000000e+00 3.2828073e-03 0.0000000e+00 
0.0000000e+00 3.4824961e-03 0.0000000e+00 
0.0000000e+00 6.0278144e-02 0.0000000e+00 
0.0000000e+00 -4.4405714e-02 0.0000000e+00 
0.0000000e+00 -7.0746387e-03 0.0000000e+00 
0.0000000e+00 -2.4905056e-03 0.0000000e+00 
0.0000000e+00 3.9147893e-03 0.0000000e+00 
0.0000000e+00 -3.6411693e-03 0.0000000e+00 
0.0000000e+00 7.0170283e-02 0.0000000e+00 
0.0000000e+00 -3.8490467e-02 0.0000000e+00 
0.0000000e+00 -3.6081641e-03 0.0000000e+00 
0.0000000e+00 -2.3952336e-03 0.0000000e+00 
0.0000000e+00 4.1680820e-03 0.0000000e+00 
0.0000000e+00 -1.2279742e-02 0.0000000e+00 
0.0000000e+00 7.2865970e-02 0.0000000e+00 
0.0000000e+00 -2.5378771e-02 0.0000000e+00 
0.0000000e+00 1.3732187e-03 0.0000000e+00 
0.0000000e+00 -1.9212724e-03 0.0000000e+00 
0.0000000e+00 4.0426855e-03 0.0000000e+00 
0.0000000e+00 -2.2433223e-02 0.0000000e+00 
0.0000000e+00 6.8365201e-02 0.0000000e+00 
0.0000000e+00 -5.0706211e-03 0.0000000e+00 
0.0000000e+00 7.8695090e-03 0.0000000e+00 
0.0000000e+00 -1.0686218e-03 0.0000000e+00 
0.0000000e+00 3.5385997e-03 0.0000000e+00 
0.0000000e+00 -3.4101613e-02 0.0000000e+00 
0.0000000e+00 5.6667984e-02 0.0000000e+00 
0.0000000e+00 2.2433981e-02 0.0000000e+00 
0.0000000e+00 1.5880708e-02 0.0000000e+00 
0.0000000e+00 1.6271816e-04 0.0000000e+00 
0.0000000e+00 -8.1141777e-03 0.0000000e+00 
0.0000000e+00 -8.0393860e-03 0.0000000e+00 
0.0000000e+00 -7.8150108e-03 0.0000000e+00 
0.0000000e+00 -7.4410522e-03 0.0000000e+00 
0.0000000e+00 -6.9175106e-03 0.0000000e+00 
0.0000000e+00 -6.2443856e-03 0.0000000e+00 
0.0000000e+00 -5.4216771e-03 0.0000000e+00 
0.0000000e+00 -4.4493852e-03 0.0000000e+00 
0.0000000e+00 -3.3275099e-03 0.0000000e+00 
0.0000000e+00 -2.0560515e-03 0.0000000e+00 
0.0000000e+00 -6.3500949e-04 0.0000000e+00 
0.0000000e+00 9.3561580e-04 0.0000000e+00 
0.0000000e+00 2.6558244e-03 0.0000000e+00 
0.0000000e+00 3.4630424e-03 0.0000000e+00 
0.0000000e+00 3.3668159e-03 0.0000000e+00 
0.0000000e+00 2.3671445e-03 0.0000000e+00 
0.0000000e+00 4.6402830e-04 0.0000000e+00 
0.0000000e+00 -2.3425324e-03 0.0000000e+00 
0.0000000e+00 -6.0525378e-03 0.0000000e+00 
0.0000000e+00 -1.0665989e-02 0.0000000e+00 
0.0000000e+00 -1.6182883e-02 0.0000000e+00 
0.0000000e+00 -2.2603223e-02 0.0000000e+00 
0.0000000e+00 -2.9927008e-02 0.0000000e+00 
0.0000000e+00 -3.8154237e-02 0.0000000e+00 
0.0000000e+00 -4.7284909e-02 0.0000000e+00 
0.0000000e+00 -6.1867595e-02 0.0000000e+00 
0.0000000e+00 -7.2510108e-02 0.0000000e+00 
0.0000000e+00 -7.9212442e-02 0.0000000e+00 
0.0000000e+00 -8.1974611e-02 0.0000000e+00 
0.0000000e+00 -8.0796599e-02 0.0000000e+00 
0.0000000e+00 -7.5678416e-02 0.0000000e+00 
0.0000000e+00 -6.6620067e-02 0.0000000e+00 
0.0000000e+00 -5.3621534e-02 0.0000000e+00 
0.0000000e+00 -3.6682833e-02 0.0000000e+00 
0.0000000e+00 -1.5803959e-02 0.0000000e+00 
0.0000000e+00 9.0150898e-03 0.0000000e+00 
0.0000000e+00 3.7774313e-02 0.0000000e+00 
0.0000000e+00 5.5768508e-02 0.0000000e+00 
0.0000000e+00 7.0784375e-02 0.0000000e+00 
0.0000000e+00 8.2821913e-02 0.0000000e+00 
0.0000000e+00 9.1881126e-02 0.0000000e+00 
0.0000000e+00 9.7962014e-02 0.0000000e+00 
0.0000000e+00 1.0106457e-01 0.0000000e+00 
0.0000000e+00 1.0118880e-01 0.0000000e+00 
0.0000000e+00 9.8334707e-02 0.0000000e+00 
0.0000000e+00 9.2502281e-02 0.0000000e+00 
0.0000000e+00 8.3691522e-02 0.0000000e+00 
0.0000000e+00 7.1902446e-02 0.0000000e+00 
0.0000000e+00 5.7135034e-02 0.0000000e+00 
0.0000000e+00 5.9566680e-02 0.0000000e+00 
0.0000000e+00 6.1075475e-02 0.0000000e+00 
0.0000000e+00 6.1661422e-02 0.0000000e+00 
0.0000000e+00 6.1324526e-02 0.0000000e+00 
0.0000000e+00 6.0064778e-02 0.0000000e+00 
0.0000000e+00 5.7882182e-02 0.0000000e+00 
0.0000000e+00 5.4776739e-02 0.0000000e+00 
0.0000000e+00 5.0748449e-02 0.0000000e+00 
0.0000000e+00 4.5797314e-02 0.0000000e+00 
0.0000000e+00 3.9923329e-02 0.0000000e+00 
0.0000000e+00 3.3126496e-02 0.0000000e+00 
0.0000000e+00 2.5406815e-02 0.0000000e+00 
0.0000000e+00 2.2456642e-02 0.0000000e+00 
0.0000000e+00 1.9684773e-02 0.0000000e+00 
0.0000000e+00 1.7091205e-02 0.0000000e+00 
0.0000000e+00 1.4675942e-02 0.0000000e+00 
0.0000000e+00 1.2438982e-02 0.0000000e+00 
0.0000000e+00 1.0380325e-02 0.0000000e+00 